
                                 *****************
                                 * O   R   C   A *
                                 *****************

                                            #,                                       
                                            ###                                      
                                            ####                                     
                                            #####                                    
                                            ######                                   
                                           ########,                                 
                                     ,,################,,,,,                         
                               ,,#################################,,                 
                          ,,##########################################,,             
                       ,#########################################, ''#####,          
                    ,#############################################,,   '####,        
                  ,##################################################,,,,####,       
                ,###########''''           ''''###############################       
              ,#####''   ,,,,##########,,,,          '''####'''          '####       
            ,##' ,,,,###########################,,,                        '##       
           ' ,,###''''                  '''############,,,                           
         ,,##''                                '''############,,,,        ,,,,,,###''
      ,#''                                            '''#######################'''  
     '                                                          ''''####''''         
             ,#######,   #######,   ,#######,      ##                                
            ,#'     '#,  ##    ##  ,#'     '#,    #''#        ######   ,####,        
            ##       ##  ##   ,#'  ##            #'  '#       #        #'  '#        
            ##       ##  #######   ##           ,######,      #####,   #    #        
            '#,     ,#'  ##    ##  '#,     ,#' ,#      #,         ##   #,  ,#        
             '#######'   ##     ##  '#######'  #'      '#     #####' # '####'        



                  #######################################################
                  #                        -***-                        #
                  #          Department of theory and spectroscopy      #
                  #    Directorship and core code : Frank Neese         #
                  #        Max Planck Institute fuer Kohlenforschung    #
                  #                Kaiser Wilhelm Platz 1               #
                  #                 D-45470 Muelheim/Ruhr               #
                  #                      Germany                        #
                  #                                                     #
                  #                  All rights reserved                #
                  #                        -***-                        #
                  #######################################################


                         Program Version 5.0.4 -  RELEASE  -


 With contributions from (in alphabetic order):
   Daniel Aravena         : Magnetic Suceptibility
   Michael Atanasov       : Ab Initio Ligand Field Theory (pilot matlab implementation)
   Alexander A. Auer      : GIAO ZORA, VPT2 properties, NMR spectrum
   Ute Becker             : Parallelization
   Giovanni Bistoni       : ED, misc. LED, open-shell LED, HFLD
   Martin Brehm           : Molecular dynamics
   Dmytro Bykov           : SCF Hessian
   Vijay G. Chilkuri      : MRCI spin determinant printing, contributions to CSF-ICE
   Dipayan Datta          : RHF DLPNO-CCSD density
   Achintya Kumar Dutta   : EOM-CC, STEOM-CC
   Dmitry Ganyushin       : Spin-Orbit,Spin-Spin,Magnetic field MRCI
   Miquel Garcia          : C-PCM and meta-GGA Hessian, CC/C-PCM, Gaussian charge scheme
   Yang Guo               : DLPNO-NEVPT2, F12-NEVPT2, CIM, IAO-localization
   Andreas Hansen         : Spin unrestricted coupled pair/coupled cluster methods
   Benjamin Helmich-Paris : MC-RPA, TRAH-SCF, COSX integrals
   Lee Huntington         : MR-EOM, pCC
   Robert Izsak           : Overlap fitted RIJCOSX, COSX-SCS-MP3, EOM
   Marcus Kettner         : VPT2
   Christian Kollmar      : KDIIS, OOCD, Brueckner-CCSD(T), CCSD density, CASPT2, CASPT2-K
   Simone Kossmann        : Meta GGA functionals, TD-DFT gradient, OOMP2, MP2 Hessian
   Martin Krupicka        : Initial AUTO-CI
   Lucas Lang             : DCDCAS
   Marvin Lechner         : AUTO-CI (C++ implementation), FIC-MRCC
   Dagmar Lenk            : GEPOL surface, SMD
   Dimitrios Liakos       : Extrapolation schemes; Compound Job, initial MDCI parallelization
   Dimitrios Manganas     : Further ROCIS development; embedding schemes
   Dimitrios Pantazis     : SARC Basis sets
   Anastasios Papadopoulos: AUTO-CI, single reference methods and gradients
   Taras Petrenko         : DFT Hessian,TD-DFT gradient, ASA, ECA, R-Raman, ABS, FL, XAS/XES, NRVS
   Peter Pinski           : DLPNO-MP2, DLPNO-MP2 Gradient
   Christoph Reimann      : Effective Core Potentials
   Marius Retegan         : Local ZFS, SOC
   Christoph Riplinger    : Optimizer, TS searches, QM/MM, DLPNO-CCSD(T), (RO)-DLPNO pert. Triples
   Tobias Risthaus        : Range-separated hybrids, TD-DFT gradient, RPA, STAB
   Michael Roemelt        : Original ROCIS implementation
   Masaaki Saitow         : Open-shell DLPNO-CCSD energy and density
   Barbara Sandhoefer     : DKH picture change effects
   Avijit Sen             : IP-ROCIS
   Kantharuban Sivalingam : CASSCF convergence, NEVPT2, FIC-MRCI
   Bernardo de Souza      : ESD, SOC TD-DFT
   Georgi Stoychev        : AutoAux, RI-MP2 NMR, DLPNO-MP2 response
   Willem Van den Heuvel  : Paramagnetic NMR
   Boris Wezisla          : Elementary symmetry handling
   Frank Wennmohs         : Technical directorship


 We gratefully acknowledge several colleagues who have allowed us to
 interface, adapt or use parts of their codes:
   Stefan Grimme, W. Hujo, H. Kruse, P. Pracht,  : VdW corrections, initial TS optimization,
                  C. Bannwarth, S. Ehlert          DFT functionals, gCP, sTDA/sTD-DF
   Ed Valeev, F. Pavosevic, A. Kumar             : LibInt (2-el integral package), F12 methods
   Garnet Chan, S. Sharma, J. Yang, R. Olivares  : DMRG
   Ulf Ekstrom                                   : XCFun DFT Library
   Mihaly Kallay                                 : mrcc  (arbitrary order and MRCC methods)
   Jiri Pittner, Ondrej Demel                    : Mk-CCSD
   Frank Weinhold                                : gennbo (NPA and NBO analysis)
   Christopher J. Cramer and Donald G. Truhlar   : smd solvation model
   Lars Goerigk                                  : TD-DFT with DH, B97 family of functionals
   V. Asgeirsson, H. Jonsson                     : NEB implementation
   FAccTs GmbH                                   : IRC, NEB, NEB-TS, DLPNO-Multilevel, CI-OPT
                                                   MM, QMMM, 2- and 3-layer-ONIOM, Crystal-QMMM,
                                                   LR-CPCM, SF, NACMEs, symmetry and pop. for TD-DFT,
                                                   nearIR, NL-DFT gradient (VV10), updates on ESD,
                                                   ML-optimized integration grids
   S Lehtola, MJT Oliveira, MAL Marques          : LibXC Library
   Liviu Ungur et al                             : ANISO software


 Your calculation uses the libint2 library for the computation of 2-el integrals
 For citations please refer to: http://libint.valeyev.net

 Your ORCA version has been built with support for libXC version: 5.1.0
 For citations please refer to: https://tddft.org/programs/libxc/

 This ORCA versions uses:
   CBLAS   interface :  Fast vector & matrix operations
   LAPACKE interface :  Fast linear algebra routines
   SCALAPACK package :  Parallel linear algebra routines
   Shared memory     :  Shared parallel matrices
   BLAS/LAPACK       :  OpenBLAS 0.3.15  USE64BITINT DYNAMIC_ARCH NO_AFFINITY Zen SINGLE_THREADED
        Core in use  :  Zen
   Copyright (c) 2011-2014, The OpenBLAS Project




***************************************
The coordinates will be read from file: opt.xyz
***************************************


================================================================================

----- Orbital basis set information -----
Your calculation utilizes the basis: EPR-II
   V. Barone, in Recent Advances in Density Functional Methods, Part 1 (ed. D. P. Chong), World Scientific, Singapore, 1995, p. 287.

----- AuxJ basis set information -----
Your calculation utilizes the AutoAux generation procedure.
  G. L. Stoychev, A. A. Auer, F. Neese, J. Chem. Theory Comput. 13, 554 (2017)

----- AuxC basis set information -----
Your calculation utilizes the AutoAux generation procedure.
  G. L. Stoychev, A. A. Auer, F. Neese, J. Chem. Theory Comput. 13, 554 (2017)

----- AuxJK basis set information -----
Your calculation utilizes the AutoAux generation procedure.
  G. L. Stoychev, A. A. Auer, F. Neese, J. Chem. Theory Comput. 13, 554 (2017)

================================================================================
                                        WARNINGS
                       Please study these warnings very carefully!
================================================================================


WARNING: your system is open-shell and RHF/RKS was chosen
  ===> : WILL SWITCH to UHF/UKS


INFO   : the flag for use of the SHARK integral package has been found!

================================================================================
                                       INPUT FILE
================================================================================
NAME = epr_info.inp
|  1> ! B3LYP EPR-II AUTOAUX
|  2> %pal nprocs 16 end
|  3> *XYZFile 1 2 opt.xyz
|  4> %EPRNMR
|  5>         GTENSOR   TRUE
|  6>         NUCLEI    = 9,15,29,30,31,32,33 {SHIFT, AISO, ADIP, AORB}
|  7>         ORI       GIAO
|  8> END
|  9> 
| 10>                          ****END OF INPUT****
================================================================================

                       ****************************
                       * Single Point Calculation *
                       ****************************

---------------------------------
CARTESIAN COORDINATES (ANGSTROEM)
---------------------------------
  N     -7.879860    0.843240    0.071065
  C     -6.449482    0.845818    0.186081
  C     -6.126094    0.866142    1.696700
  O     -6.908102    1.402274    2.482423
  C     -5.746994    2.065249   -0.542217
  C     -6.156621    3.442635   -0.012386
  C     -5.508050    4.540574   -0.882534
  C     -5.973071    5.968803   -0.388244
  N     -5.402749    7.015754   -1.178681
  H     -8.388148    1.136328    0.901543
  C     -8.537574    0.491782   -1.099980
  N     -4.942953    0.304118    2.049696
  H     -4.428098   -0.206486    1.345853
  O     -7.889606    0.213118   -2.105279
  H     -4.432712    7.277793   -1.049939
  C     -4.508485    0.184487    3.444424
  H     -4.752321   -0.803202    3.848785
  H     -3.429030    0.341188    3.503225
  H     -5.025173    0.942830    4.032353
  C    -10.052365    0.456138   -1.036209
  H    -10.455672    0.878457   -1.958386
  H    -10.367606   -0.591325   -0.985052
  H    -10.460211    0.986199   -0.172211
  H     -6.062276   -0.046340   -0.320701
  H     -4.664645    1.923285   -0.453069
  H     -6.009003    1.952906   -1.599745
  H     -5.851638    3.572678    1.031228
  H     -7.247444    3.543062   -0.042677
  H     -4.415740    4.492883   -0.822265
  H     -5.793009    4.422397   -1.933180
  H     -5.664225    6.094830    0.653862
  H     -7.063013    6.027826   -0.450814
  H     -5.805282    7.250238   -2.078161

----------------------------
CARTESIAN COORDINATES (A.U.)
----------------------------
  NO LB      ZA    FRAG     MASS         X           Y           Z
   0 N     7.0000    0    14.007  -14.890778    1.593493    0.134294
   1 C     6.0000    0    12.011  -12.187756    1.598364    0.351643
   2 C     6.0000    0    12.011  -11.576640    1.636772    3.206297
   3 O     8.0000    0    15.999  -13.054420    2.649913    4.691099
   4 C     6.0000    0    12.011  -10.860244    3.902756   -1.024641
   5 C     6.0000    0    12.011  -11.634328    6.505636   -0.023406
   6 C     6.0000    0    12.011  -10.408706    8.580441   -1.667748
   7 C     6.0000    0    12.011  -11.287469   11.279404   -0.733676
   8 N     7.0000    0    14.007  -10.209717   13.257854   -2.227384
   9 H     1.0000    0     1.008  -15.851302    2.147348    1.703669
  10 C     6.0000    0    12.011  -16.133677    0.929333   -2.078660
  11 N     7.0000    0    14.007   -9.340827    0.574700    3.873364
  12 H     1.0000    0     1.008   -8.367893   -0.390201    2.543294
  13 O     8.0000    0    15.999  -14.909195    0.402735   -3.978401
  14 H     1.0000    0     1.008   -8.376612   13.753036   -1.984097
  15 C     6.0000    0    12.011   -8.519802    0.348629    6.509019
  16 H     1.0000    0     1.008   -8.980585   -1.517832    7.273150
  17 H     1.0000    0     1.008   -6.479928    0.644752    6.620135
  18 H     1.0000    0     1.008   -9.496201    1.781691    7.620042
  19 C     6.0000    0    12.011  -18.996216    0.861976   -1.958151
  20 H     1.0000    0     1.008  -19.758357    1.660043   -3.700813
  21 H     1.0000    0     1.008  -19.591936   -1.117442   -1.861479
  22 H     1.0000    0     1.008  -19.766934    1.863646   -0.325431
  23 H     1.0000    0     1.008  -11.456042   -0.087569   -0.606037
  24 H     1.0000    0     1.008   -8.814901    3.634482   -0.856176
  25 H     1.0000    0     1.008  -11.355370    3.690458   -3.023080
  26 H     1.0000    0     1.008  -11.057994    6.751384    1.948739
  27 H     1.0000    0     1.008  -13.695684    6.695417   -0.080648
  28 H     1.0000    0     1.008   -8.344539    8.490319   -1.553856
  29 H     1.0000    0     1.008  -10.947201    8.357119   -3.653181
  30 H     1.0000    0     1.008  -10.703835   11.517559    1.235620
  31 H     1.0000    0     1.008  -13.347160   11.390940   -0.851916
  32 H     1.0000    0     1.008  -10.970392   13.700964   -3.927156

--------------------------------
INTERNAL COORDINATES (ANGSTROEM)
--------------------------------
 N      0   0   0     0.000000000000     0.00000000     0.00000000
 C      1   0   0     1.434997092124     0.00000000     0.00000000
 C      2   1   0     1.544979074690   106.68044914     0.00000000
 O      3   2   1     1.231394766315   119.78089349   330.50467034
 C      2   1   3     1.584588945706   113.98155939   238.05135864
 C      5   2   1     1.531569514983   114.48887032    60.79350720
 C      6   5   2     1.543785585053   109.40550999   185.13908850
 C      7   6   5     1.581267362732   110.03712424   177.47941064
 N      8   7   6     1.430441439878   111.78277870   180.55412023
 H      1   2   3     1.016832726050   115.61264674    17.93752454
 C      1   2   3     1.388328627146   122.70278663   196.68277657
 N      3   2   1     1.356576850670   115.56464095   152.36997021
 H     12   3   2     1.010537728056   118.19320279   350.82019233
 O     11   1   2     1.228064565796   119.86557968   357.36038648
 H      9   8   7     1.013020983310   120.05844711   283.97621674
 C     12   3   2     1.465721843583   122.67988066   182.83111755
 H     16  12   3     1.094756551035   111.04411648    95.97314928
 H     16  12   3     1.092353228877   109.41645257   216.64443454
 H     16  12   3     1.089821685899   108.42207437   336.44504997
 C     11   1   2     1.516551370431   116.33865901   176.33568994
 H     20  11   1     1.091522214330   108.93179419   139.62257264
 H     20  11   1     1.095067811765   108.17892292   256.36619909
 H     20  11   1     1.092609551897   113.24685301    16.84544077
 H      2   1   3     1.096677725441   108.26642163   121.74436622
 H      5   2   1     1.095253303721   107.51429951   184.17179078
 H      5   2   1     1.095279072321   104.99809872   298.50624244
 H      6   5   2     1.095014403713   111.22392111    63.89814004
 H      6   5   2     1.095854557877   109.82101240   305.62013979
 H      7   6   5     1.095010905968   110.92119617   297.40922419
 H      7   6   5     1.094999348997   110.77685315    57.23579478
 H      8   7   6     1.094190807026   108.58641234    59.97835318
 H      8   7   6     1.093330699116   108.90741778   301.10795767
 H      9   8   7     1.012956196909   120.11031500    80.12297614

---------------------------
INTERNAL COORDINATES (A.U.)
---------------------------
 N      0   0   0     0.000000000000     0.00000000     0.00000000
 C      1   0   0     2.711751507089     0.00000000     0.00000000
 C      2   1   0     2.919587333803   106.68044914     0.00000000
 O      3   2   1     2.326998871080   119.78089349   330.50467034
 C      2   1   3     2.994439142223   113.98155939   238.05135864
 C      5   2   1     2.894246938381   114.48887032    60.79350720
 C      6   5   2     2.917331965245   109.40550999   185.13908850
 C      7   6   5     2.988162260071   110.03712424   177.47941064
 N      8   7   6     2.703142571982   111.78277870   180.55412023
 H      1   2   3     1.921535376243   115.61264674    17.93752454
 C      1   2   3     2.623560889188   122.70278663   196.68277657
 N      3   2   1     2.563558727384   115.56464095   152.36997021
 H     12   3   2     1.909639554021   118.19320279   350.82019233
 O     11   1   2     2.320705704128   119.86557968   357.36038648
 H      9   8   7     1.914332226371   120.05844711   283.97621674
 C     12   3   2     2.769812872879   122.67988066   182.83111755
 H     16  12   3     2.068790064772   111.04411648    95.97314928
 H     16  12   3     2.064248444083   109.41645257   216.64443454
 H     16  12   3     2.059464521158   108.42207437   336.44504997
 C     11   1   2     2.865866758138   116.33865901   176.33568994
 H     20  11   1     2.062678054174   108.93179419   139.62257264
 H     20  11   1     2.069378262309   108.17892292   256.36619909
 H     20  11   1     2.064732824392   113.24685301    16.84544077
 H      2   1   3     2.072420558256   108.26642163   121.74436622
 H      5   2   1     2.069728791305   107.51429951   184.17179078
 H      5   2   1     2.069777486902   104.99809872   298.50624244
 H      6   5   2     2.069277335716   111.22392111    63.89814004
 H      6   5   2     2.070864996997   109.82101240   305.62013979
 H      7   6   5     2.069270725936   110.92119617   297.40922419
 H      7   6   5     2.069248886426   110.77685315    57.23579478
 H      8   7   6     2.067720963534   108.58641234    59.97835318
 H      8   7   6     2.066095595137   108.90741778   301.10795767
 H      9   8   7     1.914209797817   120.11031500    80.12297614

---------------------
BASIS SET INFORMATION
---------------------
There are 4 groups of distinct atoms

 Group   1 Type N   : 10s5p1d contracted to 6s2p1d pattern {511111/41/1}
 Group   2 Type C   : 10s5p1d contracted to 6s2p1d pattern {511111/41/1}
 Group   3 Type O   : 10s5p1d contracted to 6s2p1d pattern {511111/41/1}
 Group   4 Type H   : 6s1p contracted to 4s1p pattern {3111/1}

Atom   0N    basis set group =>   1
Atom   1C    basis set group =>   2
Atom   2C    basis set group =>   2
Atom   3O    basis set group =>   3
Atom   4C    basis set group =>   2
Atom   5C    basis set group =>   2
Atom   6C    basis set group =>   2
Atom   7C    basis set group =>   2
Atom   8N    basis set group =>   1
Atom   9H    basis set group =>   4
Atom  10C    basis set group =>   2
Atom  11N    basis set group =>   1
Atom  12H    basis set group =>   4
Atom  13O    basis set group =>   3
Atom  14H    basis set group =>   4
Atom  15C    basis set group =>   2
Atom  16H    basis set group =>   4
Atom  17H    basis set group =>   4
Atom  18H    basis set group =>   4
Atom  19C    basis set group =>   2
Atom  20H    basis set group =>   4
Atom  21H    basis set group =>   4
Atom  22H    basis set group =>   4
Atom  23H    basis set group =>   4
Atom  24H    basis set group =>   4
Atom  25H    basis set group =>   4
Atom  26H    basis set group =>   4
Atom  27H    basis set group =>   4
Atom  28H    basis set group =>   4
Atom  29H    basis set group =>   4
Atom  30H    basis set group =>   4
Atom  31H    basis set group =>   4
Atom  32H    basis set group =>   4
---------------------------------
AUXILIARY/J BASIS SET INFORMATION
---------------------------------
There are 4 groups of distinct atoms

 Group   1 Type N   : 17s13p12d2f contracted to 17s13p12d2f pattern {11111111111111111/1111111111111/111111111111/11}
 Group   2 Type C   : 17s13p12d2f contracted to 17s13p12d2f pattern {11111111111111111/1111111111111/111111111111/11}
 Group   3 Type O   : 17s13p12d2f contracted to 17s13p12d2f pattern {11111111111111111/1111111111111/111111111111/11}
 Group   4 Type H   : 15s6p1d contracted to 15s6p1d pattern {111111111111111/111111/1}

Atom   0N    basis set group =>   1
Atom   1C    basis set group =>   2
Atom   2C    basis set group =>   2
Atom   3O    basis set group =>   3
Atom   4C    basis set group =>   2
Atom   5C    basis set group =>   2
Atom   6C    basis set group =>   2
Atom   7C    basis set group =>   2
Atom   8N    basis set group =>   1
Atom   9H    basis set group =>   4
Atom  10C    basis set group =>   2
Atom  11N    basis set group =>   1
Atom  12H    basis set group =>   4
Atom  13O    basis set group =>   3
Atom  14H    basis set group =>   4
Atom  15C    basis set group =>   2
Atom  16H    basis set group =>   4
Atom  17H    basis set group =>   4
Atom  18H    basis set group =>   4
Atom  19C    basis set group =>   2
Atom  20H    basis set group =>   4
Atom  21H    basis set group =>   4
Atom  22H    basis set group =>   4
Atom  23H    basis set group =>   4
Atom  24H    basis set group =>   4
Atom  25H    basis set group =>   4
Atom  26H    basis set group =>   4
Atom  27H    basis set group =>   4
Atom  28H    basis set group =>   4
Atom  29H    basis set group =>   4
Atom  30H    basis set group =>   4
Atom  31H    basis set group =>   4
Atom  32H    basis set group =>   4
---------------------------------
AUXILIARY/C BASIS SET INFORMATION
---------------------------------
There are 4 groups of distinct atoms

 Group   1 Type N   : 17s13p12d2f contracted to 17s13p12d2f pattern {11111111111111111/1111111111111/111111111111/11}
 Group   2 Type C   : 17s13p12d2f contracted to 17s13p12d2f pattern {11111111111111111/1111111111111/111111111111/11}
 Group   3 Type O   : 17s13p12d2f contracted to 17s13p12d2f pattern {11111111111111111/1111111111111/111111111111/11}
 Group   4 Type H   : 15s6p1d contracted to 15s6p1d pattern {111111111111111/111111/1}

Atom   0N    basis set group =>   1
Atom   1C    basis set group =>   2
Atom   2C    basis set group =>   2
Atom   3O    basis set group =>   3
Atom   4C    basis set group =>   2
Atom   5C    basis set group =>   2
Atom   6C    basis set group =>   2
Atom   7C    basis set group =>   2
Atom   8N    basis set group =>   1
Atom   9H    basis set group =>   4
Atom  10C    basis set group =>   2
Atom  11N    basis set group =>   1
Atom  12H    basis set group =>   4
Atom  13O    basis set group =>   3
Atom  14H    basis set group =>   4
Atom  15C    basis set group =>   2
Atom  16H    basis set group =>   4
Atom  17H    basis set group =>   4
Atom  18H    basis set group =>   4
Atom  19C    basis set group =>   2
Atom  20H    basis set group =>   4
Atom  21H    basis set group =>   4
Atom  22H    basis set group =>   4
Atom  23H    basis set group =>   4
Atom  24H    basis set group =>   4
Atom  25H    basis set group =>   4
Atom  26H    basis set group =>   4
Atom  27H    basis set group =>   4
Atom  28H    basis set group =>   4
Atom  29H    basis set group =>   4
Atom  30H    basis set group =>   4
Atom  31H    basis set group =>   4
Atom  32H    basis set group =>   4
----------------------------------
AUXILIARY/JK BASIS SET INFORMATION
----------------------------------
There are 4 groups of distinct atoms

 Group   1 Type N   : 17s13p12d2f contracted to 17s13p12d2f pattern {11111111111111111/1111111111111/111111111111/11}
 Group   2 Type C   : 17s13p12d2f contracted to 17s13p12d2f pattern {11111111111111111/1111111111111/111111111111/11}
 Group   3 Type O   : 17s13p12d2f contracted to 17s13p12d2f pattern {11111111111111111/1111111111111/111111111111/11}
 Group   4 Type H   : 15s6p1d contracted to 15s6p1d pattern {111111111111111/111111/1}

Atom   0N    basis set group =>   1
Atom   1C    basis set group =>   2
Atom   2C    basis set group =>   2
Atom   3O    basis set group =>   3
Atom   4C    basis set group =>   2
Atom   5C    basis set group =>   2
Atom   6C    basis set group =>   2
Atom   7C    basis set group =>   2
Atom   8N    basis set group =>   1
Atom   9H    basis set group =>   4
Atom  10C    basis set group =>   2
Atom  11N    basis set group =>   1
Atom  12H    basis set group =>   4
Atom  13O    basis set group =>   3
Atom  14H    basis set group =>   4
Atom  15C    basis set group =>   2
Atom  16H    basis set group =>   4
Atom  17H    basis set group =>   4
Atom  18H    basis set group =>   4
Atom  19C    basis set group =>   2
Atom  20H    basis set group =>   4
Atom  21H    basis set group =>   4
Atom  22H    basis set group =>   4
Atom  23H    basis set group =>   4
Atom  24H    basis set group =>   4
Atom  25H    basis set group =>   4
Atom  26H    basis set group =>   4
Atom  27H    basis set group =>   4
Atom  28H    basis set group =>   4
Atom  29H    basis set group =>   4
Atom  30H    basis set group =>   4
Atom  31H    basis set group =>   4
Atom  32H    basis set group =>   4


           ************************************************************
           *        Program running with 16 parallel MPI-processes    *
           *              working on a common directory               *
           ************************************************************
------------------------------------------------------------------------------
                           ORCA GTO INTEGRAL CALCULATION
                           -- RI-GTO INTEGRALS CHOSEN --
------------------------------------------------------------------------------
------------------------------------------------------------------------------
                   ___                                                        
                  /   \      - P O W E R E D   B Y -                         
                 /     \                                                     
                 |  |  |   _    _      __       _____    __    __             
                 |  |  |  | |  | |    /  \     |  _  \  |  |  /  |          
                  \  \/   | |  | |   /    \    | | | |  |  | /  /          
                 / \  \   | |__| |  /  /\  \   | |_| |  |  |/  /          
                |  |  |   |  __  | /  /__\  \  |    /   |      \           
                |  |  |   | |  | | |   __   |  |    \   |  |\   \          
                \     /   | |  | | |  |  |  |  | |\  \  |  | \   \       
                 \___/    |_|  |_| |__|  |__|  |_| \__\ |__|  \__/        
                                                                              
                      - O R C A' S   B I G   F R I E N D -                    
                                      &                                       
                       - I N T E G R A L  F E E D E R -                       
                                                                              
 v1 FN, 2020, v2 2021                                                         
------------------------------------------------------------------------------


Reading SHARK input file epr_info.SHARKINP.tmp ... ok
----------------------
SHARK INTEGRAL PACKAGE
----------------------

Number of atoms                             ...     33
Number of basis functions                   ...    371
Number of shells                            ...    221
Maximum angular momentum                    ...      2
Integral batch strategy                     ... SHARK/LIBINT Hybrid
RI-J (if used) integral strategy            ... SPLIT-RIJ (Revised 2003 algorithm where possible)
Printlevel                                  ...      1
Contraction scheme used                     ... SEGMENTED contraction
Coulomb Range Separation                    ... NOT USED
Exchange Range Separation                   ... NOT USED
Finite Nucleus Model                        ... NOT USED
Auxiliary Coulomb fitting basis             ... AVAILABLE
   # of basis functions in Aux-J            ...   2542
   # of shells in Aux-J                     ...   1034
   Maximum angular momentum in Aux-J        ...      3
Auxiliary J/K fitting basis                 ... AVAILABLE
   # of basis functions in Aux-JK           ...   2542
   # of shells in Aux-JK                    ...   1034
   Maximum angular momentum in Aux-JK       ...      3
Auxiliary Correlation fitting basis         ... AVAILABLE
   # of basis functions in Aux-C            ...   2542
   # of shells in Aux-C                     ...   1034
   Maximum angular momentum in Aux-C        ...      3
Auxiliary 'external' fitting basis          ... NOT available
Integral threshold                          ...     1.000000e-10
Primitive cut-off                           ...     1.000000e-11
Primitive pair pre-selection threshold      ...     1.000000e-11

Calculating pre-screening integrals         ... done (  0.0 sec) Dimension = 221
Organizing shell pair data                  ... done (  0.0 sec)
Shell pair information
Total number of shell pairs                 ...     24531
Shell pairs after pre-screening             ...     15569
Total number of primitive shell pairs       ...     64184
Primitive shell pairs kept                  ...     29495
          la=0 lb=0:   7362 shell pairs
          la=1 lb=0:   5308 shell pairs
          la=1 lb=1:    911 shell pairs
          la=2 lb=0:   1405 shell pairs
          la=2 lb=1:    503 shell pairs
          la=2 lb=2:     80 shell pairs

Calculating one electron integrals          ... done (  0.0 sec)
Calculating RI/J V-Matrix + Cholesky decomp.... done (  0.3 sec)
Calculating RI/JK V-Matrix + Cholesky decomp... done (  0.3 sec)
Calculating RI/C V-Matrix + Cholesky decomp.... done (  0.4 sec)
Calculating Nuclear repulsion               ... done (  0.0 sec) ENN=    931.339085552231 Eh

SHARK setup successfully completed in   1.2 seconds

Maximum memory used throughout the entire GTOINT-calculation: 28.8 MB


           ************************************************************
           *        Program running with 16 parallel MPI-processes    *
           *              working on a common directory               *
           ************************************************************
-------------------------------------------------------------------------------
                                 ORCA SCF
-------------------------------------------------------------------------------

------------
SCF SETTINGS
------------
Hamiltonian:
 Density Functional     Method          .... DFT(GTOs)
 Exchange Functional    Exchange        .... B88
   X-Alpha parameter    XAlpha          ....  0.666667
   Becke's b parameter  XBeta           ....  0.004200
 Correlation Functional Correlation     .... LYP
 LDA part of GGA corr.  LDAOpt          .... VWN-5
 Gradients option       PostSCFGGA      .... off
 Hybrid DFT is turned on
   Fraction HF Exchange ScalHFX         ....  0.200000
   Scaling of DF-GGA-X  ScalDFX         ....  0.720000
   Scaling of DF-GGA-C  ScalDFC         ....  0.810000
   Scaling of DF-LDA-C  ScalLDAC        ....  1.000000
   Perturbative correction              ....  0.000000
   Density functional embedding theory  .... OFF
   NL short-range parameter             ....  4.800000
 RI-approximation to the Coulomb term is turned on
   Number of AuxJ basis functions       .... 2542
   RIJ-COSX (HFX calculated with COS-X)).... on


General Settings:
 Integral files         IntName         .... epr_info
 Hartree-Fock type      HFTyp           .... UHF
 Total Charge           Charge          ....    1
 Multiplicity           Mult            ....    2
 Number of Electrons    NEL             ....  109
 Basis Dimension        Dim             ....  371
 Nuclear Repulsion      ENuc            ....    931.3390855522 Eh

Convergence Acceleration:
 DIIS                   CNVDIIS         .... on
   Start iteration      DIISMaxIt       ....    12
   Startup error        DIISStart       ....  0.200000
   # of expansion vecs  DIISMaxEq       ....     5
   Bias factor          DIISBfac        ....   1.050
   Max. coefficient     DIISMaxC        ....  10.000
 Trust-Rad. Augm. Hess. CNVTRAH         .... auto
   Auto Start mean grad. ratio tolernc. ....  1.125000
   Auto Start start iteration           ....    20
   Auto Start num. interpolation iter.  ....    10
   Max. Number of Micro iterations      ....    16
   Max. Number of Macro iterations      .... Maxiter - #DIIS iter
   Number of Davidson start vectors     ....     2
   Converg. threshold I  (grad. norm)   ....   5.000e-05
   Converg. threshold II (energy diff.) ....   1.000e-06
   Grad. Scal. Fac. for Micro threshold ....   0.100
   Minimum threshold for Micro iter.    ....   0.010
   NR start threshold (gradient norm)   ....   0.001
   Initial trust radius                 ....   0.400
   Minimum AH scaling param. (alpha)    ....   1.000
   Maximum AH scaling param. (alpha)    .... 1000.000
   Orbital update algorithm             .... Taylor
   White noise on init. David. guess    .... on
   Maximum white noise                  ....   0.010
   Quad. conv. algorithm                .... NR
 SOSCF                  CNVSOSCF        .... off
 Level Shifting         CNVShift        .... on
   Level shift para.    LevelShift      ....    0.2500
   Turn off err/grad.   ShiftErr        ....    0.0010
 Zerner damping         CNVZerner       .... off
 Static damping         CNVDamp         .... on
   Fraction old density DampFac         ....    0.7000
   Max. Damping (<1)    DampMax         ....    0.9800
   Min. Damping (>=0)   DampMin         ....    0.0000
   Turn off err/grad.   DampErr         ....    0.1000
 Fernandez-Rico         CNVRico         .... off

SCF Procedure:
 Maximum # iterations   MaxIter         ....   125
 SCF integral mode      SCFMode         .... Direct
   Integral package                     .... SHARK and LIBINT hybrid scheme
 Reset frequency        DirectResetFreq ....    20
 Integral Threshold     Thresh          ....  1.000e-10 Eh
 Primitive CutOff       TCut            ....  1.000e-11 Eh

Convergence Tolerance:
 Convergence Check Mode ConvCheckMode   .... Total+1el-Energy
 Convergence forced     ConvForced      .... 0
 Energy Change          TolE            ....  1.000e-06 Eh
 1-El. energy change                    ....  1.000e-03 Eh
 DIIS Error             TolErr          ....  1.000e-06


Diagonalization of the overlap matrix:
Smallest eigenvalue                        ... 1.088e-03
Time for diagonalization                   ...    0.015 sec
Threshold for overlap eigenvalues          ... 1.000e-08
Number of eigenvalues below threshold      ... 0
Time for construction of square roots      ...    0.011 sec
Total time needed                          ...    0.027 sec

Time for model grid setup =    0.114 sec

------------------------------
INITIAL GUESS: MODEL POTENTIAL
------------------------------
Loading Hartree-Fock densities                     ... done
Calculating cut-offs                               ... done
Initializing the effective Hamiltonian             ... done
Setting up the integral package (SHARK)            ... done
Starting the Coulomb interaction                   ... done (   0.1 sec)
Reading the grid                                   ... done
Mapping shells                                     ... done
Starting the XC term evaluation                    ... done (   0.0 sec)
  promolecular density results
     # of electrons  =    109.999055903
     EX              =    -88.042156310
     EC              =     -3.685287087
     EX+EC           =    -91.727443397
Transforming the Hamiltonian                       ... done (   0.0 sec)
Diagonalizing the Hamiltonian                      ... done (   0.0 sec)
Back transforming the eigenvectors                 ... done (   0.0 sec)
Now organizing SCF variables                       ... done
                      ------------------
                      INITIAL GUESS DONE (   0.3 sec)
                      ------------------
-------------------
DFT GRID GENERATION
-------------------

General Integration Accuracy     IntAcc      ... 4.388
Radial Grid Type                 RadialGrid  ... OptM3 with GC (2021)
Angular Grid (max. ang.)         AngularGrid ... 4 (Lebedev-302)
Angular grid pruning method      GridPruning ... 4 (adaptive)
Weight generation scheme         WeightScheme... Becke
Basis function cutoff            BFCut       ... 1.0000e-10
Integration weight cutoff        WCut        ... 1.0000e-14
Angular grids for H and He will be reduced by one unit
Partially contracted basis set               ... off
Rotationally invariant grid construction     ... off

Total number of grid points                  ...   144750
Total number of batches                      ...     2279
Average number of points per batch           ...       63
Average number of grid points per atom       ...     4386
Time for grid setup =    0.616 sec

--------------------
COSX GRID GENERATION
--------------------

GRIDX 1
-------
General Integration Accuracy     IntAcc      ... 3.816
Radial Grid Type                 RadialGrid  ... OptM3 with GC (2021)
Angular Grid (max. ang.)         AngularGrid ... 1 (Lebedev-50)
Angular grid pruning method      GridPruning ... 4 (adaptive)
Weight generation scheme         WeightScheme... Becke
Basis function cutoff            BFCut       ... 1.0000e-10
Integration weight cutoff        WCut        ... 1.0000e-14
Angular grids for H and He will be reduced by one unit
Partially contracted basis set               ... on
Rotationally invariant grid construction     ... off

Total number of grid points                  ...    18469
Total number of batches                      ...      310
Average number of points per batch           ...       59
Average number of grid points per atom       ...      560
UseSFitting                                  ... on

GRIDX 2
-------
General Integration Accuracy     IntAcc      ... 4.020
Radial Grid Type                 RadialGrid  ... OptM3 with GC (2021)
Angular Grid (max. ang.)         AngularGrid ... 2 (Lebedev-110)
Angular grid pruning method      GridPruning ... 4 (adaptive)
Weight generation scheme         WeightScheme... Becke
Basis function cutoff            BFCut       ... 1.0000e-10
Integration weight cutoff        WCut        ... 1.0000e-14
Angular grids for H and He will be reduced by one unit
Partially contracted basis set               ... on
Rotationally invariant grid construction     ... off

Total number of grid points                  ...    38956
Total number of batches                      ...      627
Average number of points per batch           ...       62
Average number of grid points per atom       ...     1180
UseSFitting                                  ... on

GRIDX 3
-------
General Integration Accuracy     IntAcc      ... 4.338
Radial Grid Type                 RadialGrid  ... OptM3 with GC (2021)
Angular Grid (max. ang.)         AngularGrid ... 3 (Lebedev-194)
Angular grid pruning method      GridPruning ... 4 (adaptive)
Weight generation scheme         WeightScheme... Becke
Basis function cutoff            BFCut       ... 1.0000e-10
Integration weight cutoff        WCut        ... 1.0000e-14
Angular grids for H and He will be reduced by one unit
Partially contracted basis set               ... on
Rotationally invariant grid construction     ... off

Total number of grid points                  ...    85015
Total number of batches                      ...     1344
Average number of points per batch           ...       63
Average number of grid points per atom       ...     2576
UseSFitting                                  ... on

Time for X-Grid setup             =    0.729 sec

--------------
SCF ITERATIONS
--------------
ITER       Energy         Delta-E        Max-DP      RMS-DP      [F,P]     Damp
               ***  Starting incremental Fock matrix formation  ***
  0   -668.1632076576   0.000000000000 0.06797390  0.00085326  0.1259564 0.7000
  1   -668.3691302956  -0.205922638006 0.04295565  0.00057645  0.0478489 0.7000
                               ***Turning on DIIS***
  2   -668.4428856672  -0.073755371602 0.05856627  0.00088095  0.0185648 0.0000
  3   -668.5646429161  -0.121757248868 0.03039261  0.00044303  0.0260184 0.0000
  4   -668.5911560562  -0.026513140136 0.01057116  0.00015404  0.0099638 0.0000
  5   -668.5931256047  -0.001969548546 0.00479222  0.00005737  0.0061997 0.0000
  6   -668.5935199175  -0.000394312731 0.00184985  0.00002094  0.0012774 0.0000
  7   -668.5935532171  -0.000033299611 0.00316775  0.00003400  0.0007053 0.0000
               *** Restarting incremental Fock matrix formation ***
                                   *** Resetting DIIS ***
  8   -668.5935906618  -0.000037444728 0.00277247  0.00002170  0.0010533 0.0000
  9   -668.5935898701   0.000000791733 0.00075984  0.00000695  0.0013954 0.0000
 10   -668.5936106029  -0.000020732778 0.00106965  0.00001302  0.0006555 0.0000
 11   -668.5936227945  -0.000012191616 0.00068126  0.00000739  0.0001879 0.0000
 12   -668.5936241165  -0.000001321997 0.00050918  0.00000507  0.0002214 0.0000
 13   -668.5936259060  -0.000001789482 0.00046312  0.00000388  0.0001595 0.0000
 14   -668.5936258292   0.000000076785 0.00053446  0.00000538  0.0001620 0.0000
 15   -668.5936269734  -0.000001144266 0.00032630  0.00000288  0.0000579 0.0000
                 **** Energy Check signals convergence ****

               *****************************************************
               *                     SUCCESS                       *
               *           SCF CONVERGED AFTER  16 CYCLES          *
               *****************************************************

Old exchange energy                            =    -17.853592788 Eh
New exchange energy                            =    -17.853600426 Eh
Exchange energy change after final integration =     -0.000007637 Eh
Total energy after final integration           =   -668.593634876 Eh
Final COS-X integration done in                =     2.189 sec

----------------
TOTAL SCF ENERGY
----------------

Total Energy       :         -668.59363488 Eh          -18193.35774 eV

Components:
Nuclear Repulsion  :          931.33908555 Eh           25343.02493 eV
Electronic Energy  :        -1599.93272043 Eh          -43536.38267 eV
One Electron Energy:        -2741.60353970 Eh          -74602.82505 eV
Two Electron Energy:         1141.67081927 Eh           31066.44238 eV
Max COSX asymmetry :            0.00000084 Eh               0.00002 eV

Virial components:
Potential Energy   :        -1332.57439422 Eh          -36261.19275 eV
Kinetic Energy     :          663.98075934 Eh           18067.83501 eV
Virial Ratio       :            2.00694730


DFT components:
N(Alpha)           :       55.000058944472 electrons
N(Beta)            :       54.000059666849 electrons
N(Total)           :      109.000118611321 electrons
E(X)               :      -70.981724441405 Eh       
E(C)               :       -4.314998491705 Eh       
E(XC)              :      -75.296722933110 Eh       
DFET-embed. en.    :        0.000000000000 Eh       

---------------
SCF CONVERGENCE
---------------

  Last Energy change         ...   -2.6533e-07  Tolerance :   1.0000e-06
  Last MAX-Density change    ...    0.0000e+00  Tolerance :   1.0000e-05
  Last RMS-Density change    ...    0.0000e+00  Tolerance :   1.0000e-06
  Last DIIS Error            ...    3.6321e-05  Tolerance :   1.0000e-06

             **** THE GBW FILE WAS UPDATED (epr_info.gbw) ****
             **** DENSITY epr_info.scfp WAS UPDATED ****
             **** ENERGY FILE WAS UPDATED (epr_info.en.tmp) ****
----------------------
UHF SPIN CONTAMINATION
----------------------

Warning: in a DFT calculation there is little theoretical justification to 
         calculate <S**2> as in Hartree-Fock theory. We will do it anyways
         but you should keep in mind that the values have only limited relevance

Expectation value of <S**2>     :     0.755712
Ideal value S*(S+1) for S=0.5   :     0.750000
Deviation                       :     0.005712

             **** THE GBW FILE WAS UPDATED (epr_info.gbw) ****
             **** DENSITY epr_info.scfp WAS UPDATED ****
----------------
ORBITAL ENERGIES
----------------
                 SPIN UP ORBITALS
  NO   OCC          E(Eh)            E(eV) 
   0   1.0000     -19.249780      -523.8132 
   1   1.0000     -19.249172      -523.7966 
   2   1.0000     -14.540640      -395.6709 
   3   1.0000     -14.509746      -394.8303 
   4   1.0000     -14.498117      -394.5138 
   5   1.0000     -10.429281      -283.7952 
   6   1.0000     -10.425945      -283.7044 
   7   1.0000     -10.383642      -282.5533 
   8   1.0000     -10.381173      -282.4861 
   9   1.0000     -10.344207      -281.4802 
  10   1.0000     -10.333722      -281.1949 
  11   1.0000     -10.328384      -281.0496 
  12   1.0000     -10.328058      -281.0408 
  13   1.0000     -10.300703      -280.2964 
  14   1.0000      -1.176362       -32.0104 
  15   1.0000      -1.167052       -31.7571 
  16   1.0000      -1.087753       -29.5993 
  17   1.0000      -1.065693       -28.9990 
  18   1.0000      -1.054528       -28.6952 
  19   1.0000      -0.945921       -25.7398 
  20   1.0000      -0.903623       -24.5888 
  21   1.0000      -0.857809       -23.3422 
  22   1.0000      -0.842728       -22.9318 
  23   1.0000      -0.809822       -22.0364 
  24   1.0000      -0.771630       -20.9971 
  25   1.0000      -0.741342       -20.1729 
  26   1.0000      -0.719873       -19.5887 
  27   1.0000      -0.707194       -19.2437 
  28   1.0000      -0.706252       -19.2181 
  29   1.0000      -0.666016       -18.1232 
  30   1.0000      -0.634718       -17.2715 
  31   1.0000      -0.615762       -16.7557 
  32   1.0000      -0.611619       -16.6430 
  33   1.0000      -0.601937       -16.3795 
  34   1.0000      -0.594976       -16.1901 
  35   1.0000      -0.580417       -15.7940 
  36   1.0000      -0.571184       -15.5427 
  37   1.0000      -0.565101       -15.3772 
  38   1.0000      -0.556251       -15.1364 
  39   1.0000      -0.548318       -14.9205 
  40   1.0000      -0.533706       -14.5229 
  41   1.0000      -0.527222       -14.3465 
  42   1.0000      -0.512892       -13.9565 
  43   1.0000      -0.510366       -13.8878 
  44   1.0000      -0.508610       -13.8400 
  45   1.0000      -0.504737       -13.7346 
  46   1.0000      -0.494239       -13.4489 
  47   1.0000      -0.489293       -13.3143 
  48   1.0000      -0.478671       -13.0253 
  49   1.0000      -0.472904       -12.8684 
  50   1.0000      -0.433967       -11.8088 
  51   1.0000      -0.409005       -11.1296 
  52   1.0000      -0.397684       -10.8215 
  53   1.0000      -0.386556       -10.5187 
  54   1.0000      -0.385628       -10.4935 
  55   0.0000      -0.121734        -3.3126 
  56   0.0000      -0.115212        -3.1351 
  57   0.0000      -0.105617        -2.8740 
  58   0.0000      -0.099124        -2.6973 
  59   0.0000      -0.090152        -2.4532 
  60   0.0000      -0.077046        -2.0965 
  61   0.0000      -0.071334        -1.9411 
  62   0.0000      -0.063079        -1.7165 
  63   0.0000      -0.037378        -1.0171 
  64   0.0000      -0.034463        -0.9378 
  65   0.0000      -0.028291        -0.7698 
  66   0.0000      -0.022084        -0.6009 
  67   0.0000      -0.010753        -0.2926 
  68   0.0000      -0.002574        -0.0700 
  69   0.0000      -0.000408        -0.0111 
  70   0.0000       0.018707         0.5090 
  71   0.0000       0.027857         0.7580 
  72   0.0000       0.037380         1.0172 
  73   0.0000       0.044359         1.2071 
  74   0.0000       0.050726         1.3803 
  75   0.0000       0.052004         1.4151 
  76   0.0000       0.058032         1.5791 
  77   0.0000       0.068700         1.8694 
  78   0.0000       0.072692         1.9781 
  79   0.0000       0.079466         2.1624 
  80   0.0000       0.079778         2.1709 
  81   0.0000       0.085869         2.3366 
  82   0.0000       0.089086         2.4242 
  83   0.0000       0.093004         2.5308 
  84   0.0000       0.095693         2.6039 
  85   0.0000       0.105290         2.8651 
  86   0.0000       0.113484         3.0881 
  87   0.0000       0.120515         3.2794 
  88   0.0000       0.127948         3.4816 
  89   0.0000       0.129979         3.5369 
  90   0.0000       0.137087         3.7303 
  91   0.0000       0.142152         3.8682 
  92   0.0000       0.146647         3.9905 
  93   0.0000       0.153641         4.1808 
  94   0.0000       0.158694         4.3183 
  95   0.0000       0.162141         4.4121 
  96   0.0000       0.163952         4.4614 
  97   0.0000       0.170996         4.6530 
  98   0.0000       0.177323         4.8252 
  99   0.0000       0.187237         5.0950 
 100   0.0000       0.190084         5.1725 
 101   0.0000       0.192213         5.2304 
 102   0.0000       0.202081         5.4989 
 103   0.0000       0.210514         5.7284 
 104   0.0000       0.229838         6.2542 
 105   0.0000       0.233246         6.3469 
 106   0.0000       0.241659         6.5759 
 107   0.0000       0.249021         6.7762 
 108   0.0000       0.255085         6.9412 
 109   0.0000       0.268560         7.3079 
 110   0.0000       0.273062         7.4304 
 111   0.0000       0.281580         7.6622 
 112   0.0000       0.287253         7.8166 
 113   0.0000       0.301934         8.2160 
 114   0.0000       0.313230         8.5234 
 115   0.0000       0.318778         8.6744 
 116   0.0000       0.334195         9.0939 
 117   0.0000       0.340442         9.2639 
 118   0.0000       0.350218         9.5299 
 119   0.0000       0.357989         9.7414 
 120   0.0000       0.367078         9.9887 
 121   0.0000       0.376933        10.2569 
 122   0.0000       0.392878        10.6907 
 123   0.0000       0.400454        10.8969 
 124   0.0000       0.421451        11.4683 
 125   0.0000       0.433004        11.7826 
 126   0.0000       0.439608        11.9623 
 127   0.0000       0.446391        12.1469 
 128   0.0000       0.459164        12.4945 
 129   0.0000       0.466113        12.6836 
 130   0.0000       0.482714        13.1353 
 131   0.0000       0.515336        14.0230 
 132   0.0000       0.529709        14.4141 
 133   0.0000       0.554845        15.0981 
 134   0.0000       0.557922        15.1818 
 135   0.0000       0.576255        15.6807 
 136   0.0000       0.589585        16.0434 
 137   0.0000       0.596005        16.2181 
 138   0.0000       0.615069        16.7369 
 139   0.0000       0.636254        17.3134 
 140   0.0000       0.665470        18.1084 
 141   0.0000       0.670886        18.2557 
 142   0.0000       0.680812        18.5258 
 143   0.0000       0.693187        18.8626 
 144   0.0000       0.707193        19.2437 
 145   0.0000       0.719660        19.5829 
 146   0.0000       0.732017        19.9192 
 147   0.0000       0.733479        19.9590 
 148   0.0000       0.737526        20.0691 
 149   0.0000       0.742591        20.2069 
 150   0.0000       0.745801        20.2943 
 151   0.0000       0.759403        20.6644 
 152   0.0000       0.761022        20.7085 
 153   0.0000       0.768642        20.9158 
 154   0.0000       0.773685        21.0531 
 155   0.0000       0.786522        21.4024 
 156   0.0000       0.789545        21.4846 
 157   0.0000       0.807038        21.9606 
 158   0.0000       0.815092        22.1798 
 159   0.0000       0.816198        22.2099 
 160   0.0000       0.819766        22.3070 
 161   0.0000       0.829773        22.5793 
 162   0.0000       0.840422        22.8690 
 163   0.0000       0.841696        22.9037 
 164   0.0000       0.853573        23.2269 
 165   0.0000       0.861030        23.4298 
 166   0.0000       0.870368        23.6839 
 167   0.0000       0.887809        24.1585 
 168   0.0000       0.895097        24.3568 
 169   0.0000       0.904106        24.6020 
 170   0.0000       0.915314        24.9070 
 171   0.0000       0.928383        25.2626 
 172   0.0000       0.932711        25.3804 
 173   0.0000       0.948095        25.7990 
 174   0.0000       0.954685        25.9783 
 175   0.0000       0.989657        26.9299 
 176   0.0000       1.009538        27.4709 
 177   0.0000       1.019008        27.7286 
 178   0.0000       1.030319        28.0364 
 179   0.0000       1.032510        28.0960 
 180   0.0000       1.034010        28.1369 
 181   0.0000       1.046677        28.4815 
 182   0.0000       1.048883        28.5416 
 183   0.0000       1.057476        28.7754 
 184   0.0000       1.083530        29.4844 
 185   0.0000       1.093716        29.7615 
 186   0.0000       1.111801        30.2536 
 187   0.0000       1.134945        30.8834 
 188   0.0000       1.154105        31.4048 
 189   0.0000       1.179582        32.0981 
 190   0.0000       1.209718        32.9181 
 191   0.0000       1.217495        33.1297 
 192   0.0000       1.237893        33.6848 
 193   0.0000       1.247435        33.9444 
 194   0.0000       1.273408        34.6512 
 195   0.0000       1.293195        35.1896 
 196   0.0000       1.301218        35.4079 
 197   0.0000       1.307282        35.5730 
 198   0.0000       1.312164        35.7058 
 199   0.0000       1.326598        36.0986 
 200   0.0000       1.341989        36.5174 
 201   0.0000       1.365867        37.1671 
 202   0.0000       1.375109        37.4186 
 203   0.0000       1.380247        37.5584 
 204   0.0000       1.388477        37.7824 
 205   0.0000       1.401645        38.1407 
 206   0.0000       1.404666        38.2229 
 207   0.0000       1.415919        38.5291 
 208   0.0000       1.426076        38.8055 
 209   0.0000       1.440122        39.1877 
 210   0.0000       1.448812        39.4242 
 211   0.0000       1.460298        39.7367 
 212   0.0000       1.462928        39.8083 
 213   0.0000       1.473823        40.1048 
 214   0.0000       1.489382        40.5281 
 215   0.0000       1.500414        40.8283 
 216   0.0000       1.505927        40.9784 
 217   0.0000       1.512218        41.1495 
 218   0.0000       1.521429        41.4002 
 219   0.0000       1.530459        41.6459 
 220   0.0000       1.546402        42.0797 
 221   0.0000       1.554306        42.2948 
 222   0.0000       1.568315        42.6760 
 223   0.0000       1.569757        42.7153 
 224   0.0000       1.576520        42.8993 
 225   0.0000       1.582798        43.0701 
 226   0.0000       1.590759        43.2868 
 227   0.0000       1.605193        43.6795 
 228   0.0000       1.614608        43.9357 
 229   0.0000       1.624891        44.2155 
 230   0.0000       1.636609        44.5344 
 231   0.0000       1.650256        44.9057 
 232   0.0000       1.663855        45.2758 
 233   0.0000       1.677719        45.6531 
 234   0.0000       1.691473        46.0273 
 235   0.0000       1.707277        46.4574 
 236   0.0000       1.713309        46.6215 
 237   0.0000       1.730368        47.0857 
 238   0.0000       1.748778        47.5867 
 239   0.0000       1.766663        48.0733 
 240   0.0000       1.774584        48.2889 
 241   0.0000       1.790546        48.7232 
 242   0.0000       1.822386        49.5896 
 243   0.0000       1.848107        50.2895 
 244   0.0000       1.864455        50.7344 
 245   0.0000       1.881979        51.2113 
 246   0.0000       1.902903        51.7806 
 247   0.0000       1.918938        52.2170 
 248   0.0000       1.922667        52.3184 
 249   0.0000       1.939593        52.7790 
 250   0.0000       1.943632        52.8889 
 251   0.0000       1.960623        53.3513 
 252   0.0000       1.978632        53.8413 
 253   0.0000       2.027235        55.1639 
 254   0.0000       2.044235        55.6265 
 255   0.0000       2.055785        55.9407 
 256   0.0000       2.078351        56.5548 
 257   0.0000       2.090985        56.8986 
 258   0.0000       2.097663        57.0803 
 259   0.0000       2.121329        57.7243 
 260   0.0000       2.122966        57.7688 
 261   0.0000       2.150549        58.5194 
 262   0.0000       2.152775        58.5800 
 263   0.0000       2.164946        58.9112 
 264   0.0000       2.175622        59.2017 
 265   0.0000       2.180075        59.3228 
 266   0.0000       2.201666        59.9104 
 267   0.0000       2.221460        60.4490 
 268   0.0000       2.228281        60.6346 
 269   0.0000       2.231288        60.7164 
 270   0.0000       2.270359        61.7796 
 271   0.0000       2.277096        61.9629 
 272   0.0000       2.280042        62.0431 
 273   0.0000       2.305742        62.7424 
 274   0.0000       2.317959        63.0749 
 275   0.0000       2.327919        63.3459 
 276   0.0000       2.345455        63.8231 
 277   0.0000       2.362028        64.2740 
 278   0.0000       2.368187        64.4417 
 279   0.0000       2.384317        64.8806 
 280   0.0000       2.391932        65.0878 
 281   0.0000       2.402145        65.3657 
 282   0.0000       2.417705        65.7891 
 283   0.0000       2.439491        66.3819 
 284   0.0000       2.455236        66.8104 
 285   0.0000       2.486043        67.6487 
 286   0.0000       2.489056        67.7307 
 287   0.0000       2.511084        68.3301 
 288   0.0000       2.518877        68.5421 
 289   0.0000       2.573338        70.0241 
 290   0.0000       2.578438        70.1629 
 291   0.0000       2.611853        71.0721 
 292   0.0000       2.622505        71.3620 
 293   0.0000       2.628339        71.5207 
 294   0.0000       2.652365        72.1745 
 295   0.0000       2.690810        73.2207 
 296   0.0000       2.756355        75.0042 
 297   0.0000       2.851983        77.6064 
 298   0.0000       2.893627        78.7396 
 299   0.0000       2.961688        80.5916 
 300   0.0000       2.976775        81.0022 
 301   0.0000       3.229113        87.8686 
 302   0.0000       3.286849        89.4397 
 303   0.0000       3.295550        89.6765 
 304   0.0000       3.313668        90.1695 
 305   0.0000       4.733598       128.8078 
 306   0.0000       4.858089       132.1953 
 307   0.0000       4.874598       132.6445 
 308   0.0000       4.881537       132.8334 
 309   0.0000       4.885431       132.9393 
 310   0.0000       4.902095       133.3928 
 311   0.0000       4.907757       133.5469 
 312   0.0000       4.910502       133.6215 
 313   0.0000       4.930027       134.1528 
 314   0.0000       4.947869       134.6384 
 315   0.0000       4.977061       135.4327 
 316   0.0000       4.987789       135.7246 
 317   0.0000       5.022558       136.6708 
 318   0.0000       5.055087       137.5559 
 319   0.0000       5.113684       139.1504 
 320   0.0000       5.128782       139.5612 
 321   0.0000       5.141378       139.9040 
 322   0.0000       5.169547       140.6705 
 323   0.0000       5.177898       140.8978 
 324   0.0000       5.202498       141.5672 
 325   0.0000       5.243966       142.6956 
 326   0.0000       5.257187       143.0553 
 327   0.0000       5.341154       145.3402 
 328   0.0000       5.466423       148.7489 
 329   0.0000       5.506668       149.8441 
 330   0.0000       5.570421       151.5789 
 331   0.0000       5.610069       152.6577 
 332   0.0000       5.710670       155.3952 
 333   0.0000       7.043992       191.6768 
 334   0.0000       7.149920       194.5592 
 335   0.0000       7.190818       195.6721 
 336   0.0000       8.936163       243.1654 
 337   0.0000       8.986893       244.5458 
 338   0.0000      29.453225       801.4630 
 339   0.0000      29.499059       802.7102 
 340   0.0000      29.635503       806.4230 
 341   0.0000      29.765443       809.9589 
 342   0.0000      29.821445       811.4828 
 343   0.0000      29.914162       814.0057 
 344   0.0000      29.965193       815.3944 
 345   0.0000      29.998819       816.3094 
 346   0.0000      30.132082       819.9356 
 347   0.0000      36.340632       988.8789 
 348   0.0000      36.480200       992.6767 
 349   0.0000      36.498545       993.1759 
 350   0.0000      36.501235       993.2491 
 351   0.0000      36.511460       993.5273 
 352   0.0000      36.520736       993.7797 
 353   0.0000      36.522724       993.8338 
 354   0.0000      36.537770       994.2433 
 355   0.0000      36.541181       994.3361 
 356   0.0000      36.571989       995.1744 
 357   0.0000      36.588234       995.6165 
 358   0.0000      36.605583       996.0885 
 359   0.0000      36.665814       997.7275 
 360   0.0000      36.669416       997.8255 
 361   0.0000      36.725175       999.3428 
 362   0.0000      36.749677      1000.0095 
 363   0.0000      36.784893      1000.9678 
 364   0.0000      36.806447      1001.5544 
 365   0.0000      36.817043      1001.8427 
 366   0.0000      40.971743      1114.8978 
 367   0.0000      41.082003      1117.8981 
 368   0.0000      41.134255      1119.3200 
 369   0.0000      53.472609      1455.0637 
 370   0.0000      53.519424      1456.3376 

                 SPIN DOWN ORBITALS
  NO   OCC          E(Eh)            E(eV) 
   0   1.0000     -19.248758      -523.7853 
   1   1.0000     -19.246476      -523.7232 
   2   1.0000     -14.531131      -395.4122 
   3   1.0000     -14.505606      -394.7176 
   4   1.0000     -14.497083      -394.4857 
   5   1.0000     -10.429381      -283.7979 
   6   1.0000     -10.426762      -283.7266 
   7   1.0000     -10.383353      -282.5454 
   8   1.0000     -10.380635      -282.4714 
   9   1.0000     -10.342524      -281.4344 
  10   1.0000     -10.332773      -281.1691 
  11   1.0000     -10.328373      -281.0493 
  12   1.0000     -10.327668      -281.0301 
  13   1.0000     -10.300674      -280.2956 
  14   1.0000      -1.173274       -31.9264 
  15   1.0000      -1.163025       -31.6475 
  16   1.0000      -1.068387       -29.0723 
  17   1.0000      -1.057436       -28.7743 
  18   1.0000      -1.052207       -28.6320 
  19   1.0000      -0.941444       -25.6180 
  20   1.0000      -0.898620       -24.4527 
  21   1.0000      -0.854394       -23.2493 
  22   1.0000      -0.840933       -22.8830 
  23   1.0000      -0.806633       -21.9496 
  24   1.0000      -0.768036       -20.8993 
  25   1.0000      -0.738495       -20.0955 
  26   1.0000      -0.718578       -19.5535 
  27   1.0000      -0.704602       -19.1732 
  28   1.0000      -0.700357       -19.0577 
  29   1.0000      -0.664374       -18.0785 
  30   1.0000      -0.629469       -17.1287 
  31   1.0000      -0.613259       -16.6876 
  32   1.0000      -0.607820       -16.5396 
  33   1.0000      -0.595244       -16.1974 
  34   1.0000      -0.593030       -16.1372 
  35   1.0000      -0.577987       -15.7278 
  36   1.0000      -0.568439       -15.4680 
  37   1.0000      -0.555064       -15.1041 
  38   1.0000      -0.552326       -15.0295 
  39   1.0000      -0.544511       -14.8169 
  40   1.0000      -0.531642       -14.4667 
  41   1.0000      -0.520733       -14.1699 
  42   1.0000      -0.511995       -13.9321 
  43   1.0000      -0.509772       -13.8716 
  44   1.0000      -0.504335       -13.7236 
  45   1.0000      -0.503678       -13.7058 
  46   1.0000      -0.488141       -13.2830 
  47   1.0000      -0.486402       -13.2357 
  48   1.0000      -0.476266       -12.9599 
  49   1.0000      -0.463638       -12.6162 
  50   1.0000      -0.397762       -10.8236 
  51   1.0000      -0.387966       -10.5571 
  52   1.0000      -0.381881       -10.3915 
  53   1.0000      -0.367319        -9.9953 
  54   0.0000      -0.338369        -9.2075 
  55   0.0000      -0.119128        -3.2416 
  56   0.0000      -0.112972        -3.0741 
  57   0.0000      -0.101375        -2.7586 
  58   0.0000      -0.097783        -2.6608 
  59   0.0000      -0.089287        -2.4296 
  60   0.0000      -0.075998        -2.0680 
  61   0.0000      -0.070368        -1.9148 
  62   0.0000      -0.062669        -1.7053 
  63   0.0000      -0.036877        -1.0035 
  64   0.0000      -0.033424        -0.9095 
  65   0.0000      -0.026746        -0.7278 
  66   0.0000      -0.021316        -0.5800 
  67   0.0000      -0.008993        -0.2447 
  68   0.0000      -0.001159        -0.0315 
  69   0.0000       0.000903         0.0246 
  70   0.0000       0.020452         0.5565 
  71   0.0000       0.030018         0.8168 
  72   0.0000       0.038754         1.0545 
  73   0.0000       0.045997         1.2516 
  74   0.0000       0.051861         1.4112 
  75   0.0000       0.052655         1.4328 
  76   0.0000       0.060375         1.6429 
  77   0.0000       0.070066         1.9066 
  78   0.0000       0.074089         2.0161 
  79   0.0000       0.080523         2.1911 
  80   0.0000       0.080973         2.2034 
  81   0.0000       0.086462         2.3527 
  82   0.0000       0.089658         2.4397 
  83   0.0000       0.094466         2.5705 
  84   0.0000       0.098135         2.6704 
  85   0.0000       0.109006         2.9662 
  86   0.0000       0.115405         3.1403 
  87   0.0000       0.122013         3.3201 
  88   0.0000       0.129455         3.5227 
  89   0.0000       0.131233         3.5710 
  90   0.0000       0.137755         3.7485 
  91   0.0000       0.142874         3.8878 
  92   0.0000       0.147998         4.0272 
  93   0.0000       0.154735         4.2105 
  94   0.0000       0.160344         4.3632 
  95   0.0000       0.162911         4.4330 
  96   0.0000       0.165737         4.5099 
  97   0.0000       0.171520         4.6673 
  98   0.0000       0.178892         4.8679 
  99   0.0000       0.187966         5.1148 
 100   0.0000       0.191208         5.2030 
 101   0.0000       0.192852         5.2478 
 102   0.0000       0.202417         5.5081 
 103   0.0000       0.210943         5.7400 
 104   0.0000       0.230543         6.2734 
 105   0.0000       0.233969         6.3666 
 106   0.0000       0.242331         6.5942 
 107   0.0000       0.250157         6.8071 
 108   0.0000       0.256221         6.9721 
 109   0.0000       0.269439         7.3318 
 110   0.0000       0.274571         7.4715 
 111   0.0000       0.283256         7.7078 
 112   0.0000       0.289167         7.8686 
 113   0.0000       0.302917         8.2428 
 114   0.0000       0.314384         8.5548 
 115   0.0000       0.319806         8.7024 
 116   0.0000       0.337901         9.1948 
 117   0.0000       0.341677         9.2975 
 118   0.0000       0.355475         9.6730 
 119   0.0000       0.359649         9.7865 
 120   0.0000       0.368977        10.0404 
 121   0.0000       0.378798        10.3076 
 122   0.0000       0.396608        10.7923 
 123   0.0000       0.403509        10.9800 
 124   0.0000       0.424559        11.5528 
 125   0.0000       0.435502        11.8506 
 126   0.0000       0.442495        12.0409 
 127   0.0000       0.453577        12.3425 
 128   0.0000       0.460307        12.5256 
 129   0.0000       0.470567        12.8048 
 130   0.0000       0.484790        13.1918 
 131   0.0000       0.518332        14.1045 
 132   0.0000       0.533927        14.5289 
 133   0.0000       0.558188        15.1891 
 134   0.0000       0.561835        15.2883 
 135   0.0000       0.578400        15.7391 
 136   0.0000       0.591962        16.1081 
 137   0.0000       0.598182        16.2773 
 138   0.0000       0.616164        16.7667 
 139   0.0000       0.637399        17.3445 
 140   0.0000       0.667900        18.1745 
 141   0.0000       0.674078        18.3426 
 142   0.0000       0.682121        18.5615 
 143   0.0000       0.695311        18.9204 
 144   0.0000       0.708080        19.2678 
 145   0.0000       0.721115        19.6225 
 146   0.0000       0.732719        19.9383 
 147   0.0000       0.734279        19.9807 
 148   0.0000       0.740441        20.1484 
 149   0.0000       0.743617        20.2348 
 150   0.0000       0.746845        20.3227 
 151   0.0000       0.760096        20.6833 
 152   0.0000       0.761897        20.7323 
 153   0.0000       0.770392        20.9634 
 154   0.0000       0.774622        21.0785 
 155   0.0000       0.788627        21.4596 
 156   0.0000       0.790708        21.5163 
 157   0.0000       0.807910        21.9844 
 158   0.0000       0.816349        22.2140 
 159   0.0000       0.817172        22.2364 
 160   0.0000       0.820635        22.3306 
 161   0.0000       0.831563        22.6280 
 162   0.0000       0.841312        22.8933 
 163   0.0000       0.843668        22.9574 
 164   0.0000       0.854990        23.2655 
 165   0.0000       0.862480        23.4693 
 166   0.0000       0.871572        23.7167 
 167   0.0000       0.889616        24.2077 
 168   0.0000       0.897025        24.4093 
 169   0.0000       0.905567        24.6417 
 170   0.0000       0.917110        24.9558 
 171   0.0000       0.929157        25.2836 
 172   0.0000       0.934736        25.4355 
 173   0.0000       0.951830        25.9006 
 174   0.0000       0.957673        26.0596 
 175   0.0000       0.991186        26.9715 
 176   0.0000       1.013689        27.5839 
 177   0.0000       1.020830        27.7782 
 178   0.0000       1.031635        28.0722 
 179   0.0000       1.037551        28.2332 
 180   0.0000       1.038438        28.2573 
 181   0.0000       1.048542        28.5323 
 182   0.0000       1.050128        28.5754 
 183   0.0000       1.059291        28.8248 
 184   0.0000       1.085350        29.5339 
 185   0.0000       1.095057        29.7980 
 186   0.0000       1.112894        30.2834 
 187   0.0000       1.136250        30.9189 
 188   0.0000       1.155953        31.4551 
 189   0.0000       1.182107        32.1668 
 190   0.0000       1.211521        32.9672 
 191   0.0000       1.219073        33.1727 
 192   0.0000       1.238455        33.7001 
 193   0.0000       1.248189        33.9649 
 194   0.0000       1.274233        34.6736 
 195   0.0000       1.294398        35.2224 
 196   0.0000       1.304283        35.4913 
 197   0.0000       1.308335        35.6016 
 198   0.0000       1.312576        35.7170 
 199   0.0000       1.328518        36.1508 
 200   0.0000       1.343282        36.5526 
 201   0.0000       1.367826        37.2204 
 202   0.0000       1.377690        37.4888 
 203   0.0000       1.380840        37.5746 
 204   0.0000       1.388801        37.7912 
 205   0.0000       1.403278        38.1851 
 206   0.0000       1.405241        38.2386 
 207   0.0000       1.417056        38.5601 
 208   0.0000       1.427310        38.8391 
 209   0.0000       1.441171        39.2163 
 210   0.0000       1.449655        39.4471 
 211   0.0000       1.462121        39.7863 
 212   0.0000       1.464197        39.8428 
 213   0.0000       1.475285        40.1446 
 214   0.0000       1.491409        40.5833 
 215   0.0000       1.502183        40.8765 
 216   0.0000       1.507003        41.0076 
 217   0.0000       1.513154        41.1750 
 218   0.0000       1.522912        41.4406 
 219   0.0000       1.532374        41.6980 
 220   0.0000       1.548344        42.1326 
 221   0.0000       1.555190        42.3189 
 222   0.0000       1.569678        42.7131 
 223   0.0000       1.571401        42.7600 
 224   0.0000       1.577854        42.9356 
 225   0.0000       1.584319        43.1115 
 226   0.0000       1.592682        43.3391 
 227   0.0000       1.605949        43.7001 
 228   0.0000       1.616327        43.9825 
 229   0.0000       1.626172        44.2504 
 230   0.0000       1.638621        44.5891 
 231   0.0000       1.651947        44.9517 
 232   0.0000       1.665096        45.3096 
 233   0.0000       1.679591        45.7040 
 234   0.0000       1.693572        46.0844 
 235   0.0000       1.708993        46.5041 
 236   0.0000       1.715272        46.6749 
 237   0.0000       1.732544        47.1449 
 238   0.0000       1.751127        47.6506 
 239   0.0000       1.768635        48.1270 
 240   0.0000       1.776562        48.3427 
 241   0.0000       1.793409        48.8012 
 242   0.0000       1.827127        49.7187 
 243   0.0000       1.850402        50.3520 
 244   0.0000       1.865790        50.7707 
 245   0.0000       1.890659        51.4474 
 246   0.0000       1.904573        51.8261 
 247   0.0000       1.920116        52.2490 
 248   0.0000       1.924433        52.3665 
 249   0.0000       1.941213        52.8231 
 250   0.0000       1.945606        52.9426 
 251   0.0000       1.963560        53.4312 
 252   0.0000       1.982772        53.9540 
 253   0.0000       2.029520        55.2260 
 254   0.0000       2.046595        55.6907 
 255   0.0000       2.058425        56.0126 
 256   0.0000       2.081371        56.6370 
 257   0.0000       2.098156        57.0937 
 258   0.0000       2.107692        57.3532 
 259   0.0000       2.122851        57.7657 
 260   0.0000       2.130687        57.9790 
 261   0.0000       2.152675        58.5773 
 262   0.0000       2.154556        58.6285 
 263   0.0000       2.167241        58.9736 
 264   0.0000       2.178704        59.2855 
 265   0.0000       2.182438        59.3872 
 266   0.0000       2.204659        59.9918 
 267   0.0000       2.224041        60.5192 
 268   0.0000       2.229807        60.6761 
 269   0.0000       2.239606        60.9428 
 270   0.0000       2.272613        61.8409 
 271   0.0000       2.277708        61.9796 
 272   0.0000       2.282573        62.1120 
 273   0.0000       2.307987        62.8035 
 274   0.0000       2.319756        63.1238 
 275   0.0000       2.330429        63.4142 
 276   0.0000       2.346696        63.8568 
 277   0.0000       2.363515        64.3145 
 278   0.0000       2.370787        64.5124 
 279   0.0000       2.385301        64.9073 
 280   0.0000       2.394809        65.1661 
 281   0.0000       2.403430        65.4007 
 282   0.0000       2.421459        65.8912 
 283   0.0000       2.442697        66.4692 
 284   0.0000       2.456597        66.8474 
 285   0.0000       2.490230        67.7626 
 286   0.0000       2.492989        67.8377 
 287   0.0000       2.514270        68.4168 
 288   0.0000       2.521454        68.6123 
 289   0.0000       2.578229        70.1572 
 290   0.0000       2.582446        70.2719 
 291   0.0000       2.619368        71.2766 
 292   0.0000       2.629667        71.5569 
 293   0.0000       2.633472        71.6604 
 294   0.0000       2.655298        72.2543 
 295   0.0000       2.692476        73.2660 
 296   0.0000       2.761741        75.1508 
 297   0.0000       2.855366        77.6985 
 298   0.0000       2.895059        78.7786 
 299   0.0000       2.966856        80.7322 
 300   0.0000       2.979336        81.0719 
 301   0.0000       3.230960        87.9189 
 302   0.0000       3.289506        89.5120 
 303   0.0000       3.297850        89.7391 
 304   0.0000       3.315050        90.2071 
 305   0.0000       4.732066       128.7661 
 306   0.0000       4.858678       132.2114 
 307   0.0000       4.875637       132.6728 
 308   0.0000       4.881470       132.8316 
 309   0.0000       4.885938       132.9531 
 310   0.0000       4.901926       133.3882 
 311   0.0000       4.908177       133.5583 
 312   0.0000       4.910676       133.6263 
 313   0.0000       4.930740       134.1722 
 314   0.0000       4.948018       134.6424 
 315   0.0000       4.976519       135.4180 
 316   0.0000       4.987027       135.7039 
 317   0.0000       5.023416       136.6941 
 318   0.0000       5.056663       137.5988 
 319   0.0000       5.115389       139.1968 
 320   0.0000       5.128631       139.5572 
 321   0.0000       5.141851       139.9169 
 322   0.0000       5.170554       140.6979 
 323   0.0000       5.178312       140.9090 
 324   0.0000       5.203281       141.5885 
 325   0.0000       5.244031       142.6973 
 326   0.0000       5.257511       143.0641 
 327   0.0000       5.342622       145.3801 
 328   0.0000       5.467515       148.7787 
 329   0.0000       5.507748       149.8734 
 330   0.0000       5.571875       151.6184 
 331   0.0000       5.609971       152.6551 
 332   0.0000       5.712590       155.4475 
 333   0.0000       7.065736       192.2684 
 334   0.0000       7.159012       194.8066 
 335   0.0000       7.193292       195.7394 
 336   0.0000       8.942222       243.3302 
 337   0.0000       8.989218       244.6091 
 338   0.0000      29.453856       801.4802 
 339   0.0000      29.498239       802.6879 
 340   0.0000      29.636210       806.4423 
 341   0.0000      29.765909       809.9716 
 342   0.0000      29.821782       811.4919 
 343   0.0000      29.915101       814.0313 
 344   0.0000      29.965375       815.3993 
 345   0.0000      29.999647       816.3319 
 346   0.0000      30.133268       819.9679 
 347   0.0000      36.335492       988.7390 
 348   0.0000      36.482797       992.7474 
 349   0.0000      36.499432       993.2000 
 350   0.0000      36.500760       993.2362 
 351   0.0000      36.512053       993.5435 
 352   0.0000      36.520400       993.7706 
 353   0.0000      36.522586       993.8301 
 354   0.0000      36.532925       994.1114 
 355   0.0000      36.541482       994.3443 
 356   0.0000      36.571916       995.1724 
 357   0.0000      36.586639       995.5731 
 358   0.0000      36.604975       996.0720 
 359   0.0000      36.669105       997.8171 
 360   0.0000      36.672262       997.9030 
 361   0.0000      36.726532       999.3797 
 362   0.0000      36.749833      1000.0138 
 363   0.0000      36.785872      1000.9945 
 364   0.0000      36.806433      1001.5540 
 365   0.0000      36.817115      1001.8446 
 366   0.0000      40.983978      1115.2307 
 367   0.0000      41.087209      1118.0398 
 368   0.0000      41.135624      1119.3572 
 369   0.0000      53.475766      1455.1496 
 370   0.0000      53.520673      1456.3715 

                    ********************************
                    * MULLIKEN POPULATION ANALYSIS *
                    ********************************

--------------------------------------------
MULLIKEN ATOMIC CHARGES AND SPIN POPULATIONS
--------------------------------------------
   0 N :   -0.061167    0.208774
   1 C :   -0.135394    0.018685
   2 C :    0.091015   -0.007332
   3 O :   -0.289528    0.039400
   4 C :   -0.267246    0.053051
   5 C :   -0.225632    0.017844
   6 C :   -0.293265    0.085062
   7 C :   -0.268900    0.004847
   8 N :   -0.291259    0.477270
   9 H :    0.275462   -0.007912
  10 C :    0.168442   -0.045901
  11 N :   -0.093597    0.045784
  12 H :    0.248074   -0.001675
  13 O :   -0.241052    0.106587
  14 H :    0.290476   -0.015516
  15 C :   -0.435212    0.000987
  16 H :    0.192084    0.002940
  17 H :    0.172568    0.002298
  18 H :    0.202238    0.000265
  19 C :   -0.523673    0.002221
  20 H :    0.201931   -0.000721
  21 H :    0.207817   -0.001192
  22 H :    0.159229   -0.000396
  23 H :    0.184847    0.013802
  24 H :    0.163652   -0.001293
  25 H :    0.196513    0.002622
  26 H :    0.172898    0.000716
  27 H :    0.157516   -0.000762
  28 H :    0.175359   -0.001150
  29 H :    0.175461   -0.002768
[...]

 Raw HFC matrix (all values in MHz): 
 -----------------------------------
               -11.5811               0.9728               1.8953
                 0.9702              -3.9940               2.4761
                 1.8929               2.4762              -2.2550

 A(FC)          -5.9446              -5.9446              -5.9446
 A(SD)           5.8270               0.2088              -6.0358
 A(ORB+DIA)      0.0051               0.0006              -0.0021    A(PC) =   0.0012
 A(ORB)          0.0046               0.0005              -0.0020    A(PC) =   0.0010
 A(DIA)          0.0005               0.0001              -0.0000    A(PC) =   0.0002
             ----------           ----------           ----------
 A(Tot)         -0.1124              -5.7352             -11.9825    A(iso)=   -5.9434
 Orientation: 
  X          -0.1810771            0.0450941           -0.9824345
  Y          -0.5607342           -0.8254038            0.0654651
  Z          -0.8079531            0.5627389            0.1747475

Notes:  (1) The A matrix conforms to the "SAI" spin Hamiltonian convention.
        (2) Tensor is right-handed.

 -----------------------------------------------------------
 Nucleus  30H : A:ISTP=    1 I=  0.5 P=533.5514 MHz/au**3
                Q:ISTP=    2 I=  1.0 Q=  0.0029 barn     
 -----------------------------------------------------------
 Solving for nuclear perturbation:
Forming RHS of the CP-SCF equations         ... 
Calc. nucleus orbit integrals (SHARK)       ... done

------------------------------------------------------------------------------
                           ORCA CP-SCF CALCULATION
------------------------------------------------------------------------------

Input orbitals are from        ... epr_info.gbw
Input Perturbation             ... epr_info.pin.tmp
Wavefunction output            ... epr_info.pout.tmp
Perturbation mode              ... Imaginary perturbation
Solver                         ... POPLE
Max. number of iterations      ... 64
Convergence tolerance          ... 1.000e-03
Integral handling              ... Direct
DFT GridXC                     ... 1
COSX GridX                     ... 1
COSX IntAccX                   ... 3.067
COSX Algorithm                 ... Auto
Number of perturbations        ... 3
Number of operators            ... 2
Orbital ranges used for CP-SCF:
 Operator 0:  Orbitals   0... 54  to  55...370
 Operator 1:  Orbitals   0... 53  to  54...370
Variables per perturbation     ... 34498
DFT calculation                         ... on
XC functional terms                     ... off
Hybrid DFT                              ... on
   Exchange mixing (SCF)                ...  0.200
   Exchange mixing (CP-SCF)             ...  0.200
   GGA exch. scaling(SCF)               ...  0.720
   GGA exch. scaling (CP-SCF)           ...  0.720
   GGA corr. scaling (SCF)              ...  0.810
   GGA corr. scaling (CP-SCF)           ...  0.810

CP-SCF GRID
-----------

General Integration Accuracy     IntAcc      ... 3.467
Radial Grid Type                 RadialGrid  ... OptM3 with GC (2021)
Angular Grid (max. ang.)         AngularGrid ... 1 (Lebedev-50)
Angular grid pruning method      GridPruning ... 4 (adaptive)
Weight generation scheme         WeightScheme... Becke
Basis function cutoff            BFCut       ... 1.0000e-10
Integration weight cutoff        WCut        ... 1.0000e-14
Angular grids for H and He will be reduced by one unit
Partially contracted basis set               ... off
Rotationally invariant grid construction     ... off

Total number of grid points                  ...    20317
Total number of batches                      ...      331
Average number of points per batch           ...       61
Average number of grid points per atom       ...      616

CP-SCF GRIDX
------------

General Integration Accuracy     IntAcc      ... 3.067
Radial Grid Type                 RadialGrid  ... OptM3 with GC (2021)
Angular Grid (max. ang.)         AngularGrid ... 1 (Lebedev-50)
Angular grid pruning method      GridPruning ... 4 (adaptive)
Weight generation scheme         WeightScheme... Becke
Basis function cutoff            BFCut       ... 1.0000e-10
Integration weight cutoff        WCut        ... 1.0000e-14
Angular grids for H and He will be reduced by one unit
Partially contracted basis set               ... on
Rotationally invariant grid construction     ... off

Total number of grid points                  ...     9603
Total number of batches                      ...      169
Average number of points per batch           ...       56
Average number of grid points per atom       ...      291

Memory available               ... 922.2 MB
Memory needed per perturbation ...   8.2 MB
Perturbations treated per batch... 3
Number of batches              ... 1
     CP-SCF ITERATION   0:   6.2837e-02 (   0.5 sec   0/  3 done)
     CP-SCF ITERATION   1:   1.8234e-02 (   0.5 sec   0/  3 done)
     CP-SCF ITERATION   2:   2.5389e-03 (   0.5 sec   1/  3 done)
     CP-SCF ITERATION   3:   4.7041e-04 (   0.4 sec   3/  3 done)
                    *** THE CP-SCF HAS CONVERGED ***

Forming final perturbed densities           ... done
Transforming perturbed density to AO basis  ... done

 Raw HFC matrix (all values in MHz): 
 -----------------------------------
                27.7083               0.0892               1.2943
                 0.0886              29.0528              -2.8339
                 1.2861              -2.8297              36.3483

 A(FC)          31.0318              31.0318              31.0318
 A(SD)          -3.7693              -2.6508               6.4201
 A(ORB+DIA)     -0.0022               0.0036               0.0124    A(PC) =   0.0046
 A(ORB)         -0.0024               0.0032               0.0116    A(PC) =   0.0041
 A(DIA)          0.0002               0.0004               0.0008    A(PC) =   0.0005
             ----------           ----------           ----------
 A(Tot)         27.2603              28.3846              37.4644    A(iso)=   31.0364
 Orientation: 
  X           0.8485470            0.5148800            0.1219285
  Y          -0.4586666            0.8306547           -0.3156545
  Z          -0.2638046            0.2119231            0.9410078

Notes:  (1) The A matrix conforms to the "SAI" spin Hamiltonian convention.
        (2) Tensor is right-handed.

 -----------------------------------------------------------
 Nucleus  31H : A:ISTP=    1 I=  0.5 P=533.5514 MHz/au**3
                Q:ISTP=    2 I=  1.0 Q=  0.0029 barn     
 -----------------------------------------------------------
 Solving for nuclear perturbation:
Forming RHS of the CP-SCF equations         ... 
Calc. nucleus orbit integrals (SHARK)       ... done

------------------------------------------------------------------------------
                           ORCA CP-SCF CALCULATION
------------------------------------------------------------------------------

Input orbitals are from        ... epr_info.gbw
Input Perturbation             ... epr_info.pin.tmp
Wavefunction output            ... epr_info.pout.tmp
Perturbation mode              ... Imaginary perturbation
Solver                         ... POPLE
Max. number of iterations      ... 64
Convergence tolerance          ... 1.000e-03
Integral handling              ... Direct
DFT GridXC                     ... 1
COSX GridX                     ... 1
COSX IntAccX                   ... 3.067
COSX Algorithm                 ... Auto
Number of perturbations        ... 3
Number of operators            ... 2
Orbital ranges used for CP-SCF:
 Operator 0:  Orbitals   0... 54  to  55...370
 Operator 1:  Orbitals   0... 53  to  54...370
Variables per perturbation     ... 34498
DFT calculation                         ... on
XC functional terms                     ... off
Hybrid DFT                              ... on
   Exchange mixing (SCF)                ...  0.200
   Exchange mixing (CP-SCF)             ...  0.200
   GGA exch. scaling(SCF)               ...  0.720
   GGA exch. scaling (CP-SCF)           ...  0.720
   GGA corr. scaling (SCF)              ...  0.810
   GGA corr. scaling (CP-SCF)           ...  0.810

CP-SCF GRID
-----------

General Integration Accuracy     IntAcc      ... 3.467
Radial Grid Type                 RadialGrid  ... OptM3 with GC (2021)
Angular Grid (max. ang.)         AngularGrid ... 1 (Lebedev-50)
Angular grid pruning method      GridPruning ... 4 (adaptive)
Weight generation scheme         WeightScheme... Becke
Basis function cutoff            BFCut       ... 1.0000e-10
Integration weight cutoff        WCut        ... 1.0000e-14
Angular grids for H and He will be reduced by one unit
Partially contracted basis set               ... off
Rotationally invariant grid construction     ... off

Total number of grid points                  ...    20317
Total number of batches                      ...      331
Average number of points per batch           ...       61
Average number of grid points per atom       ...      616

CP-SCF GRIDX
------------

General Integration Accuracy     IntAcc      ... 3.067
Radial Grid Type                 RadialGrid  ... OptM3 with GC (2021)
Angular Grid (max. ang.)         AngularGrid ... 1 (Lebedev-50)
Angular grid pruning method      GridPruning ... 4 (adaptive)
Weight generation scheme         WeightScheme... Becke
Basis function cutoff            BFCut       ... 1.0000e-10
Integration weight cutoff        WCut        ... 1.0000e-14
Angular grids for H and He will be reduced by one unit
Partially contracted basis set               ... on
Rotationally invariant grid construction     ... off

Total number of grid points                  ...     9603
Total number of batches                      ...      169
Average number of points per batch           ...       56
Average number of grid points per atom       ...      291

Memory available               ... 921.8 MB
Memory needed per perturbation ...   8.2 MB
Perturbations treated per batch... 3
Number of batches              ... 1
     CP-SCF ITERATION   0:   6.6548e-02 (   0.5 sec   0/  3 done)
     CP-SCF ITERATION   1:   1.9037e-02 (   0.5 sec   0/  3 done)
     CP-SCF ITERATION   2:   3.0349e-03 (   0.5 sec   1/  3 done)
     CP-SCF ITERATION   3:   7.5620e-04 (   0.4 sec   3/  3 done)
                    *** THE CP-SCF HAS CONVERGED ***

Forming final perturbed densities           ... done
Transforming perturbed density to AO basis  ... done

 Raw HFC matrix (all values in MHz): 
 -----------------------------------
                27.4173               2.9825              -1.0708
                 2.9851              21.1621              -0.7255
                -1.0624              -0.7240              19.2402

 A(FC)          22.6018              22.6018              22.6018
 A(SD)          -3.6038              -2.5605               6.1643
 A(ORB+DIA)     -0.0014               0.0029               0.0127    A(PC) =   0.0047
 A(ORB)         -0.0017               0.0025               0.0119    A(PC) =   0.0042
 A(DIA)          0.0002               0.0004               0.0008    A(PC) =   0.0005
             ----------           ----------           ----------
 A(Tot)         18.9966              20.0442              28.7787    A(iso)=   22.6065
 Orientation: 
  X           0.0159398           -0.3944838           -0.9187647
  Y           0.2977166            0.8790757           -0.3722777
  Z           0.9545212           -0.2675975            0.1314567

Notes:  (1) The A matrix conforms to the "SAI" spin Hamiltonian convention.
        (2) Tensor is right-handed.

 -----------------------------------------------------------
 Nucleus  32H : A:ISTP=    1 I=  0.5 P=533.5514 MHz/au**3
                Q:ISTP=    2 I=  1.0 Q=  0.0029 barn     
 -----------------------------------------------------------
 Solving for nuclear perturbation:
Forming RHS of the CP-SCF equations         ... 
Calc. nucleus orbit integrals (SHARK)       ... done

------------------------------------------------------------------------------
                           ORCA CP-SCF CALCULATION
------------------------------------------------------------------------------

Input orbitals are from        ... epr_info.gbw
Input Perturbation             ... epr_info.pin.tmp
Wavefunction output            ... epr_info.pout.tmp
Perturbation mode              ... Imaginary perturbation
Solver                         ... POPLE
Max. number of iterations      ... 64
Convergence tolerance          ... 1.000e-03
Integral handling              ... Direct
DFT GridXC                     ... 1
COSX GridX                     ... 1
COSX IntAccX                   ... 3.067
COSX Algorithm                 ... Auto
Number of perturbations        ... 3
Number of operators            ... 2
Orbital ranges used for CP-SCF:
 Operator 0:  Orbitals   0... 54  to  55...370
 Operator 1:  Orbitals   0... 53  to  54...370
Variables per perturbation     ... 34498
DFT calculation                         ... on
XC functional terms                     ... off
Hybrid DFT                              ... on
   Exchange mixing (SCF)                ...  0.200
   Exchange mixing (CP-SCF)             ...  0.200
   GGA exch. scaling(SCF)               ...  0.720
   GGA exch. scaling (CP-SCF)           ...  0.720
   GGA corr. scaling (SCF)              ...  0.810
   GGA corr. scaling (CP-SCF)           ...  0.810

CP-SCF GRID
-----------

General Integration Accuracy     IntAcc      ... 3.467
Radial Grid Type                 RadialGrid  ... OptM3 with GC (2021)
Angular Grid (max. ang.)         AngularGrid ... 1 (Lebedev-50)
Angular grid pruning method      GridPruning ... 4 (adaptive)
Weight generation scheme         WeightScheme... Becke
Basis function cutoff            BFCut       ... 1.0000e-10
Integration weight cutoff        WCut        ... 1.0000e-14
Angular grids for H and He will be reduced by one unit
Partially contracted basis set               ... off
Rotationally invariant grid construction     ... off

Total number of grid points                  ...    20317
Total number of batches                      ...      331
Average number of points per batch           ...       61
Average number of grid points per atom       ...      616

CP-SCF GRIDX
------------

General Integration Accuracy     IntAcc      ... 3.067
Radial Grid Type                 RadialGrid  ... OptM3 with GC (2021)
Angular Grid (max. ang.)         AngularGrid ... 1 (Lebedev-50)
Angular grid pruning method      GridPruning ... 4 (adaptive)
Weight generation scheme         WeightScheme... Becke
Basis function cutoff            BFCut       ... 1.0000e-10
Integration weight cutoff        WCut        ... 1.0000e-14
Angular grids for H and He will be reduced by one unit
Partially contracted basis set               ... on
Rotationally invariant grid construction     ... off

Total number of grid points                  ...     9603
Total number of batches                      ...      169
Average number of points per batch           ...       56
Average number of grid points per atom       ...      291

Memory available               ... 921.4 MB
Memory needed per perturbation ...   8.2 MB
Perturbations treated per batch... 3
Number of batches              ... 1
     CP-SCF ITERATION   0:   7.4640e-02 (   0.5 sec   0/  3 done)
     CP-SCF ITERATION   1:   1.9343e-02 (   0.5 sec   0/  3 done)
     CP-SCF ITERATION   2:   3.2502e-03 (   0.5 sec   0/  3 done)
     CP-SCF ITERATION   3:   7.1717e-04 (   0.5 sec   3/  3 done)
                    *** THE CP-SCF HAS CONVERGED ***

Forming final perturbed densities           ... done
Transforming perturbed density to AO basis  ... done

 Raw HFC matrix (all values in MHz): 
 -----------------------------------
               -43.0616             -12.1287              17.7369
               -12.1276             -39.5323              -5.9337
                17.7306              -5.9336              -8.2384

 A(FC)         -30.2979             -30.2979             -30.2979
 A(SD)          32.0562              -6.3917             -25.6645
 A(ORB+DIA)      0.0388              -0.0016               0.0242    A(PC) =   0.0205
 A(ORB)          0.0343               0.0005               0.0240    A(PC) =   0.0196
 A(DIA)          0.0045              -0.0021               0.0002    A(PC) =   0.0009
             ----------           ----------           ----------
 A(Tot)          1.7971             -36.6912             -55.9382    A(iso)=  -30.2774
 Orientation: 
  X           0.4133213           -0.3957648           -0.8200827
  Y          -0.2471056            0.8180662           -0.5193328
  Z           0.8764156            0.4172983            0.2403285

Notes:  (1) The A matrix conforms to the "SAI" spin Hamiltonian convention.
        (2) Tensor is right-handed.


--------------------------------------------------------------------------------
----------------------------------------------------------------------------
                           ORCA EULER ANGLE PROGRAM
----------------------------------------------------------------------------

Only g-tensor available        -->  using g-tensor as reference tensor

Reference tensor               ...  g

g-tensor ordering              ...  |g_min> --> |gx>
                                    |g_mid> --> |gy>
                                    |g_max> --> |gz>

A- and EFG-tensor ordering     ...  the axes |Ax>, |Qx>, |Ay>, etc. are assigned
                                    such that the Euler rotation is minimal. You
                                    can find the respective eigenvalues as Ax,
                                    EFGx, Ay, etc. in the tables below.
                                    The relation of |Ax>, |Ay>,  etc. to Amin, Amid, etc.
                                    (as printed in the ORCA EPR/NMR CALCULATION Output)
                                    is obtained in the detailed printout.

Euler rotation around          ...  z - y - z
   First rotation              -->  by alpha around z
   Second rotation             -->  by beta around y'
   Third rotation              -->  by gamma around z''
   Positive / Negative angle   -->  clockwise / counterclockwise rotation

Plot EFG-tensors                    (-)
Plot HFC-tensors                    (-)
Detailed Printout                   (-)

-------------------------------------------------------------------------
          Euler rotation of hyperfine tensor to g-tensor
-------------------------------------------------------------------------

-------------------------------------------------------------------
 Atom  |   Alpha    Beta    Gamma   |   Ax       Ay       Az 
       |          [degrees]         |           [MHz]         
-------------------------------------------------------------------
  8N       14.8     36.7     -7.2      27.64    29.24   887.59
 14H      -20.4     38.5     -1.2     -56.06     1.68   -36.81
 28H      -91.4     29.7    115.4      -3.93     1.12   -10.35
 29H      -69.9     39.7     60.0      -5.74   -11.98    -0.11
 30H     -104.9     49.1    137.9      28.38    27.26    37.46
 31H     -116.2     27.0     88.4      20.04    28.78    19.00
 32H       49.9     40.0    -10.8     -55.94     1.80   -36.69
-------------------------------------------------------------------


Maximum memory used throughout the entire EPRNMR-calculation: 137.7 MB

Timings for individual modules:

Sum of individual times         ...      377.194 sec (=   6.287 min)
GTO integral calculation        ...       10.725 sec (=   0.179 min)   2.8 %
Spin-Orbit-Coupling Matrices    ...       28.626 sec (=   0.477 min)   7.6 %
SCF iterations                  ...       75.535 sec (=   1.259 min)  20.0 %
EPR/NMR calculation             ...      262.308 sec (=   4.372 min)  69.5 %
                             ****ORCA TERMINATED NORMALLY****
TOTAL RUN TIME: 0 days 0 hours 7 minutes 10 seconds 24 msec
