
                                 *****************
                                 * O   R   C   A *
                                 *****************

                                            #,                                       
                                            ###                                      
                                            ####                                     
                                            #####                                    
                                            ######                                   
                                           ########,                                 
                                     ,,################,,,,,                         
                               ,,#################################,,                 
                          ,,##########################################,,             
                       ,#########################################, ''#####,          
                    ,#############################################,,   '####,        
                  ,##################################################,,,,####,       
                ,###########''''           ''''###############################       
              ,#####''   ,,,,##########,,,,          '''####'''          '####       
            ,##' ,,,,###########################,,,                        '##       
           ' ,,###''''                  '''############,,,                           
         ,,##''                                '''############,,,,        ,,,,,,###''
      ,#''                                            '''#######################'''  
     '                                                          ''''####''''         
             ,#######,   #######,   ,#######,      ##                                
            ,#'     '#,  ##    ##  ,#'     '#,    #''#        ######   ,####,        
            ##       ##  ##   ,#'  ##            #'  '#       #        #'  '#        
            ##       ##  #######   ##           ,######,      #####,   #    #        
            '#,     ,#'  ##    ##  '#,     ,#' ,#      #,         ##   #,  ,#        
             '#######'   ##     ##  '#######'  #'      '#     #####' # '####'        



                  #######################################################
                  #                        -***-                        #
                  #          Department of theory and spectroscopy      #
                  #    Directorship and core code : Frank Neese         #
                  #        Max Planck Institute fuer Kohlenforschung    #
                  #                Kaiser Wilhelm Platz 1               #
                  #                 D-45470 Muelheim/Ruhr               #
                  #                      Germany                        #
                  #                                                     #
                  #                  All rights reserved                #
                  #                        -***-                        #
                  #######################################################


                         Program Version 5.0.4 -  RELEASE  -


 With contributions from (in alphabetic order):
   Daniel Aravena         : Magnetic Suceptibility
   Michael Atanasov       : Ab Initio Ligand Field Theory (pilot matlab implementation)
   Alexander A. Auer      : GIAO ZORA, VPT2 properties, NMR spectrum
   Ute Becker             : Parallelization
   Giovanni Bistoni       : ED, misc. LED, open-shell LED, HFLD
   Martin Brehm           : Molecular dynamics
   Dmytro Bykov           : SCF Hessian
   Vijay G. Chilkuri      : MRCI spin determinant printing, contributions to CSF-ICE
   Dipayan Datta          : RHF DLPNO-CCSD density
   Achintya Kumar Dutta   : EOM-CC, STEOM-CC
   Dmitry Ganyushin       : Spin-Orbit,Spin-Spin,Magnetic field MRCI
   Miquel Garcia          : C-PCM and meta-GGA Hessian, CC/C-PCM, Gaussian charge scheme
   Yang Guo               : DLPNO-NEVPT2, F12-NEVPT2, CIM, IAO-localization
   Andreas Hansen         : Spin unrestricted coupled pair/coupled cluster methods
   Benjamin Helmich-Paris : MC-RPA, TRAH-SCF, COSX integrals
   Lee Huntington         : MR-EOM, pCC
   Robert Izsak           : Overlap fitted RIJCOSX, COSX-SCS-MP3, EOM
   Marcus Kettner         : VPT2
   Christian Kollmar      : KDIIS, OOCD, Brueckner-CCSD(T), CCSD density, CASPT2, CASPT2-K
   Simone Kossmann        : Meta GGA functionals, TD-DFT gradient, OOMP2, MP2 Hessian
   Martin Krupicka        : Initial AUTO-CI
   Lucas Lang             : DCDCAS
   Marvin Lechner         : AUTO-CI (C++ implementation), FIC-MRCC
   Dagmar Lenk            : GEPOL surface, SMD
   Dimitrios Liakos       : Extrapolation schemes; Compound Job, initial MDCI parallelization
   Dimitrios Manganas     : Further ROCIS development; embedding schemes
   Dimitrios Pantazis     : SARC Basis sets
   Anastasios Papadopoulos: AUTO-CI, single reference methods and gradients
   Taras Petrenko         : DFT Hessian,TD-DFT gradient, ASA, ECA, R-Raman, ABS, FL, XAS/XES, NRVS
   Peter Pinski           : DLPNO-MP2, DLPNO-MP2 Gradient
   Christoph Reimann      : Effective Core Potentials
   Marius Retegan         : Local ZFS, SOC
   Christoph Riplinger    : Optimizer, TS searches, QM/MM, DLPNO-CCSD(T), (RO)-DLPNO pert. Triples
   Tobias Risthaus        : Range-separated hybrids, TD-DFT gradient, RPA, STAB
   Michael Roemelt        : Original ROCIS implementation
   Masaaki Saitow         : Open-shell DLPNO-CCSD energy and density
   Barbara Sandhoefer     : DKH picture change effects
   Avijit Sen             : IP-ROCIS
   Kantharuban Sivalingam : CASSCF convergence, NEVPT2, FIC-MRCI
   Bernardo de Souza      : ESD, SOC TD-DFT
   Georgi Stoychev        : AutoAux, RI-MP2 NMR, DLPNO-MP2 response
   Willem Van den Heuvel  : Paramagnetic NMR
   Boris Wezisla          : Elementary symmetry handling
   Frank Wennmohs         : Technical directorship


 We gratefully acknowledge several colleagues who have allowed us to
 interface, adapt or use parts of their codes:
   Stefan Grimme, W. Hujo, H. Kruse, P. Pracht,  : VdW corrections, initial TS optimization,
                  C. Bannwarth, S. Ehlert          DFT functionals, gCP, sTDA/sTD-DF
   Ed Valeev, F. Pavosevic, A. Kumar             : LibInt (2-el integral package), F12 methods
   Garnet Chan, S. Sharma, J. Yang, R. Olivares  : DMRG
   Ulf Ekstrom                                   : XCFun DFT Library
   Mihaly Kallay                                 : mrcc  (arbitrary order and MRCC methods)
   Jiri Pittner, Ondrej Demel                    : Mk-CCSD
   Frank Weinhold                                : gennbo (NPA and NBO analysis)
   Christopher J. Cramer and Donald G. Truhlar   : smd solvation model
   Lars Goerigk                                  : TD-DFT with DH, B97 family of functionals
   V. Asgeirsson, H. Jonsson                     : NEB implementation
   FAccTs GmbH                                   : IRC, NEB, NEB-TS, DLPNO-Multilevel, CI-OPT
                                                   MM, QMMM, 2- and 3-layer-ONIOM, Crystal-QMMM,
                                                   LR-CPCM, SF, NACMEs, symmetry and pop. for TD-DFT,
                                                   nearIR, NL-DFT gradient (VV10), updates on ESD,
                                                   ML-optimized integration grids
   S Lehtola, MJT Oliveira, MAL Marques          : LibXC Library
   Liviu Ungur et al                             : ANISO software


 Your calculation uses the libint2 library for the computation of 2-el integrals
 For citations please refer to: http://libint.valeyev.net

 Your ORCA version has been built with support for libXC version: 5.1.0
 For citations please refer to: https://tddft.org/programs/libxc/

 This ORCA versions uses:
   CBLAS   interface :  Fast vector & matrix operations
   LAPACKE interface :  Fast linear algebra routines
   SCALAPACK package :  Parallel linear algebra routines
   Shared memory     :  Shared parallel matrices
   BLAS/LAPACK       :  OpenBLAS 0.3.15  USE64BITINT DYNAMIC_ARCH NO_AFFINITY Zen SINGLE_THREADED
        Core in use  :  Zen
   Copyright (c) 2011-2014, The OpenBLAS Project




***************************************
The coordinates will be read from file: opt.xyz
***************************************


XCFun DFT library Copyright 2009-2010 Ulf Ekstrom and contributors.
See http://admol.org/xcfun for more information.
This is free software; see the source code for copying conditions.
There is ABSOLUTELY NO WARRANTY; not even for MERCHANTABILITY or FITNESS FOR A PARTICULAR PURPOSE.
For details see the documentation.
Scientific users of this library should cite U. Ekstrom, L. Visscher, R. Bast, A. J. Thorvaldsen and K. Ruud;
J.Chem.Theor.Comp. 2010, DOI: 10.1021/ct100117s
XCFun Version 0.99 

================================================================================

----- Orbital basis set information -----
Your calculation utilizes the basis: def2-TZVP
   F. Weigend and R. Ahlrichs, Phys. Chem. Chem. Phys. 7, 3297 (2005).

----- AuxJ basis set information -----
Your calculation utilizes the auxiliary basis: def2/J
   F. Weigend, Phys. Chem. Chem. Phys. 8, 1057 (2006).

================================================================================
                                        WARNINGS
                       Please study these warnings very carefully!
================================================================================


WARNING: your system is open-shell and RHF/RKS was chosen
  ===> : WILL SWITCH to UHF/UKS


WARNING: Geometry Optimization
  ===> : Switching off AutoStart
         For restart on a previous wavefunction, please use MOREAD

WARNING: Minnesota functionals are quite sensitive to the integration grid.
         see SE Wheeler, KN Houk, JCTC 2010, 6, 395,
             N Mardirossian, M Head-Gordon, JCTC 2016, 12, 4303.
         DEFGRID3 seems to be a minimum grid for reliable results with these functionals!
  ===> : Please increase the integration grid!


INFO   : the flag for use of the SHARK integral package has been found!

================================================================================
                                       INPUT FILE
================================================================================
NAME = freq.inp
|  1> ! M062X def2-TZVP OPT FREQ
|  2> %pal nprocs 16 end
|  3> *XYZFile 1 2 opt.xyz
|  4> 
|  5>                          ****END OF INPUT****
================================================================================

                       *****************************
                       * Geometry Optimization Run *
                       *****************************

Geometry optimization settings:
Update method            Update   .... BFGS
Choice of coordinates    CoordSys .... Z-matrix Internals
Initial Hessian          InHess   .... Almoef's Model

Convergence Tolerances:
Energy Change            TolE     ....  5.0000e-06 Eh
Max. Gradient            TolMAXG  ....  3.0000e-04 Eh/bohr
RMS Gradient             TolRMSG  ....  1.0000e-04 Eh/bohr
Max. Displacement        TolMAXD  ....  4.0000e-03 bohr
RMS Displacement         TolRMSD  ....  2.0000e-03 bohr
Strict Convergence                ....  False
------------------------------------------------------------------------------
                        ORCA OPTIMIZATION COORDINATE SETUP
------------------------------------------------------------------------------

The optimization will be done in new redundant internal coordinates
Making redundant internal coordinates   ...  (new redundants) done
Evaluating the initial hessian          ...  (Almloef) done
Evaluating the coordinates              ...  done
Calculating the B-matrix                .... done
Calculating the G-matrix                .... done
Diagonalizing the G-matrix              .... done
Small eigenvalue found = 6.220e-03
Small eigenvalue found = 6.554e-03
Small eigenvalue found = 1.023e-02
Small eigenvalue found = 2.354e-02
Small eigenvalue found = 2.470e-02
The first mode is                       ....   70
The number of degrees of freedom        ....   93

    -----------------------------------------------------------------
                    Redundant Internal Coordinates


    -----------------------------------------------------------------
         Definition                    Initial Value    Approx d2E/dq
    -----------------------------------------------------------------
      1. B(C   1,N   0)                  1.4350         0.474335   
      2. B(C   2,C   1)                  1.5450         0.353573   
      3. B(O   3,C   2)                  1.2314         1.002121   
      4. B(C   4,C   1)                  1.5846         0.305692   
      5. B(C   5,C   4)                  1.5316         0.371427   
      6. B(C   6,C   5)                  1.5438         0.355127   
      7. B(C   7,C   6)                  1.5813         0.309445   
      8. B(N   8,C   7)                  1.4304         0.482340   
      9. B(H   9,N   0)                  1.0168         0.421982   
     10. B(C  10,N   0)                  1.3883         0.563044   
     11. B(N  11,C   2)                  1.3566         0.632703   
     12. B(H  12,N  11)                  1.0105         0.431854   
     13. B(O  13,C  10)                  1.2281         1.014456   
     14. B(H  14,N   8)                  1.0130         0.427932   
     15. B(C  15,N  11)                  1.4657         0.423707   
     16. B(H  16,C  15)                  1.0948         0.353862   
     17. B(H  17,C  15)                  1.0924         0.357000   
     18. B(H  18,C  15)                  1.0898         0.360336   
     19. B(C  19,C  10)                  1.5166         0.392495   
     20. B(H  20,C  19)                  1.0915         0.358092   
     21. B(H  21,C  19)                  1.0951         0.353458   
     22. B(H  22,C  19)                  1.0926         0.356664   
     23. B(H  23,C   1)                  1.0967         0.351374   
     24. B(H  24,C   4)                  1.0953         0.353217   
     25. B(H  25,C   4)                  1.0953         0.353184   
     26. B(H  26,C   5)                  1.0950         0.353527   
     27. B(H  27,C   5)                  1.0959         0.352438   
     28. B(H  28,C   6)                  1.0950         0.353532   
     29. B(H  29,C   6)                  1.0950         0.353547   
     30. B(H  30,C   7)                  1.0942         0.354599   
     31. B(H  31,C   7)                  1.0933         0.355721   
     32. B(H  32,N   8)                  1.0130         0.428034   
     33. A(H   9,N   0,C  10)          121.6723         0.351356   
     34. A(C   1,N   0,H   9)          115.6126         0.341371   
     35. A(C   1,N   0,C  10)          122.7028         0.401557   
     36. A(N   0,C   1,C   4)          113.9816         0.363460   
     37. A(C   4,C   1,H  23)          104.8996         0.312631   
     38. A(N   0,C   1,C   2)          106.6804         0.372650   
     39. A(C   2,C   1,H  23)          112.8691         0.320119   
     40. A(N   0,C   1,H  23)          108.2664         0.333980   
     41. A(C   2,C   1,C   4)          110.2717         0.347932   
     42. A(O   3,C   2,N  11)          124.6256         0.469117   
     43. A(C   1,C   2,O   3)          119.7809         0.424974   
     44. A(C   1,C   2,N  11)          115.5646         0.391762   
     45. A(C   1,C   4,C   5)          114.4889         0.350835   
     46. A(C   5,C   4,H  25)          111.2403         0.322983   
     47. A(C   5,C   4,H  24)          110.6535         0.322988   
     48. A(C   1,C   4,H  24)          107.5143         0.312896   
     49. A(H  24,C   4,H  25)          107.5593         0.289080   
     50. A(C   1,C   4,H  25)          104.9981         0.312892   
     51. A(C   4,C   5,H  27)          109.8210         0.322871   
     52. A(C   6,C   5,H  27)          109.7205         0.320507   
     53. A(C   6,C   5,H  26)          109.6161         0.320669   
     54. A(C   4,C   5,H  26)          111.2239         0.323034   
     55. A(C   4,C   5,C   6)          109.4055         0.359871   
     56. A(H  26,C   5,H  27)          107.0197         0.289024   
     57. A(C   7,C   6,H  28)          108.3903         0.313561   
     58. A(C   5,C   6,C   7)          110.0371         0.348906   
     59. A(C   5,C   6,H  29)          110.7769         0.320672   
     60. A(C   5,C   6,H  28)          110.9212         0.320670   
     61. A(H  28,C   6,H  29)          107.9210         0.289166   
     62. A(C   7,C   6,H  29)          108.7160         0.313563   
     63. A(H  30,C   7,H  31)          109.2489         0.289581   
     64. A(N   8,C   7,H  31)          109.0463         0.335595   
     65. A(N   8,C   7,H  30)          109.2349         0.335418   
     66. A(C   6,C   7,H  30)          108.5864         0.313714   
     67. A(C   6,C   7,H  31)          108.9074         0.313875   
     68. A(C   6,C   7,N   8)          111.7828         0.365264   
     69. A(C   7,N   8,H  32)          120.1103         0.343146   
     70. A(H  14,N   8,H  32)          115.6895         0.302195   
     71. A(C   7,N   8,H  14)          120.0584         0.343132   
     72. A(N   0,C  10,O  13)          119.8656         0.460239   
     73. A(O  13,C  10,C  19)          123.7872         0.433963   
     74. A(N   0,C  10,C  19)          116.3387         0.390926   
     75. A(C   2,N  11,H  12)          118.1932         0.359788   
     76. A(H  12,N  11,C  15)          118.0671         0.336296   
     77. A(C   2,N  11,C  15)          122.6799         0.401824   
     78. A(H  17,C  15,H  18)          109.8553         0.290475   
     79. A(H  16,C  15,H  18)          108.8403         0.290073   
     80. A(N  11,C  15,H  18)          108.4221         0.329166   
     81. A(H  16,C  15,H  17)          109.2470         0.289650   
     82. A(N  11,C  15,H  17)          109.4165         0.328661   
     83. A(N  11,C  15,H  16)          111.0441         0.328182   
     84. A(H  20,C  19,H  22)          110.0267         0.290147   
     85. A(C  10,C  19,H  22)          113.2469         0.326449   
     86. A(H  20,C  19,H  21)          107.6493         0.289736   
     87. A(C  10,C  19,H  21)          108.1789         0.325964   
     88. A(C  10,C  19,H  20)          108.9318         0.326664   
     89. A(H  21,C  19,H  22)          108.6415         0.289555   
     90. D(C   2,C   1,N   0,H   9)     17.9375         0.019232   
     91. D(C   2,C   1,N   0,C  10)   -163.3172         0.019232   
     92. D(C   4,C   1,N   0,C  10)     74.7341         0.019232   
     93. D(C   4,C   1,N   0,H   9)   -104.0111         0.019232   
     94. D(H  23,C   1,N   0,C  10)    -41.5729         0.019232   
     95. D(H  23,C   1,N   0,H   9)    139.6819         0.019232   
     96. D(O   3,C   2,C   1,N   0)    -29.4953         0.009429   
     97. D(N  11,C   2,C   1,N   0)    152.3700         0.009429   
     98. D(N  11,C   2,C   1,C   4)    -83.3675         0.009429   
     99. D(N  11,C   2,C   1,H  23)     33.5864         0.009429   
    100. D(O   3,C   2,C   1,C   4)     94.7672         0.009429   
    101. D(O   3,C   2,C   1,H  23)   -148.2789         0.009429   
    102. D(C   5,C   4,C   1,N   0)     60.7935         0.007747   
    103. D(C   5,C   4,C   1,C   2)    -59.1535         0.007747   
    104. D(H  25,C   4,C   1,C   2)    178.5592         0.007747   
    105. D(C   5,C   4,C   1,H  23)    179.0451         0.007747   
    106. D(H  24,C   4,C   1,H  23)    -57.5766         0.007747   
    107. D(H  24,C   4,C   1,C   2)     64.2248         0.007747   
    108. D(H  24,C   4,C   1,N   0)   -175.8282         0.007747   
    109. D(H  25,C   4,C   1,H  23)     56.7579         0.007747   
    110. D(H  25,C   4,C   1,N   0)    -61.4938         0.007747   
    111. D(H  27,C   5,C   4,H  25)     64.4451         0.011023   
    112. D(H  27,C   5,C   4,H  24)   -176.0548         0.011023   
    113. D(H  27,C   5,C   4,C   1)    -54.3799         0.011023   
    114. D(H  26,C   5,C   4,H  24)    -57.7768         0.011023   
    115. D(H  26,C   5,C   4,C   1)     63.8981         0.011023   
    116. D(C   6,C   5,C   4,H  25)    -56.0359         0.011023   
    117. D(H  26,C   5,C   4,H  25)   -177.2768         0.011023   
    118. D(C   6,C   5,C   4,H  24)     63.4641         0.011023   
    119. D(C   6,C   5,C   4,C   1)   -174.8609         0.011023   
    120. D(C   7,C   6,C   5,C   4)    177.4794         0.010138   
    121. D(H  29,C   6,C   5,H  26)    179.4450         0.010138   
    122. D(H  29,C   6,C   5,C   4)     57.2358         0.010138   
    123. D(H  28,C   6,C   5,H  27)    176.8668         0.010138   
    124. D(H  28,C   6,C   5,H  26)     59.6185         0.010138   
    125. D(H  28,C   6,C   5,C   4)    -62.5908         0.010138   
    126. D(C   7,C   6,C   5,H  27)     56.9370         0.010138   
    127. D(H  29,C   6,C   5,H  27)    -63.3066         0.010138   
    128. D(C   7,C   6,C   5,H  26)    -60.3113         0.010138   
    129. D(H  31,C   7,C   6,H  29)     62.5896         0.007913   
    130. D(H  31,C   7,C   6,C   5)    -58.8920         0.007913   
    131. D(H  30,C   7,C   6,H  29)   -178.5401         0.007913   
    132. D(H  30,C   7,C   6,H  28)    -61.4746         0.007913   
    133. D(H  30,C   7,C   6,C   5)     59.9784         0.007913   
    134. D(N   8,C   7,C   6,H  29)    -57.9643         0.007913   
    135. D(H  31,C   7,C   6,H  28)    179.6550         0.007913   
    136. D(N   8,C   7,C   6,H  28)     59.1011         0.007913   
    137. D(N   8,C   7,C   6,C   5)   -179.4459         0.007913   
    138. D(H  32,N   8,C   7,H  31)    -40.3498         0.019905   
    139. D(H  32,N   8,C   7,H  30)   -159.6801         0.019905   
    140. D(H  32,N   8,C   7,C   6)     80.1230         0.019905   
    141. D(H  14,N   8,C   7,H  31)    163.5034         0.019905   
    142. D(H  14,N   8,C   7,H  30)     44.1731         0.019905   
    143. D(H  14,N   8,C   7,C   6)    -76.0238         0.019905   
    144. D(C  19,C  10,N   0,H   9)     -4.9938         0.025334   
    145. D(C  19,C  10,N   0,C   1)    176.3357         0.025334   
    146. D(O  13,C  10,N   0,H   9)    176.0309         0.025334   
    147. D(O  13,C  10,N   0,C   1)     -2.6396         0.025334   
    148. D(C  15,N  11,C   2,O   3)      4.7986         0.032521   
    149. D(C  15,N  11,C   2,C   1)   -177.1689         0.032521   
    150. D(H  12,N  11,C   2,O   3)    172.7876         0.032521   
    151. D(H  12,N  11,C   2,C   1)     -9.1798         0.032521   
    152. D(H  16,C  15,N  11,C   2)     95.9731         0.015307   
    153. D(H  18,C  15,N  11,H  12)    168.4416         0.015307   
    154. D(H  18,C  15,N  11,C   2)    -23.5550         0.015307   
    155. D(H  17,C  15,N  11,H  12)     48.6410         0.015307   
    156. D(H  17,C  15,N  11,C   2)   -143.3556         0.015307   
    157. D(H  16,C  15,N  11,H  12)    -72.0303         0.015307   
    158. D(H  22,C  19,C  10,O  13)   -164.2238         0.011454   
    159. D(H  22,C  19,C  10,N   0)     16.8454         0.011454   
    160. D(H  21,C  19,C  10,O  13)     75.2970         0.011454   
    161. D(H  21,C  19,C  10,N   0)   -103.6338         0.011454   
    162. D(H  20,C  19,C  10,O  13)    -41.4466         0.011454   
    163. D(H  20,C  19,C  10,N   0)    139.6226         0.011454   
    -----------------------------------------------------------------

Number of atoms                         .... 33
Number of degrees of freedom            .... 163

         *************************************************************
         *                GEOMETRY OPTIMIZATION CYCLE   1            *
         *************************************************************
---------------------------------
CARTESIAN COORDINATES (ANGSTROEM)
---------------------------------
  N     -7.879860    0.843240    0.071065
  C     -6.449482    0.845818    0.186081
  C     -6.126094    0.866142    1.696700
  O     -6.908102    1.402274    2.482423
  C     -5.746994    2.065249   -0.542217
  C     -6.156621    3.442635   -0.012386
  C     -5.508050    4.540574   -0.882534
  C     -5.973071    5.968803   -0.388244
  N     -5.402749    7.015754   -1.178681
  H     -8.388148    1.136328    0.901543
  C     -8.537574    0.491782   -1.099980
  N     -4.942953    0.304118    2.049696
  H     -4.428098   -0.206486    1.345853
  O     -7.889606    0.213118   -2.105279
  H     -4.432712    7.277793   -1.049939
  C     -4.508485    0.184487    3.444424
  H     -4.752321   -0.803202    3.848785
  H     -3.429030    0.341188    3.503225
  H     -5.025173    0.942830    4.032353
  C    -10.052365    0.456138   -1.036209
  H    -10.455672    0.878457   -1.958386
  H    -10.367606   -0.591325   -0.985052
  H    -10.460211    0.986199   -0.172211
  H     -6.062276   -0.046340   -0.320701
  H     -4.664645    1.923285   -0.453069
  H     -6.009003    1.952906   -1.599745
  H     -5.851638    3.572678    1.031228
  H     -7.247444    3.543062   -0.042677
  H     -4.415740    4.492883   -0.822265
  H     -5.793009    4.422397   -1.933180
  H     -5.664225    6.094830    0.653862
  H     -7.063013    6.027826   -0.450814
  H     -5.805282    7.250238   -2.078161

----------------------------
CARTESIAN COORDINATES (A.U.)
----------------------------
  NO LB      ZA    FRAG     MASS         X           Y           Z
   0 N     7.0000    0    14.007  -14.890778    1.593493    0.134294
   1 C     6.0000    0    12.011  -12.187756    1.598364    0.351643
   2 C     6.0000    0    12.011  -11.576640    1.636772    3.206297
   3 O     8.0000    0    15.999  -13.054420    2.649913    4.691099
   4 C     6.0000    0    12.011  -10.860244    3.902756   -1.024641
   5 C     6.0000    0    12.011  -11.634328    6.505636   -0.023406
   6 C     6.0000    0    12.011  -10.408706    8.580441   -1.667748
   7 C     6.0000    0    12.011  -11.287469   11.279404   -0.733676
   8 N     7.0000    0    14.007  -10.209717   13.257854   -2.227384
   9 H     1.0000    0     1.008  -15.851302    2.147348    1.703669
  10 C     6.0000    0    12.011  -16.133677    0.929333   -2.078660
  11 N     7.0000    0    14.007   -9.340827    0.574700    3.873364
  12 H     1.0000    0     1.008   -8.367893   -0.390201    2.543294
  13 O     8.0000    0    15.999  -14.909195    0.402735   -3.978401
  14 H     1.0000    0     1.008   -8.376612   13.753036   -1.984097
  15 C     6.0000    0    12.011   -8.519802    0.348629    6.509019
  16 H     1.0000    0     1.008   -8.980585   -1.517832    7.273150
  17 H     1.0000    0     1.008   -6.479928    0.644752    6.620135
  18 H     1.0000    0     1.008   -9.496201    1.781691    7.620042
  19 C     6.0000    0    12.011  -18.996216    0.861976   -1.958151
  20 H     1.0000    0     1.008  -19.758357    1.660043   -3.700813
  21 H     1.0000    0     1.008  -19.591936   -1.117442   -1.861479
  22 H     1.0000    0     1.008  -19.766934    1.863646   -0.325431
  23 H     1.0000    0     1.008  -11.456042   -0.087569   -0.606037
  24 H     1.0000    0     1.008   -8.814901    3.634482   -0.856176
  25 H     1.0000    0     1.008  -11.355370    3.690458   -3.023080
  26 H     1.0000    0     1.008  -11.057994    6.751384    1.948739
  27 H     1.0000    0     1.008  -13.695684    6.695417   -0.080648
  28 H     1.0000    0     1.008   -8.344539    8.490319   -1.553856
  29 H     1.0000    0     1.008  -10.947201    8.357119   -3.653181
  30 H     1.0000    0     1.008  -10.703835   11.517559    1.235620
  31 H     1.0000    0     1.008  -13.347160   11.390940   -0.851916
  32 H     1.0000    0     1.008  -10.970392   13.700964   -3.927156

--------------------------------
INTERNAL COORDINATES (ANGSTROEM)
--------------------------------
 N      0   0   0     0.000000000000     0.00000000     0.00000000
 C      1   0   0     1.434997092124     0.00000000     0.00000000
 C      2   1   0     1.544979074690   106.68044914     0.00000000
 O      3   2   1     1.231394766315   119.78089349   330.50467034
 C      2   1   3     1.584588945706   113.98155939   238.05135864
 C      5   2   1     1.531569514983   114.48887032    60.79350720
 C      6   5   2     1.543785585053   109.40550999   185.13908850
 C      7   6   5     1.581267362732   110.03712424   177.47941064
 N      8   7   6     1.430441439878   111.78277870   180.55412023
 H      1   2   3     1.016832726050   115.61264674    17.93752454
 C      1   2   3     1.388328627146   122.70278663   196.68277657
 N      3   2   1     1.356576850670   115.56464095   152.36997021
 H     12   3   2     1.010537728056   118.19320279   350.82019233
 O     11   1   2     1.228064565796   119.86557968   357.36038648
 H      9   8   7     1.013020983310   120.05844711   283.97621674
 C     12   3   2     1.465721843583   122.67988066   182.83111755
 H     16  12   3     1.094756551035   111.04411648    95.97314928
 H     16  12   3     1.092353228877   109.41645257   216.64443454
 H     16  12   3     1.089821685899   108.42207437   336.44504997
 C     11   1   2     1.516551370431   116.33865901   176.33568994
 H     20  11   1     1.091522214330   108.93179419   139.62257264
 H     20  11   1     1.095067811765   108.17892292   256.36619909
 H     20  11   1     1.092609551897   113.24685301    16.84544077
 H      2   1   3     1.096677725441   108.26642163   121.74436622
 H      5   2   1     1.095253303721   107.51429951   184.17179078
 H      5   2   1     1.095279072321   104.99809872   298.50624244
 H      6   5   2     1.095014403713   111.22392111    63.89814004
 H      6   5   2     1.095854557877   109.82101240   305.62013979
 H      7   6   5     1.095010905968   110.92119617   297.40922419
 H      7   6   5     1.094999348997   110.77685315    57.23579478
 H      8   7   6     1.094190807026   108.58641234    59.97835318
 H      8   7   6     1.093330699116   108.90741778   301.10795767
 H      9   8   7     1.012956196909   120.11031500    80.12297614

---------------------------
INTERNAL COORDINATES (A.U.)
---------------------------
 N      0   0   0     0.000000000000     0.00000000     0.00000000
 C      1   0   0     2.711751507089     0.00000000     0.00000000
 C      2   1   0     2.919587333803   106.68044914     0.00000000
 O      3   2   1     2.326998871080   119.78089349   330.50467034
 C      2   1   3     2.994439142223   113.98155939   238.05135864
 C      5   2   1     2.894246938381   114.48887032    60.79350720
 C      6   5   2     2.917331965245   109.40550999   185.13908850
 C      7   6   5     2.988162260071   110.03712424   177.47941064
 N      8   7   6     2.703142571982   111.78277870   180.55412023
 H      1   2   3     1.921535376243   115.61264674    17.93752454
 C      1   2   3     2.623560889188   122.70278663   196.68277657
 N      3   2   1     2.563558727384   115.56464095   152.36997021
 H     12   3   2     1.909639554021   118.19320279   350.82019233
 O     11   1   2     2.320705704128   119.86557968   357.36038648
 H      9   8   7     1.914332226371   120.05844711   283.97621674
 C     12   3   2     2.769812872879   122.67988066   182.83111755
 H     16  12   3     2.068790064772   111.04411648    95.97314928
 H     16  12   3     2.064248444083   109.41645257   216.64443454
 H     16  12   3     2.059464521158   108.42207437   336.44504997
 C     11   1   2     2.865866758138   116.33865901   176.33568994
 H     20  11   1     2.062678054174   108.93179419   139.62257264
 H     20  11   1     2.069378262309   108.17892292   256.36619909
 H     20  11   1     2.064732824392   113.24685301    16.84544077
 H      2   1   3     2.072420558256   108.26642163   121.74436622
 H      5   2   1     2.069728791305   107.51429951   184.17179078
 H      5   2   1     2.069777486902   104.99809872   298.50624244
 H      6   5   2     2.069277335716   111.22392111    63.89814004
 H      6   5   2     2.070864996997   109.82101240   305.62013979
 H      7   6   5     2.069270725936   110.92119617   297.40922419
 H      7   6   5     2.069248886426   110.77685315    57.23579478
 H      8   7   6     2.067720963534   108.58641234    59.97835318
 H      8   7   6     2.066095595137   108.90741778   301.10795767
 H      9   8   7     1.914209797817   120.11031500    80.12297614

---------------------
BASIS SET INFORMATION
---------------------
There are 4 groups of distinct atoms

 Group   1 Type N   : 11s6p2d1f contracted to 5s3p2d1f pattern {62111/411/11/1}
 Group   2 Type C   : 11s6p2d1f contracted to 5s3p2d1f pattern {62111/411/11/1}
 Group   3 Type O   : 11s6p2d1f contracted to 5s3p2d1f pattern {62111/411/11/1}
 Group   4 Type H   : 5s1p contracted to 3s1p pattern {311/1}

Atom   0N    basis set group =>   1
Atom   1C    basis set group =>   2
Atom   2C    basis set group =>   2
Atom   3O    basis set group =>   3
Atom   4C    basis set group =>   2
Atom   5C    basis set group =>   2
Atom   6C    basis set group =>   2
Atom   7C    basis set group =>   2
Atom   8N    basis set group =>   1
Atom   9H    basis set group =>   4
Atom  10C    basis set group =>   2
Atom  11N    basis set group =>   1
Atom  12H    basis set group =>   4
Atom  13O    basis set group =>   3
Atom  14H    basis set group =>   4
Atom  15C    basis set group =>   2
Atom  16H    basis set group =>   4
Atom  17H    basis set group =>   4
Atom  18H    basis set group =>   4
Atom  19C    basis set group =>   2
Atom  20H    basis set group =>   4
Atom  21H    basis set group =>   4
Atom  22H    basis set group =>   4
Atom  23H    basis set group =>   4
Atom  24H    basis set group =>   4
Atom  25H    basis set group =>   4
Atom  26H    basis set group =>   4
Atom  27H    basis set group =>   4
Atom  28H    basis set group =>   4
Atom  29H    basis set group =>   4
Atom  30H    basis set group =>   4
Atom  31H    basis set group =>   4
Atom  32H    basis set group =>   4
---------------------------------
AUXILIARY/J BASIS SET INFORMATION
---------------------------------
There are 4 groups of distinct atoms

 Group   1 Type N   : 12s5p4d2f1g contracted to 6s4p3d1f1g pattern {711111/2111/211/2/1}
 Group   2 Type C   : 12s5p4d2f1g contracted to 6s4p3d1f1g pattern {711111/2111/211/2/1}
 Group   3 Type O   : 12s5p4d2f1g contracted to 6s4p3d1f1g pattern {711111/2111/211/2/1}
 Group   4 Type H   : 5s2p1d contracted to 3s1p1d pattern {311/2/1}

Atom   0N    basis set group =>   1
Atom   1C    basis set group =>   2
Atom   2C    basis set group =>   2
Atom   3O    basis set group =>   3
Atom   4C    basis set group =>   2
Atom   5C    basis set group =>   2
Atom   6C    basis set group =>   2
Atom   7C    basis set group =>   2
Atom   8N    basis set group =>   1
Atom   9H    basis set group =>   4
Atom  10C    basis set group =>   2
Atom  11N    basis set group =>   1
Atom  12H    basis set group =>   4
Atom  13O    basis set group =>   3
Atom  14H    basis set group =>   4
Atom  15C    basis set group =>   2
Atom  16H    basis set group =>   4
Atom  17H    basis set group =>   4
Atom  18H    basis set group =>   4
Atom  19C    basis set group =>   2
Atom  20H    basis set group =>   4
Atom  21H    basis set group =>   4
Atom  22H    basis set group =>   4
Atom  23H    basis set group =>   4
Atom  24H    basis set group =>   4
Atom  25H    basis set group =>   4
Atom  26H    basis set group =>   4
Atom  27H    basis set group =>   4
Atom  28H    basis set group =>   4
Atom  29H    basis set group =>   4
Atom  30H    basis set group =>   4
Atom  31H    basis set group =>   4
Atom  32H    basis set group =>   4


           ************************************************************
           *        Program running with 16 parallel MPI-processes    *
           *              working on a common directory               *
           ************************************************************
------------------------------------------------------------------------------
                           ORCA GTO INTEGRAL CALCULATION
                           -- RI-GTO INTEGRALS CHOSEN --
------------------------------------------------------------------------------
------------------------------------------------------------------------------
                   ___                                                        
                  /   \      - P O W E R E D   B Y -                         
                 /     \                                                     
                 |  |  |   _    _      __       _____    __    __             
                 |  |  |  | |  | |    /  \     |  _  \  |  |  /  |          
                  \  \/   | |  | |   /    \    | | | |  |  | /  /          
                 / \  \   | |__| |  /  /\  \   | |_| |  |  |/  /          
                |  |  |   |  __  | /  /__\  \  |    /   |      \           
                |  |  |   | |  | | |   __   |  |    \   |  |\   \          
                \     /   | |  | | |  |  |  |  | |\  \  |  | \   \       
                 \___/    |_|  |_| |__|  |__|  |_| \__\ |__|  \__/        
                                                                              
                      - O R C A' S   B I G   F R I E N D -                    
                                      &                                       
                       - I N T E G R A L  F E E D E R -                       
                                                                              
 v1 FN, 2020, v2 2021                                                         
------------------------------------------------------------------------------


Reading SHARK input file freq.SHARKINP.tmp ... ok
----------------------
SHARK INTEGRAL PACKAGE
----------------------

Number of atoms                             ...     33
Number of basis functions                   ...    548
Number of shells                            ...    230
Maximum angular momentum                    ...      3
Integral batch strategy                     ... SHARK/LIBINT Hybrid
RI-J (if used) integral strategy            ... SPLIT-RIJ (Revised 2003 algorithm where possible)
Printlevel                                  ...      1
Contraction scheme used                     ... SEGMENTED contraction
Coulomb Range Separation                    ... NOT USED
Exchange Range Separation                   ... NOT USED
Finite Nucleus Model                        ... NOT USED
Auxiliary Coulomb fitting basis             ... AVAILABLE
   # of basis functions in Aux-J            ...    895
   # of shells in Aux-J                     ...    305
   Maximum angular momentum in Aux-J        ...      4
Auxiliary J/K fitting basis                 ... NOT available
Auxiliary Correlation fitting basis         ... NOT available
Auxiliary 'external' fitting basis          ... NOT available
Integral threshold                          ...     2.500000e-11
Primitive cut-off                           ...     2.500000e-12
Primitive pair pre-selection threshold      ...     2.500000e-12

Calculating pre-screening integrals         ... done (  0.0 sec) Dimension = 230
Organizing shell pair data                  ... done (  0.1 sec)
Shell pair information
Total number of shell pairs                 ...     26565
Shell pairs after pre-screening             ...     19931
Total number of primitive shell pairs       ...     78180
Primitive shell pairs kept                  ...     40873
          la=0 lb=0:   6052 shell pairs
          la=1 lb=0:   5921 shell pairs
          la=1 lb=1:   1494 shell pairs
          la=2 lb=0:   2623 shell pairs
          la=2 lb=1:   1310 shell pairs
          la=2 lb=2:    307 shell pairs
          la=3 lb=0:   1250 shell pairs
          la=3 lb=1:    626 shell pairs
          la=3 lb=2:    276 shell pairs
          la=3 lb=3:     72 shell pairs

Calculating one electron integrals          ... done (  0.0 sec)
Calculating RI/J V-Matrix + Cholesky decomp.... done (  0.0 sec)
Calculating Nuclear repulsion               ... done (  0.0 sec) ENN=    931.339085552231 Eh

SHARK setup successfully completed in   0.4 seconds

Maximum memory used throughout the entire GTOINT-calculation: 31.5 MB


           ************************************************************
           *        Program running with 16 parallel MPI-processes    *
           *              working on a common directory               *
           ************************************************************
-------------------------------------------------------------------------------
                                 ORCA SCF
-------------------------------------------------------------------------------

------------
SCF SETTINGS
------------
Hamiltonian:
 Density Functional     Method          .... DFT(GTOs)
 Exchange Functional    Exchange        .... M062X
 Correlation Functional Correlation     .... M062X
 Gradients option       PostSCFGGA      .... off
 Hybrid DFT is turned on
   Fraction HF Exchange ScalHFX         ....  0.540000
   Scaling of DF-GGA-X  ScalDFX         ....  0.460000
   Scaling of DF-GGA-C  ScalDFC         ....  1.000000
   Scaling of DF-LDA-C  ScalLDAC        ....  1.000000
   Perturbative correction              ....  0.000000
   Density functional embedding theory  .... OFF
 RI-approximation to the Coulomb term is turned on
   Number of AuxJ basis functions       .... 895
   RIJ-COSX (HFX calculated with COS-X)).... on


General Settings:
 Integral files         IntName         .... freq
 Hartree-Fock type      HFTyp           .... UHF
 Total Charge           Charge          ....    1
 Multiplicity           Mult            ....    2
 Number of Electrons    NEL             ....  109
 Basis Dimension        Dim             ....  548
 Nuclear Repulsion      ENuc            ....    931.3390855522 Eh

Convergence Acceleration:
 DIIS                   CNVDIIS         .... on
   Start iteration      DIISMaxIt       ....    12
   Startup error        DIISStart       ....  0.200000
   # of expansion vecs  DIISMaxEq       ....     5
   Bias factor          DIISBfac        ....   1.050
   Max. coefficient     DIISMaxC        ....  10.000
 Trust-Rad. Augm. Hess. CNVTRAH         .... auto
   Auto Start mean grad. ratio tolernc. ....  1.125000
   Auto Start start iteration           ....    20
   Auto Start num. interpolation iter.  ....    10
   Max. Number of Micro iterations      ....    16
   Max. Number of Macro iterations      .... Maxiter - #DIIS iter
   Number of Davidson start vectors     ....     2
   Converg. threshold I  (grad. norm)   ....   1.000e-05
   Converg. threshold II (energy diff.) ....   1.000e-08
   Grad. Scal. Fac. for Micro threshold ....   0.100
   Minimum threshold for Micro iter.    ....   0.010
   NR start threshold (gradient norm)   ....   0.001
   Initial trust radius                 ....   0.400
   Minimum AH scaling param. (alpha)    ....   1.000
   Maximum AH scaling param. (alpha)    .... 1000.000
   Orbital update algorithm             .... Taylor
   White noise on init. David. guess    .... on
   Maximum white noise                  ....   0.010
   Quad. conv. algorithm                .... NR
 SOSCF                  CNVSOSCF        .... off
 Level Shifting         CNVShift        .... on
   Level shift para.    LevelShift      ....    0.2500
   Turn off err/grad.   ShiftErr        ....    0.0010
 Zerner damping         CNVZerner       .... off
 Static damping         CNVDamp         .... on
   Fraction old density DampFac         ....    0.7000
   Max. Damping (<1)    DampMax         ....    0.9800
   Min. Damping (>=0)   DampMin         ....    0.0000
   Turn off err/grad.   DampErr         ....    0.1000
 Fernandez-Rico         CNVRico         .... off

SCF Procedure:
 Maximum # iterations   MaxIter         ....   125
 SCF integral mode      SCFMode         .... Direct
   Integral package                     .... SHARK and LIBINT hybrid scheme
 Reset frequency        DirectResetFreq ....    20
 Integral Threshold     Thresh          ....  2.500e-11 Eh
 Primitive CutOff       TCut            ....  2.500e-12 Eh

Convergence Tolerance:
 Convergence Check Mode ConvCheckMode   .... Total+1el-Energy
 Convergence forced     ConvForced      .... 0
 Energy Change          TolE            ....  1.000e-08 Eh
 1-El. energy change                    ....  1.000e-05 Eh
 DIIS Error             TolErr          ....  5.000e-07


Diagonalization of the overlap matrix:
Smallest eigenvalue                        ... 6.089e-05
Time for diagonalization                   ...    0.036 sec
Threshold for overlap eigenvalues          ... 1.000e-08
Number of eigenvalues below threshold      ... 0
Time for construction of square roots      ...    0.021 sec
Total time needed                          ...    0.058 sec

Time for model grid setup =    0.124 sec

------------------------------
INITIAL GUESS: MODEL POTENTIAL
------------------------------
Loading Hartree-Fock densities                     ... done
Calculating cut-offs                               ... done
Initializing the effective Hamiltonian             ... done
Setting up the integral package (SHARK)            ... done
Starting the Coulomb interaction                   ... done (   0.1 sec)
Reading the grid                                   ... done
Mapping shells                                     ... done
Starting the XC term evaluation                    ... done (   0.1 sec)
  promolecular density results
     # of electrons  =    109.999056734
     EX              =    -87.557958319
     EC              =     -3.646747439
     EX+EC           =    -91.204705758
Transforming the Hamiltonian                       ... done (   0.0 sec)
Diagonalizing the Hamiltonian                      ... done (   0.0 sec)
Back transforming the eigenvectors                 ... done (   0.0 sec)
Now organizing SCF variables                       ... done
                      ------------------
                      INITIAL GUESS DONE (   0.4 sec)
                      ------------------
-------------------
DFT GRID GENERATION
-------------------

General Integration Accuracy     IntAcc      ... 4.388
Radial Grid Type                 RadialGrid  ... OptM3 with GC (2021)
Angular Grid (max. ang.)         AngularGrid ... 4 (Lebedev-302)
Angular grid pruning method      GridPruning ... 4 (adaptive)
Weight generation scheme         WeightScheme... Becke
Basis function cutoff            BFCut       ... 1.0000e-11
Integration weight cutoff        WCut        ... 1.0000e-14
Angular grids for H and He will be reduced by one unit
Partially contracted basis set               ... off
Rotationally invariant grid construction     ... off

Total number of grid points                  ...   144750
Total number of batches                      ...     2279
Average number of points per batch           ...       63
Average number of grid points per atom       ...     4386
Time for grid setup =    0.637 sec

--------------------
COSX GRID GENERATION
--------------------

GRIDX 1
-------
General Integration Accuracy     IntAcc      ... 3.816
Radial Grid Type                 RadialGrid  ... OptM3 with GC (2021)
Angular Grid (max. ang.)         AngularGrid ... 1 (Lebedev-50)
Angular grid pruning method      GridPruning ... 4 (adaptive)
Weight generation scheme         WeightScheme... Becke
Basis function cutoff            BFCut       ... 1.0000e-11
Integration weight cutoff        WCut        ... 1.0000e-14
Angular grids for H and He will be reduced by one unit
Partially contracted basis set               ... on
Rotationally invariant grid construction     ... off

Total number of grid points                  ...    18469
Total number of batches                      ...      310
Average number of points per batch           ...       59
Average number of grid points per atom       ...      560
UseSFitting                                  ... on

GRIDX 2
-------
General Integration Accuracy     IntAcc      ... 4.020
Radial Grid Type                 RadialGrid  ... OptM3 with GC (2021)
Angular Grid (max. ang.)         AngularGrid ... 2 (Lebedev-110)
Angular grid pruning method      GridPruning ... 4 (adaptive)
Weight generation scheme         WeightScheme... Becke
Basis function cutoff            BFCut       ... 1.0000e-11
Integration weight cutoff        WCut        ... 1.0000e-14
Angular grids for H and He will be reduced by one unit
Partially contracted basis set               ... on
Rotationally invariant grid construction     ... off

Total number of grid points                  ...    38956
Total number of batches                      ...      627
Average number of points per batch           ...       62
Average number of grid points per atom       ...     1180
UseSFitting                                  ... on

GRIDX 3
-------
General Integration Accuracy     IntAcc      ... 4.338
Radial Grid Type                 RadialGrid  ... OptM3 with GC (2021)
Angular Grid (max. ang.)         AngularGrid ... 3 (Lebedev-194)
Angular grid pruning method      GridPruning ... 4 (adaptive)
Weight generation scheme         WeightScheme... Becke
Basis function cutoff            BFCut       ... 1.0000e-11
Integration weight cutoff        WCut        ... 1.0000e-14
Angular grids for H and He will be reduced by one unit
Partially contracted basis set               ... on
Rotationally invariant grid construction     ... off

Total number of grid points                  ...    85015
Total number of batches                      ...     1344
Average number of points per batch           ...       63
Average number of grid points per atom       ...     2576
UseSFitting                                  ... on

Time for X-Grid setup             =    0.838 sec

--------------
SCF ITERATIONS
--------------
ITER       Energy         Delta-E        Max-DP      RMS-DP      [F,P]     Damp
               ***  Starting incremental Fock matrix formation  ***
  0   -668.3608703282   0.000000000000 0.03879647  0.00039826  0.1469868 0.7000
  1   -668.5489681395  -0.188097811391 0.04003779  0.00032263  0.0699016 0.7000
                               ***Turning on DIIS***
  2   -668.6321207919  -0.083152652366 0.08609177  0.00065564  0.0254065 0.0000
  3   -668.7653944749  -0.133273682973 0.01472068  0.00020984  0.0347654 0.0000
  4   -668.7899445331  -0.024550058212 0.00482528  0.00006419  0.0065098 0.0000
  5   -668.7909594508  -0.001014917686 0.00243918  0.00002771  0.0032196 0.0000
  6   -668.7911683107  -0.000208859933 0.00267891  0.00003048  0.0008264 0.0000
               *** Restarting incremental Fock matrix formation ***
                                   *** Resetting DIIS ***
  7   -668.7913392289  -0.000170918193 0.00126451  0.00001383  0.0018344 0.0000
  8   -668.7913660069  -0.000026777950 0.00049660  0.00000499  0.0014169 0.0000
  9   -668.7913947423  -0.000028735440 0.00098627  0.00001239  0.0002911 0.0000
 10   -668.7914124226  -0.000017680322 0.00046961  0.00000435  0.0008914 0.0000
 11   -668.7914217890  -0.000009366384 0.00089903  0.00000761  0.0005808 0.0000
 12   -668.7914304228  -0.000008633813 0.00052442  0.00000417  0.0003580 0.0000
 13   -668.7914330238  -0.000002600955 0.00044255  0.00000372  0.0001884 0.0000
 14   -668.7914343987  -0.000001374948 0.00044975  0.00000377  0.0001481 0.0000
 15   -668.7914350745  -0.000000675817 0.00012933  0.00000114  0.0000381 0.0000
 16   -668.7914351484  -0.000000073824 0.00002995  0.00000035  0.0000278 0.0000
 17   -668.7914351528  -0.000000004424 0.00005322  0.00000064  0.0000194 0.0000
 18   -668.7914351702  -0.000000017400 0.00001821  0.00000020  0.0000059 0.0000
 19   -668.7914351883  -0.000000018069 0.00000800  0.00000011  0.0000059 0.0000
 20   -668.7914351823   0.000000005909 0.00001146  0.00000011  0.0000042 0.0000
                 **** Energy Check signals convergence ****

               *****************************************************
               *                     SUCCESS                       *
               *           SCF CONVERGED AFTER  21 CYCLES          *
               *****************************************************

Old exchange energy                            =    -48.255595265 Eh
New exchange energy                            =    -48.255623366 Eh
Exchange energy change after final integration =     -0.000028102 Eh
Total energy after final integration           =   -668.791463288 Eh
Final COS-X integration done in                =     4.830 sec

----------------
TOTAL SCF ENERGY
----------------

Total Energy       :         -668.79146329 Eh          -18198.74092 eV

Components:
Nuclear Repulsion  :          931.33908555 Eh           25343.02493 eV
Electronic Energy  :        -1600.13054884 Eh          -43541.76585 eV
One Electron Energy:        -2741.90196477 Eh          -74610.94561 eV
Two Electron Energy:         1141.77141593 Eh           31069.17975 eV
Max COSX asymmetry :            0.00000093 Eh               0.00003 eV

Virial components:
Potential Energy   :        -1333.91106883 Eh          -36297.56552 eV
Kinetic Energy     :          665.11960554 Eh           18098.82459 eV
Virial Ratio       :            2.00552060


DFT components:
N(Alpha)           :       55.000065454875 electrons
N(Beta)            :       54.000066402332 electrons
N(Total)           :      109.000131857207 electrons
E(XC)              :      -45.038219677274 Eh       
DFET-embed. en.    :        0.000000000000 Eh       

---------------
SCF CONVERGENCE
---------------

  Last Energy change         ...   -3.7338e-09  Tolerance :   1.0000e-08
  Last MAX-Density change    ...    0.0000e+00  Tolerance :   1.0000e-07
  Last RMS-Density change    ...    0.0000e+00  Tolerance :   5.0000e-09
  Last DIIS Error            ...    2.2192e-06  Tolerance :   5.0000e-07

             **** THE GBW FILE WAS UPDATED (freq.gbw) ****
             **** DENSITY freq.scfp WAS UPDATED ****
             **** ENERGY FILE WAS UPDATED (freq.en.tmp) ****
----------------------
UHF SPIN CONTAMINATION
----------------------

Warning: in a DFT calculation there is little theoretical justification to 
         calculate <S**2> as in Hartree-Fock theory. We will do it anyways
         but you should keep in mind that the values have only limited relevance

Expectation value of <S**2>     :     0.756892
Ideal value S*(S+1) for S=0.5   :     0.750000
Deviation                       :     0.006892

             **** THE GBW FILE WAS UPDATED (freq.gbw) ****
             **** DENSITY freq.scfp WAS UPDATED ****
----------------
ORBITAL ENERGIES
----------------
                 SPIN UP ORBITALS
  NO   OCC          E(Eh)            E(eV) 
   0   1.0000     -19.714191      -536.4504 
   1   1.0000     -19.707584      -536.2706 
   2   1.0000     -15.011872      -408.4938 
   3   1.0000     -14.898158      -405.3995 
   4   1.0000     -14.895485      -405.3267 
   5   1.0000     -10.767533      -292.9995 
   6   1.0000     -10.766122      -292.9611 
   7   1.0000     -10.758118      -292.7433 
   8   1.0000     -10.721179      -291.7381 
   9   1.0000     -10.720316      -291.7146 
  10   1.0000     -10.688128      -290.8387 
  11   1.0000     -10.681830      -290.6674 
  12   1.0000     -10.670870      -290.3691 
  13   1.0000     -10.639698      -289.5209 
  14   1.0000      -1.280268       -34.8379 
  15   1.0000      -1.268546       -34.5189 
  16   1.0000      -1.245414       -33.8894 
  17   1.0000      -1.152933       -31.3729 
  18   1.0000      -1.147769       -31.2324 
  19   1.0000      -1.060483       -28.8572 
  20   1.0000      -1.003314       -27.3016 
  21   1.0000      -0.956572       -26.0296 
  22   1.0000      -0.926694       -25.2166 
  23   1.0000      -0.902525       -24.5590 
  24   1.0000      -0.862999       -23.4834 
  25   1.0000      -0.827801       -22.5256 
  26   1.0000      -0.826740       -22.4967 
  27   1.0000      -0.786755       -21.4087 
  28   1.0000      -0.774861       -21.0850 
  29   1.0000      -0.739432       -20.1210 
  30   1.0000      -0.730177       -19.8691 
  31   1.0000      -0.703724       -19.1493 
  32   1.0000      -0.690819       -18.7981 
  33   1.0000      -0.676462       -18.4075 
  34   1.0000      -0.657218       -17.8838 
  35   1.0000      -0.650895       -17.7117 
  36   1.0000      -0.649137       -17.6639 
  37   1.0000      -0.636415       -17.3177 
  38   1.0000      -0.625310       -17.0156 
  39   1.0000      -0.613742       -16.7008 
  40   1.0000      -0.597600       -16.2615 
  41   1.0000      -0.590840       -16.0776 
  42   1.0000      -0.583912       -15.8891 
  43   1.0000      -0.579880       -15.7793 
  44   1.0000      -0.564197       -15.3526 
  45   1.0000      -0.561660       -15.2835 
  46   1.0000      -0.558167       -15.1885 
  47   1.0000      -0.551631       -15.0106 
  48   1.0000      -0.545483       -14.8433 
  49   1.0000      -0.538102       -14.6425 
  50   1.0000      -0.518052       -14.0969 
  51   1.0000      -0.461241       -12.5510 
  52   1.0000      -0.445826       -12.1315 
  53   1.0000      -0.444431       -12.0936 
  54   1.0000      -0.431113       -11.7312 
  55   0.0000      -0.109054        -2.9675 
  56   0.0000      -0.070062        -1.9065 
  57   0.0000      -0.065449        -1.7810 
  58   0.0000      -0.063698        -1.7333 
  59   0.0000      -0.051344        -1.3972 
  60   0.0000      -0.045939        -1.2501 
  61   0.0000      -0.034687        -0.9439 
  62   0.0000      -0.030062        -0.8180 
  63   0.0000      -0.011420        -0.3108 
  64   0.0000       0.001805         0.0491 
  65   0.0000       0.005578         0.1518 
  66   0.0000       0.006700         0.1823 
  67   0.0000       0.014225         0.3871 
  68   0.0000       0.019280         0.5246 
  69   0.0000       0.026179         0.7124 
  70   0.0000       0.030274         0.8238 
  71   0.0000       0.032299         0.8789 
  72   0.0000       0.043929         1.1954 
  73   0.0000       0.059480         1.6185 
  74   0.0000       0.060799         1.6544 
  75   0.0000       0.061836         1.6826 
  76   0.0000       0.065968         1.7951 
  77   0.0000       0.069818         1.8998 
  78   0.0000       0.077630         2.1124 
  79   0.0000       0.078212         2.1282 
  80   0.0000       0.082096         2.2339 
  81   0.0000       0.095613         2.6018 
  82   0.0000       0.108809         2.9609 
  83   0.0000       0.110972         3.0197 
  84   0.0000       0.121934         3.3180 
  85   0.0000       0.123862         3.3705 
  86   0.0000       0.132885         3.6160 
  87   0.0000       0.140757         3.8302 
  88   0.0000       0.145971         3.9721 
  89   0.0000       0.153944         4.1890 
  90   0.0000       0.155148         4.2218 
  91   0.0000       0.161125         4.3844 
  92   0.0000       0.164821         4.4850 
  93   0.0000       0.173728         4.7274 
  94   0.0000       0.181154         4.9294 
  95   0.0000       0.185374         5.0443 
  96   0.0000       0.191467         5.2101 
  97   0.0000       0.206217         5.6114 
  98   0.0000       0.213039         5.7971 
  99   0.0000       0.220843         6.0094 
 100   0.0000       0.225232         6.1289 
 101   0.0000       0.230988         6.2855 
 102   0.0000       0.239285         6.5113 
 103   0.0000       0.250918         6.8278 
 104   0.0000       0.265039         7.2121 
 105   0.0000       0.265691         7.2298 
 106   0.0000       0.275211         7.4889 
 107   0.0000       0.285907         7.7799 
 108   0.0000       0.291550         7.9335 
 109   0.0000       0.298379         8.1193 
 110   0.0000       0.301717         8.2101 
 111   0.0000       0.311977         8.4893 
 112   0.0000       0.318240         8.6597 
 113   0.0000       0.324837         8.8393 
 114   0.0000       0.327728         8.9179 
 115   0.0000       0.331392         9.0176 
 116   0.0000       0.335198         9.1212 
 117   0.0000       0.341916         9.3040 
 118   0.0000       0.344521         9.3749 
 119   0.0000       0.347208         9.4480 
 120   0.0000       0.354030         9.6336 
 121   0.0000       0.356716         9.7067 
 122   0.0000       0.358793         9.7632 
 123   0.0000       0.361228         9.8295 
 124   0.0000       0.373377        10.1601 
 125   0.0000       0.374557        10.1922 
 126   0.0000       0.380961        10.3665 
 127   0.0000       0.390761        10.6332 
 128   0.0000       0.398669        10.8483 
 129   0.0000       0.402794        10.9606 
 130   0.0000       0.403632        10.9834 
 131   0.0000       0.409786        11.1508 
 132   0.0000       0.412661        11.2291 
 133   0.0000       0.419655        11.4194 
 134   0.0000       0.428134        11.6501 
 135   0.0000       0.435876        11.8608 
 136   0.0000       0.444767        12.1027 
 137   0.0000       0.456766        12.4292 
 138   0.0000       0.464876        12.6499 
 139   0.0000       0.469120        12.7654 
 140   0.0000       0.480061        13.0631 
 141   0.0000       0.483058        13.1447 
 142   0.0000       0.486872        13.2485 
 143   0.0000       0.492646        13.4056 
 144   0.0000       0.494307        13.4508 
 145   0.0000       0.505185        13.7468 
 146   0.0000       0.519394        14.1334 
 147   0.0000       0.530179        14.4269 
 148   0.0000       0.534310        14.5393 
 149   0.0000       0.540317        14.7028 
 150   0.0000       0.545265        14.8374 
 151   0.0000       0.558378        15.1943 
 152   0.0000       0.573392        15.6028 
 153   0.0000       0.584255        15.8984 
 154   0.0000       0.599339        16.3088 
 155   0.0000       0.608773        16.5656 
 156   0.0000       0.622663        16.9435 
 157   0.0000       0.635288        17.2871 
 158   0.0000       0.645165        17.5558 
 159   0.0000       0.663912        18.0660 
 160   0.0000       0.676324        18.4037 
 161   0.0000       0.687641        18.7117 
 162   0.0000       0.692025        18.8310 
 163   0.0000       0.706586        19.2272 
 164   0.0000       0.711274        19.3547 
 165   0.0000       0.718980        19.5644 
 166   0.0000       0.722883        19.6707 
 167   0.0000       0.730965        19.8906 
 168   0.0000       0.756919        20.5968 
 169   0.0000       0.760155        20.6849 
 170   0.0000       0.775101        21.0916 
 171   0.0000       0.782202        21.2848 
 172   0.0000       0.787590        21.4314 
 173   0.0000       0.802547        21.8384 
 174   0.0000       0.824213        22.4280 
 175   0.0000       0.839042        22.8315 
 176   0.0000       0.854808        23.2605 
 177   0.0000       0.858799        23.3691 
 178   0.0000       0.872523        23.7426 
 179   0.0000       0.882369        24.0105 
 180   0.0000       0.899578        24.4788 
 181   0.0000       0.902534        24.5592 
 182   0.0000       0.905946        24.6521 
 183   0.0000       0.923173        25.1208 
 184   0.0000       0.933853        25.4114 
 185   0.0000       0.958607        26.0850 
 186   0.0000       0.963113        26.2076 
 187   0.0000       0.974337        26.5131 
 188   0.0000       0.981228        26.7006 
 189   0.0000       0.988825        26.9073 
 190   0.0000       0.996143        27.1064 
 191   0.0000       1.008223        27.4351 
 192   0.0000       1.012236        27.5443 
 193   0.0000       1.017872        27.6977 
 194   0.0000       1.026450        27.9311 
 195   0.0000       1.042986        28.3811 
 196   0.0000       1.061835        28.8940 
 197   0.0000       1.081275        29.4230 
 198   0.0000       1.095632        29.8137 
 199   0.0000       1.108005        30.1503 
 200   0.0000       1.114671        30.3317 
 201   0.0000       1.132182        30.8083 
 202   0.0000       1.146360        31.1941 
 203   0.0000       1.164054        31.6755 
 204   0.0000       1.175375        31.9836 
 205   0.0000       1.186269        32.2800 
 206   0.0000       1.206714        32.8364 
 207   0.0000       1.213413        33.0186 
 208   0.0000       1.218798        33.1652 
 209   0.0000       1.236353        33.6429 
 210   0.0000       1.248029        33.9606 
 211   0.0000       1.274797        34.6890 
 212   0.0000       1.282599        34.9013 
 213   0.0000       1.308950        35.6183 
 214   0.0000       1.320578        35.9348 
 215   0.0000       1.324114        36.0310 
 216   0.0000       1.342901        36.5422 
 217   0.0000       1.358105        36.9559 
 218   0.0000       1.364108        37.1193 
 219   0.0000       1.389750        37.8170 
 220   0.0000       1.394800        37.9544 
 221   0.0000       1.402790        38.1719 
 222   0.0000       1.420984        38.6669 
 223   0.0000       1.425726        38.7960 
 224   0.0000       1.429473        38.8979 
 225   0.0000       1.443823        39.2884 
 226   0.0000       1.448747        39.4224 
 227   0.0000       1.458040        39.6753 
 228   0.0000       1.463926        39.8354 
 229   0.0000       1.469965        39.9998 
 230   0.0000       1.476756        40.1846 
 231   0.0000       1.483218        40.3604 
 232   0.0000       1.491349        40.5817 
 233   0.0000       1.494439        40.6657 
 234   0.0000       1.502198        40.8769 
 235   0.0000       1.518685        41.3255 
 236   0.0000       1.525766        41.5182 
 237   0.0000       1.529401        41.6171 
 238   0.0000       1.536564        41.8120 
 239   0.0000       1.551093        42.2074 
 240   0.0000       1.558047        42.3966 
 241   0.0000       1.570015        42.7223 
 242   0.0000       1.575429        42.8696 
 243   0.0000       1.591670        43.3115 
 244   0.0000       1.613140        43.8958 
 245   0.0000       1.618235        44.0344 
 246   0.0000       1.622891        44.1611 
 247   0.0000       1.642029        44.6819 
 248   0.0000       1.655669        45.0530 
 249   0.0000       1.672542        45.5122 
 250   0.0000       1.676442        45.6183 
 251   0.0000       1.687912        45.9304 
 252   0.0000       1.703365        46.3509 
 253   0.0000       1.706677        46.4410 
 254   0.0000       1.715340        46.6768 
 255   0.0000       1.724441        46.9244 
 256   0.0000       1.733265        47.1645 
 257   0.0000       1.745147        47.4879 
 258   0.0000       1.748724        47.5852 
 259   0.0000       1.764964        48.0271 
 260   0.0000       1.770388        48.1747 
 261   0.0000       1.783715        48.5374 
 262   0.0000       1.784541        48.5598 
 263   0.0000       1.794457        48.8296 
 264   0.0000       1.797109        48.9018 
 265   0.0000       1.807997        49.1981 
 266   0.0000       1.813123        49.3376 
 267   0.0000       1.828845        49.7654 
 268   0.0000       1.843289        50.1584 
 269   0.0000       1.858399        50.5696 
 270   0.0000       1.871299        50.9206 
 271   0.0000       1.877469        51.0885 
 272   0.0000       1.894794        51.5600 
 273   0.0000       1.902740        51.7762 
 274   0.0000       1.917695        52.1831 
 275   0.0000       1.938856        52.7590 
 276   0.0000       1.956067        53.2273 
 277   0.0000       1.957923        53.2778 
 278   0.0000       1.975521        53.7567 
 279   0.0000       2.000961        54.4489 
 280   0.0000       2.010427        54.7065 
 281   0.0000       2.014902        54.8283 
 282   0.0000       2.038908        55.4815 
 283   0.0000       2.059059        56.0299 
 284   0.0000       2.067144        56.2498 
 285   0.0000       2.075291        56.4715 
 286   0.0000       2.088939        56.8429 
 287   0.0000       2.107585        57.3503 
 288   0.0000       2.118989        57.6606 
 289   0.0000       2.129876        57.9569 
 290   0.0000       2.141052        58.2610 
 291   0.0000       2.153193        58.5914 
 292   0.0000       2.159984        58.7762 
 293   0.0000       2.173258        59.1373 
 294   0.0000       2.179572        59.3092 
 295   0.0000       2.187836        59.5341 
 296   0.0000       2.201188        59.8974 
 297   0.0000       2.206538        60.0429 
 298   0.0000       2.230386        60.6919 
 299   0.0000       2.234797        60.8119 
 300   0.0000       2.258758        61.4639 
 301   0.0000       2.261734        61.5449 
 302   0.0000       2.268483        61.7286 
 303   0.0000       2.277044        61.9615 
 304   0.0000       2.279104        62.0176 
 305   0.0000       2.284699        62.1698 
 306   0.0000       2.288246        62.2663 
 307   0.0000       2.315776        63.0155 
 308   0.0000       2.319548        63.1181 
 309   0.0000       2.328182        63.3530 
 310   0.0000       2.335349        63.5481 
 311   0.0000       2.348787        63.9137 
 312   0.0000       2.372500        64.5590 
 313   0.0000       2.383720        64.8643 
 314   0.0000       2.389381        65.0184 
 315   0.0000       2.391884        65.0865 
 316   0.0000       2.406750        65.4910 
 317   0.0000       2.411405        65.6177 
 318   0.0000       2.425270        65.9949 
 319   0.0000       2.432905        66.2027 
 320   0.0000       2.443862        66.5009 
 321   0.0000       2.451432        66.7069 
 322   0.0000       2.466972        67.1297 
 323   0.0000       2.468861        67.1811 
 324   0.0000       2.478516        67.4438 
 325   0.0000       2.480277        67.4918 
 326   0.0000       2.493711        67.8573 
 327   0.0000       2.497651        67.9645 
 328   0.0000       2.513577        68.3979 
 329   0.0000       2.520396        68.5834 
 330   0.0000       2.525028        68.7095 
 331   0.0000       2.533139        68.9302 
 332   0.0000       2.539942        69.1153 
 333   0.0000       2.550654        69.4068 
 334   0.0000       2.563300        69.7509 
 335   0.0000       2.572918        70.0126 
 336   0.0000       2.583869        70.3106 
 337   0.0000       2.596007        70.6409 
 338   0.0000       2.602597        70.8203 
 339   0.0000       2.613588        71.1193 
 340   0.0000       2.623130        71.3790 
 341   0.0000       2.633893        71.6719 
 342   0.0000       2.647254        72.0355 
 343   0.0000       2.652800        72.1863 
 344   0.0000       2.663901        72.4884 
 345   0.0000       2.690320        73.2073 
 346   0.0000       2.702087        73.5275 
 347   0.0000       2.717935        73.9588 
 348   0.0000       2.728681        74.2512 
 349   0.0000       2.773267        75.4644 
 350   0.0000       2.793602        76.0178 
 351   0.0000       2.806006        76.3553 
 352   0.0000       2.807486        76.3956 
 353   0.0000       2.839833        77.2758 
 354   0.0000       2.841083        77.3098 
 355   0.0000       2.859921        77.8224 
 356   0.0000       2.863067        77.9080 
 357   0.0000       2.884209        78.4833 
 358   0.0000       2.894015        78.7501 
 359   0.0000       2.902595        78.9836 
 360   0.0000       2.907071        79.1054 
 361   0.0000       2.912446        79.2517 
 362   0.0000       2.939045        79.9755 
 363   0.0000       2.955354        80.4193 
 364   0.0000       2.959240        80.5250 
 365   0.0000       2.969978        80.8172 
 366   0.0000       2.979371        81.0728 
 367   0.0000       2.986371        81.2633 
 368   0.0000       2.999913        81.6318 
 369   0.0000       3.013961        82.0140 
 370   0.0000       3.017865        82.1203 
 371   0.0000       3.022573        82.2484 
 372   0.0000       3.040262        82.7297 
 373   0.0000       3.046761        82.9066 
 374   0.0000       3.056427        83.1696 
 375   0.0000       3.062299        83.3294 
 376   0.0000       3.072553        83.6084 
 377   0.0000       3.091437        84.1223 
 378   0.0000       3.101155        84.3867 
 379   0.0000       3.102657        84.4276 
 380   0.0000       3.113313        84.7176 
 381   0.0000       3.120454        84.9119 
 382   0.0000       3.126813        85.0849 
 383   0.0000       3.145342        85.5891 
 384   0.0000       3.153025        85.7982 
 385   0.0000       3.159123        85.9641 
 386   0.0000       3.165423        86.1355 
 387   0.0000       3.177106        86.4534 
 388   0.0000       3.180737        86.5523 
 389   0.0000       3.194425        86.9247 
 390   0.0000       3.210098        87.3512 
 391   0.0000       3.211792        87.3973 
 392   0.0000       3.213422        87.4417 
 393   0.0000       3.222597        87.6913 
 394   0.0000       3.238476        88.1234 
 395   0.0000       3.245839        88.3238 
 396   0.0000       3.256889        88.6244 
 397   0.0000       3.269181        88.9589 
 398   0.0000       3.274887        89.1142 
 399   0.0000       3.291538        89.5673 
 400   0.0000       3.304233        89.9127 
 401   0.0000       3.315640        90.2231 
 402   0.0000       3.318091        90.2899 
 403   0.0000       3.327456        90.5447 
 404   0.0000       3.331052        90.6425 
 405   0.0000       3.340568        90.9015 
 406   0.0000       3.348862        91.1272 
 407   0.0000       3.356834        91.3441 
 408   0.0000       3.369022        91.6757 
 409   0.0000       3.375695        91.8573 
 410   0.0000       3.388751        92.2126 
 411   0.0000       3.406040        92.6831 
 412   0.0000       3.420003        93.0630 
 413   0.0000       3.425641        93.2164 
 414   0.0000       3.440434        93.6190 
 415   0.0000       3.448342        93.8342 
 416   0.0000       3.460195        94.1567 
 417   0.0000       3.483330        94.7862 
 418   0.0000       3.496133        95.1346 
 419   0.0000       3.512427        95.5780 
 420   0.0000       3.539655        96.3189 
 421   0.0000       3.571269        97.1792 
 422   0.0000       3.589696        97.6806 
 423   0.0000       3.597992        97.9064 
 424   0.0000       3.608201        98.1841 
 425   0.0000       3.621494        98.5459 
 426   0.0000       3.644631        99.1755 
 427   0.0000       3.667576        99.7998 
 428   0.0000       3.677678       100.0747 
 429   0.0000       3.683496       100.2330 
 430   0.0000       3.693458       100.5041 
 431   0.0000       3.712272       101.0161 
 432   0.0000       3.722383       101.2912 
 433   0.0000       3.739516       101.7574 
 434   0.0000       3.751233       102.0762 
 435   0.0000       3.773451       102.6808 
 436   0.0000       3.782114       102.9166 
 437   0.0000       3.793897       103.2372 
 438   0.0000       3.820812       103.9696 
 439   0.0000       3.839679       104.4830 
 440   0.0000       3.862066       105.0922 
 441   0.0000       3.895240       105.9949 
 442   0.0000       3.906012       106.2880 
 443   0.0000       3.920137       106.6723 
 444   0.0000       3.964335       107.8751 
 445   0.0000       3.972454       108.0960 
 446   0.0000       4.001615       108.8895 
 447   0.0000       4.004218       108.9603 
 448   0.0000       4.034054       109.7722 
 449   0.0000       4.050213       110.2119 
 450   0.0000       4.060210       110.4839 
 451   0.0000       4.070204       110.7559 
 452   0.0000       4.125247       112.2537 
 453   0.0000       4.128022       112.3292 
 454   0.0000       4.155102       113.0661 
 455   0.0000       4.202052       114.3437 
 456   0.0000       4.223109       114.9166 
 457   0.0000       4.241976       115.4300 
 458   0.0000       4.249385       115.6316 
 459   0.0000       4.263217       116.0080 
 460   0.0000       4.269942       116.1910 
 461   0.0000       4.290648       116.7545 
 462   0.0000       4.312510       117.3493 
 463   0.0000       4.325885       117.7133 
 464   0.0000       4.354594       118.4945 
 465   0.0000       4.376057       119.0786 
 466   0.0000       4.385666       119.3400 
 467   0.0000       4.399383       119.7133 
 468   0.0000       4.416877       120.1893 
 469   0.0000       4.422680       120.3472 
 470   0.0000       4.457374       121.2913 
 471   0.0000       4.470140       121.6387 
 472   0.0000       4.477972       121.8518 
 473   0.0000       4.486603       122.0867 
 474   0.0000       4.507127       122.6452 
 475   0.0000       4.573908       124.4624 
 476   0.0000       4.585251       124.7710 
 477   0.0000       4.602392       125.2374 
 478   0.0000       4.616578       125.6235 
 479   0.0000       4.654039       126.6428 
 480   0.0000       4.668762       127.0435 
 481   0.0000       4.680840       127.3721 
 482   0.0000       4.734500       128.8323 
 483   0.0000       4.794953       130.4773 
 484   0.0000       4.795944       130.5043 
 485   0.0000       4.828305       131.3849 
 486   0.0000       4.864272       132.3636 
 487   0.0000       4.873269       132.6084 
 488   0.0000       4.893798       133.1670 
 489   0.0000       4.907163       133.5307 
 490   0.0000       4.920776       133.9011 
 491   0.0000       4.936335       134.3245 
 492   0.0000       4.967579       135.1747 
 493   0.0000       4.989101       135.7603 
 494   0.0000       4.999116       136.0329 
 495   0.0000       5.026176       136.7692 
 496   0.0000       5.038175       137.0957 
 497   0.0000       5.059348       137.6719 
 498   0.0000       5.085192       138.3751 
 499   0.0000       5.100469       138.7908 
 500   0.0000       5.109885       139.0471 
 501   0.0000       5.157987       140.3560 
 502   0.0000       5.167486       140.6144 
 503   0.0000       5.183854       141.0598 
 504   0.0000       5.193171       141.3134 
 505   0.0000       5.250064       142.8615 
 506   0.0000       5.300737       144.2404 
 507   0.0000       5.324254       144.8803 
 508   0.0000       5.363708       145.9539 
 509   0.0000       5.410309       147.2220 
 510   0.0000       5.466500       148.7510 
 511   0.0000       5.533863       150.5841 
 512   0.0000       5.561107       151.3254 
 513   0.0000       5.612912       152.7351 
 514   0.0000       5.638437       153.4297 
 515   0.0000       5.655951       153.9063 
 516   0.0000       5.774478       157.1315 
 517   0.0000       5.785724       157.4375 
 518   0.0000       5.975000       162.5880 
 519   0.0000       6.006519       163.4457 
 520   0.0000       6.186713       168.3490 
 521   0.0000       6.196267       168.6090 
 522   0.0000       6.313391       171.7961 
 523   0.0000       6.339151       172.4971 
 524   0.0000       6.436845       175.1555 
 525   0.0000       6.445162       175.3818 
 526   0.0000       6.538192       177.9133 
 527   0.0000       6.547812       178.1750 
 528   0.0000       6.718199       182.8115 
 529   0.0000       6.732895       183.2114 
 530   0.0000       6.935202       188.7164 
 531   0.0000       6.963050       189.4742 
 532   0.0000       6.965727       189.5471 
 533   0.0000       6.989051       190.1818 
 534   0.0000      22.292239       606.6027 
 535   0.0000      22.310525       607.1003 
 536   0.0000      22.366246       608.6165 
 537   0.0000      22.374534       608.8420 
 538   0.0000      22.438133       610.5726 
 539   0.0000      22.508430       612.4855 
 540   0.0000      22.687376       617.3549 
 541   0.0000      23.210141       631.5800 
 542   0.0000      23.292371       633.8176 
 543   0.0000      31.814719       865.7225 
 544   0.0000      32.380766       881.1254 
 545   0.0000      32.549046       885.7046 
 546   0.0000      43.944121      1195.7803 
 547   0.0000      44.027610      1198.0522 

                 SPIN DOWN ORBITALS
  NO   OCC          E(Eh)            E(eV) 
   0   1.0000     -19.714074      -536.4472 
   1   1.0000     -19.706640      -536.2449 
   2   1.0000     -15.003362      -408.2622 
   3   1.0000     -14.896422      -405.3522 
   4   1.0000     -14.895220      -405.3195 
   5   1.0000     -10.767355      -292.9946 
[...]
     47       0.000122  -0.000003   0.000844
     48       0.000031   0.000004   0.000134
     49      -0.000028   0.000007  -0.000776
     50      -0.000315   0.000005   0.000488
     51      -0.000628   0.000063  -0.003480
     52      -0.000014  -0.000032   0.000220
     53      -0.000104   0.000017  -0.001447
     54       0.000363  -0.000017  -0.005054
     55      -0.000046  -0.000035   0.008392
     56       0.000111  -0.000008   0.009299
     57      -0.000027   0.000005  -0.000002
     58       0.000165   0.000021  -0.000007
     59       0.000189  -0.000003  -0.000011
     60      -0.000113   0.000036  -0.000023
     61       0.000030   0.000043   0.000019
     62       0.000077   0.000035  -0.000048
     63      -0.000040   0.000005  -0.000032
     64      -0.000353  -0.000025   0.000005
     65      -0.000070  -0.000000   0.000003
     66       0.000445   0.000013   0.000053
     67      -0.001433   0.000025   0.000001
     68      -0.004020  -0.000033   0.000046
     69       0.005859   0.000027  -0.002414
     70      -0.006007  -0.000045   0.002188
     71      -0.002046  -0.000083   0.000725
     72       0.001162   0.000141  -0.000363
     73      -0.000163  -0.000073   0.000419
     74       0.000004   0.000010   0.000290
     75      -0.000374  -0.000011  -0.000155
     76      -0.001014   0.000005   0.000173
     77       0.000980   0.000053  -0.000493
     78       0.000591   0.000175  -0.000143
     79       0.000554   0.000195  -0.000279
     80       0.000400   0.000379  -0.000134
     81      -0.000223   0.000267   0.000130
     82      -0.000512  -0.000190  -0.000019
     83      -0.000293  -0.000015   0.000003
     84       0.000001   0.001017   0.000080
     85       0.000144   0.000764   0.000021
     86      -0.000049   0.000001  -0.000019
     87      -0.000003   0.000471   0.000029
     88      -0.000358  -0.000712   0.000063
     89      -0.000329   0.000671  -0.000046
     90      -0.000756  -0.007405  -0.000171
     91       0.000302   0.001815  -0.000021
     92       0.000799  -0.013142   0.000040
     93      -0.000296  -0.015207  -0.000029
     94       0.000267  -0.001921  -0.000027
     95       0.000955   0.002818   0.000154
     96       0.026587  -0.422022   0.001773
     97      -0.013569   0.216650  -0.000931
     98       0.031671  -0.517875   0.002047


-----------
IR SPECTRUM
-----------

 Mode   freq       eps      Int      T**2         TX        TY        TZ
       cm**-1   L/(mol*cm) km/mol    a.u.
----------------------------------------------------------------------------
  6:     29.51   0.001146    5.79  0.012118  (-0.082936 -0.056643 -0.045065)
  7:     41.59   0.000192    0.97  0.001443  ( 0.029727  0.011246 -0.020803)
  8:     64.05   0.000408    2.06  0.001988  ( 0.034091 -0.012555 -0.025839)
  9:     72.28   0.000388    1.96  0.001676  (-0.015620 -0.016200  0.034205)
 10:     86.35   0.003249   16.42  0.011741  (-0.002703 -0.102641  0.034616)
 11:     90.50   0.000085    0.43  0.000292  (-0.001050  0.016913 -0.002164)
 12:    100.59   0.001030    5.20  0.003195  (-0.020492  0.026221 -0.045688)
 13:    107.09   0.000122    0.62  0.000355  (-0.000059  0.016418 -0.009249)
 14:    127.56   0.001471    7.43  0.003598  ( 0.035248  0.034926  0.033703)
 15:    153.67   0.000206    1.04  0.000419  ( 0.007155 -0.004147  0.018731)
 16:    156.44   0.000626    3.17  0.001249  ( 0.026038 -0.008581  0.022310)
 17:    186.98   0.002216   11.20  0.003698  (-0.031537 -0.051983 -0.001045)
 18:    209.82   0.000219    1.11  0.000326  ( 0.016825 -0.001792  0.006303)
 19:    253.99   0.000581    2.94  0.000714  ( 0.020708 -0.002542  0.016686)
 20:    291.56   0.001100    5.56  0.001177  (-0.026895  0.017562 -0.012048)
 21:    309.56   0.002760   13.95  0.002782  (-0.027470 -0.042826  0.013902)
 22:    353.91   0.001360    6.87  0.001199  ( 0.019371  0.027688  0.007566)
 23:    356.27   0.000080    0.40  0.000070  (-0.004301 -0.001398  0.007013)
 24:    366.88   0.000663    3.35  0.000564  (-0.016764  0.010407  0.013210)
 25:    382.42   0.004081   20.63  0.003330  ( 0.028570 -0.027505  0.041924)
 26:    467.36   0.001818    9.19  0.001214  ( 0.032895  0.001143 -0.011422)
 27:    508.55   0.004798   24.25  0.002944  ( 0.022279  0.041993 -0.026163)
 28:    548.55   0.003521   17.79  0.002003  ( 0.026054  0.036372 -0.001183)
 29:    569.86   0.015840   80.05  0.008674  (-0.067185 -0.064315 -0.004917)
 30:    649.62   0.055110  278.50  0.026474  (-0.018094  0.156739  0.039739)
 31:    656.02   0.000387    1.95  0.000184  (-0.005368  0.002660 -0.012164)
 32:    660.80   0.002522   12.74  0.001191  (-0.022828 -0.020185 -0.016194)
 33:    699.62   0.046812  236.57  0.020880  (-0.031460 -0.139003 -0.023849)
 34:    712.44   0.003941   19.92  0.001726  (-0.017607 -0.036260 -0.010080)
 35:    758.62   0.001522    7.69  0.000626  (-0.017843 -0.016389 -0.006239)
 36:    795.68   0.017387   87.87  0.006819  ( 0.014681  0.079934 -0.014629)
 37:    824.70   0.010421   52.66  0.003943  ( 0.010435  0.059564 -0.016923)
 38:    886.74   0.001819    9.19  0.000640  ( 0.008947 -0.011619  0.020621)
 39:    889.95   0.004490   22.69  0.001574  (-0.019497 -0.034122 -0.005477)
 40:    935.16   0.003456   17.46  0.001153  (-0.013700  0.031040 -0.001383)
 41:    994.43   0.001348    6.81  0.000423  (-0.009662 -0.017463 -0.004983)
 42:    999.59   0.005057   25.56  0.001579  ( 0.005071  0.039405  0.000526)
 43:   1017.14   0.001951    9.86  0.000599  ( 0.008136  0.000875  0.023057)
 44:   1032.10   0.003055   15.44  0.000924  (-0.016615 -0.025409  0.001427)
 45:   1044.16   0.023942  120.99  0.007156  (-0.037385 -0.075868  0.001374)
 46:   1061.79   0.001053    5.32  0.000310  ( 0.007138  0.015743 -0.003284)
 47:   1073.20   0.001739    8.79  0.000506  (-0.021716 -0.005201  0.002636)
 48:   1121.98   0.030566  154.47  0.008501  (-0.029291 -0.085371  0.018849)
 49:   1140.10   0.003302   16.69  0.000904  (-0.021580 -0.020595  0.003746)
 50:   1158.84   0.034786  175.80  0.009368  ( 0.004144  0.094519 -0.020412)
 51:   1167.58   0.247839  1252.48  0.066241  (-0.081803 -0.242464  0.027577)
 52:   1185.92   0.025817  130.47  0.006793  (-0.036103 -0.074050  0.002563)
 53:   1190.70   0.002936   14.84  0.000769  (-0.021856  0.010390 -0.013556)
 54:   1233.13   0.005101   25.78  0.001291  ( 0.029179  0.012798  0.016601)
 55:   1250.16   0.003487   17.62  0.000871  (-0.012786 -0.020308 -0.017166)
 56:   1252.83   0.010246   51.78  0.002552  ( 0.036345  0.028779  0.020076)
 57:   1262.00   0.096795  489.16  0.023935  (-0.049468 -0.146305  0.009105)
 58:   1279.29   0.003213   16.24  0.000784  ( 0.018653  0.012540  0.016690)
 59:   1292.62   0.010330   52.20  0.002494  (-0.018357 -0.043338 -0.016693)
 60:   1311.35   0.000894    4.52  0.000213  (-0.011823 -0.004221 -0.007424)
 61:   1343.97   0.003673   18.56  0.000853  (-0.016597 -0.023478 -0.005108)
 62:   1350.39   0.000413    2.09  0.000095  (-0.003433 -0.009093 -0.000943)
 63:   1368.99   0.001622    8.20  0.000370  ( 0.002445 -0.001122  0.019041)
 64:   1383.00   0.009497   47.99  0.002143  (-0.026908 -0.020264 -0.031753)
 65:   1407.38   0.020567  103.94  0.004560  (-0.050668 -0.039485 -0.020836)
 66:   1457.09   0.006092   30.79  0.001305  (-0.013501  0.033199  0.004509)
 67:   1470.01   0.007853   39.68  0.001667  (-0.016366 -0.010550 -0.035887)
 68:   1484.05   0.004412   22.29  0.000928  (-0.012178 -0.027812  0.002422)
 69:   1485.91   0.000657    3.32  0.000138  (-0.001409  0.000624  0.011646)
 70:   1489.93   0.007755   39.19  0.001624  ( 0.016848  0.029195  0.022095)
 71:   1494.40   0.033144  167.49  0.006921  (-0.034942 -0.075270  0.005883)
 72:   1499.14   0.010261   51.86  0.002136  (-0.033767 -0.009024 -0.030238)
 73:   1502.72   0.011003   55.60  0.002285  ( 0.030591  0.027942 -0.023839)
 74:   1512.00   0.009559   48.31  0.001973  (-0.023066 -0.005092 -0.037615)
 75:   1527.40   0.132431  669.25  0.027057  ( 0.117714  0.098740  0.058744)
 76:   1589.59   0.050263  254.01  0.009868  ( 0.049692 -0.071044  0.048487)
 77:   1655.40   0.011308   57.15  0.002132  (-0.015393 -0.030711  0.030849)
 78:   1780.36   0.076121  384.68  0.013343  ( 0.070849 -0.042853 -0.080540)
 79:   1793.14   0.019415   98.11  0.003379  (-0.056136 -0.014936 -0.002105)
 80:   3063.89   0.008895   44.95  0.000906  (-0.014595 -0.026324 -0.000236)
 81:   3080.94   0.001275    6.44  0.000129  ( 0.005630 -0.003426  0.009257)
 82:   3086.85   0.004311   21.79  0.000436  (-0.010352  0.010251 -0.014953)
 83:   3088.54   0.000343    1.73  0.000035  ( 0.000163 -0.004542 -0.003737)
 84:   3092.04   0.001354    6.84  0.000137  (-0.010104  0.005440  0.002223)
 85:   3105.11   0.000890    4.50  0.000089  ( 0.005069 -0.003644 -0.007104)
 86:   3113.25   0.000156    0.79  0.000016  ( 0.001856  0.003372 -0.000921)
 87:   3131.21   0.000086    0.43  0.000009  (-0.000109 -0.001682 -0.002384)
 88:   3149.09   0.003046   15.39  0.000302  (-0.004272  0.016293 -0.004256)
 89:   3161.90   0.000940    4.75  0.000093  ( 0.007924  0.005420 -0.000811)
 90:   3166.78   0.000682    3.45  0.000067  ( 0.006598  0.001840 -0.004501)
 91:   3175.34   0.000831    4.20  0.000082  (-0.005990  0.005497 -0.003946)
 92:   3193.04   0.000461    2.33  0.000045  (-0.000815  0.003620  0.005595)
 93:   3196.73   0.000061    0.31  0.000006  ( 0.001666 -0.001727  0.000396)
 94:   3199.94   0.000381    1.93  0.000037  ( 0.005394  0.001313  0.002525)
 95:   3508.60   0.479822  2424.83  0.042677  ( 0.055497  0.191465 -0.054201)
 96:   3601.44   0.046375  234.36  0.004018  ( 0.021493  0.040971 -0.043334)
 97:   3638.56   0.025086  126.77  0.002152  (-0.041961  0.002193 -0.019647)
 98:   3643.93   0.012986   65.63  0.001112  (-0.021551  0.023947  0.008614)

* The epsilon (eps) is given for a Dirac delta lineshape.
** The dipole moment derivative (T) already includes vibrational overlap.

The first frequency considered to be a vibration is 6
The total number of vibrations considered is 93


--------------------------
THERMOCHEMISTRY AT 298.15K
--------------------------

Temperature         ... 298.15 K
Pressure            ... 1.00 atm
Total Mass          ... 201.27 AMU

Throughout the following assumptions are being made:
  (1) The electronic state is orbitally nondegenerate
      but the spin degeneracy is treated
  (2) There are no thermally accessible electronically excited states
  (3) Hindered rotations indicated by low frequency modes are not
      treated as such but are treated as vibrations and this may
      cause some error
  (4) All equations used are the standard statistical mechanics
      equations for an ideal gas
  (5) All vibrations are strictly harmonic

freq.      29.51  E(vib)   ...       0.55 
freq.      41.59  E(vib)   ...       0.54 
freq.      64.05  E(vib)   ...       0.51 
freq.      72.28  E(vib)   ...       0.50 
freq.      86.35  E(vib)   ...       0.48 
freq.      90.50  E(vib)   ...       0.47 
freq.     100.59  E(vib)   ...       0.46 
freq.     107.09  E(vib)   ...       0.45 
freq.     127.56  E(vib)   ...       0.43 
freq.     153.67  E(vib)   ...       0.40 
freq.     156.44  E(vib)   ...       0.40 
freq.     186.98  E(vib)   ...       0.36 
freq.     209.82  E(vib)   ...       0.34 
freq.     253.99  E(vib)   ...       0.30 
freq.     291.56  E(vib)   ...       0.27 
freq.     309.56  E(vib)   ...       0.26 
freq.     353.91  E(vib)   ...       0.22 
freq.     356.27  E(vib)   ...       0.22 
freq.     366.88  E(vib)   ...       0.22 
freq.     382.42  E(vib)   ...       0.21 
freq.     467.36  E(vib)   ...       0.16 
freq.     508.55  E(vib)   ...       0.14 
freq.     548.55  E(vib)   ...       0.12 
freq.     569.86  E(vib)   ...       0.11 
freq.     649.62  E(vib)   ...       0.08 
freq.     656.02  E(vib)   ...       0.08 
freq.     660.80  E(vib)   ...       0.08 
freq.     699.62  E(vib)   ...       0.07 
freq.     712.44  E(vib)   ...       0.07 
freq.     758.62  E(vib)   ...       0.06 
freq.     795.68  E(vib)   ...       0.05 
freq.     824.70  E(vib)   ...       0.04 
freq.     886.74  E(vib)   ...       0.04 
freq.     889.95  E(vib)   ...       0.04 
freq.     935.16  E(vib)   ...       0.03 
freq.     994.43  E(vib)   ...       0.02 
freq.     999.59  E(vib)   ...       0.02 
freq.    1017.14  E(vib)   ...       0.02 
freq.    1032.10  E(vib)   ...       0.02 
freq.    1044.16  E(vib)   ...       0.02 
freq.    1061.79  E(vib)   ...       0.02 
freq.    1073.20  E(vib)   ...       0.02 
freq.    1121.98  E(vib)   ...       0.01 
freq.    1140.10  E(vib)   ...       0.01 
freq.    1158.84  E(vib)   ...       0.01 
freq.    1167.58  E(vib)   ...       0.01 
freq.    1185.92  E(vib)   ...       0.01 
freq.    1190.70  E(vib)   ...       0.01 
freq.    1233.13  E(vib)   ...       0.01 
freq.    1250.16  E(vib)   ...       0.01 
freq.    1252.83  E(vib)   ...       0.01 
freq.    1262.00  E(vib)   ...       0.01 
freq.    1279.29  E(vib)   ...       0.01 
freq.    1292.62  E(vib)   ...       0.01 
freq.    1311.35  E(vib)   ...       0.01 
freq.    1343.97  E(vib)   ...       0.01 
freq.    1350.39  E(vib)   ...       0.01 
freq.    1368.99  E(vib)   ...       0.01 
freq.    1383.00  E(vib)   ...       0.01 
freq.    1407.38  E(vib)   ...       0.00 
freq.    1457.09  E(vib)   ...       0.00 
freq.    1470.01  E(vib)   ...       0.00 
freq.    1484.05  E(vib)   ...       0.00 
freq.    1485.91  E(vib)   ...       0.00 
freq.    1489.93  E(vib)   ...       0.00 
freq.    1494.40  E(vib)   ...       0.00 
freq.    1499.14  E(vib)   ...       0.00 
freq.    1502.72  E(vib)   ...       0.00 
freq.    1512.00  E(vib)   ...       0.00 
freq.    1527.40  E(vib)   ...       0.00 
freq.    1589.59  E(vib)   ...       0.00 
freq.    1655.40  E(vib)   ...       0.00 
freq.    1780.36  E(vib)   ...       0.00 
freq.    1793.14  E(vib)   ...       0.00 
freq.    3063.89  E(vib)   ...       0.00 
freq.    3080.94  E(vib)   ...       0.00 
freq.    3086.85  E(vib)   ...       0.00 
freq.    3088.54  E(vib)   ...       0.00 
freq.    3092.04  E(vib)   ...       0.00 
freq.    3105.11  E(vib)   ...       0.00 
freq.    3113.25  E(vib)   ...       0.00 
freq.    3131.21  E(vib)   ...       0.00 
freq.    3149.09  E(vib)   ...       0.00 
freq.    3161.90  E(vib)   ...       0.00 
freq.    3166.78  E(vib)   ...       0.00 
freq.    3175.34  E(vib)   ...       0.00 
freq.    3193.04  E(vib)   ...       0.00 
freq.    3196.73  E(vib)   ...       0.00 
freq.    3199.94  E(vib)   ...       0.00 
freq.    3508.60  E(vib)   ...       0.00 
freq.    3601.44  E(vib)   ...       0.00 
freq.    3638.56  E(vib)   ...       0.00 
freq.    3643.93  E(vib)   ...       0.00 

------------
INNER ENERGY
------------

The inner energy is: U= E(el) + E(ZPE) + E(vib) + E(rot) + E(trans)
    E(el)   - is the total energy from the electronic structure calculation
              = E(kin-el) + E(nuc-el) + E(el-el) + E(nuc-nuc)
    E(ZPE)  - the the zero temperature vibrational energy from the frequency calculation
    E(vib)  - the the finite temperature correction to E(ZPE) due to population
              of excited vibrational states
    E(rot)  - is the rotational thermal energy
    E(trans)- is the translational thermal energy

Summary of contributions to the inner energy U:
Electronic energy                ...   -668.79698484 Eh
Zero point energy                ...      0.29016023 Eh     182.08 kcal/mol
Thermal vibrational correction   ...      0.01446863 Eh       9.08 kcal/mol
Thermal rotational correction    ...      0.00141627 Eh       0.89 kcal/mol
Thermal translational correction ...      0.00141627 Eh       0.89 kcal/mol
-----------------------------------------------------------------------
Total thermal energy                   -668.48952344 Eh


Summary of corrections to the electronic energy:
(perhaps to be used in another calculation)
Total thermal correction                  0.01730117 Eh      10.86 kcal/mol
Non-thermal (ZPE) correction              0.29016023 Eh     182.08 kcal/mol
-----------------------------------------------------------------------
Total correction                          0.30746140 Eh     192.93 kcal/mol


--------
ENTHALPY
--------

The enthalpy is H = U + kB*T
                kB is Boltzmann's constant
Total free energy                 ...   -668.48952344 Eh 
Thermal Enthalpy correction       ...      0.00094421 Eh       0.59 kcal/mol
-----------------------------------------------------------------------
Total Enthalpy                    ...   -668.48857923 Eh


Note: Only C1 symmetry has been detected, increase convergence thresholds 
      if your molecule has a higher symmetry. Symmetry factor of 1.0 is   
      used for the rotational entropy correction. 
 

Note: Rotational entropy computed according to Herzberg 
Infrared and Raman Spectra, Chapter V,1, Van Nostrand Reinhold, 1945 
Point Group:  C1, Symmetry Number:   1  
Rotational constants in cm-1:     0.019659     0.014177     0.009394 

Vibrational entropy computed according to the QRRHO of S. Grimme
Chem.Eur.J. 2012 18 9955


-------
ENTROPY
-------

The entropy contributions are T*S = T*(S(el)+S(vib)+S(rot)+S(trans))
     S(el)   - electronic entropy
     S(vib)  - vibrational entropy
     S(rot)  - rotational entropy
     S(trans)- translational entropy
The entropies will be listed as multiplied by the temperature to get
units of energy

Electronic entropy                ...      0.00065446 Eh      0.41 kcal/mol
Vibrational entropy               ...      0.02624924 Eh     16.47 kcal/mol
Rotational entropy                ...      0.01557862 Eh      9.78 kcal/mol
Translational entropy             ...      0.01986189 Eh     12.46 kcal/mol
-----------------------------------------------------------------------
Final entropy term                ...      0.06234420 Eh     39.12 kcal/mol

In case the symmetry of your molecule has not been determined correctly
or in case you have a reason to use a different symmetry number we print 
out the resulting rotational entropy values for sn=1,12 :
 --------------------------------------------------------
|  sn= 1 | S(rot)=       0.01557862 Eh      9.78 kcal/mol|
|  sn= 2 | S(rot)=       0.01492416 Eh      9.37 kcal/mol|
|  sn= 3 | S(rot)=       0.01454133 Eh      9.12 kcal/mol|
|  sn= 4 | S(rot)=       0.01426970 Eh      8.95 kcal/mol|
|  sn= 5 | S(rot)=       0.01405902 Eh      8.82 kcal/mol|
|  sn= 6 | S(rot)=       0.01388687 Eh      8.71 kcal/mol|
|  sn= 7 | S(rot)=       0.01374133 Eh      8.62 kcal/mol|
|  sn= 8 | S(rot)=       0.01361525 Eh      8.54 kcal/mol|
|  sn= 9 | S(rot)=       0.01350404 Eh      8.47 kcal/mol|
|  sn=10 | S(rot)=       0.01340456 Eh      8.41 kcal/mol|
|  sn=11 | S(rot)=       0.01331457 Eh      8.36 kcal/mol|
|  sn=12 | S(rot)=       0.01323242 Eh      8.30 kcal/mol|
 --------------------------------------------------------


-------------------
GIBBS FREE ENERGY
-------------------

The Gibbs free energy is G = H - T*S

Total enthalpy                    ...   -668.48857923 Eh 
Total entropy correction          ...     -0.06234420 Eh    -39.12 kcal/mol
-----------------------------------------------------------------------
Final Gibbs free energy         ...   -668.55092343 Eh

For completeness - the Gibbs free energy minus the electronic energy
G-E(el)                           ...      0.24606141 Eh    154.41 kcal/mol


Timings for individual modules:

Sum of individual times         ...     1963.910 sec (=  32.732 min)
GTO integral calculation        ...      113.303 sec (=   1.888 min)   5.8 %
SCF iterations                  ...      757.229 sec (=  12.620 min)  38.6 %
SCF Gradient evaluation         ...      195.221 sec (=   3.254 min)   9.9 %
Geometry relaxation             ...        0.602 sec (=   0.010 min)   0.0 %
Analytical frequency calculation...      897.555 sec (=  14.959 min)  45.7 %
                             ****ORCA TERMINATED NORMALLY****
TOTAL RUN TIME: 0 days 0 hours 33 minutes 52 seconds 337 msec
