
                                 *****************
                                 * O   R   C   A *
                                 *****************

                                            #,                                       
                                            ###                                      
                                            ####                                     
                                            #####                                    
                                            ######                                   
                                           ########,                                 
                                     ,,################,,,,,                         
                               ,,#################################,,                 
                          ,,##########################################,,             
                       ,#########################################, ''#####,          
                    ,#############################################,,   '####,        
                  ,##################################################,,,,####,       
                ,###########''''           ''''###############################       
              ,#####''   ,,,,##########,,,,          '''####'''          '####       
            ,##' ,,,,###########################,,,                        '##       
           ' ,,###''''                  '''############,,,                           
         ,,##''                                '''############,,,,        ,,,,,,###''
      ,#''                                            '''#######################'''  
     '                                                          ''''####''''         
             ,#######,   #######,   ,#######,      ##                                
            ,#'     '#,  ##    ##  ,#'     '#,    #''#        ######   ,####,        
            ##       ##  ##   ,#'  ##            #'  '#       #        #'  '#        
            ##       ##  #######   ##           ,######,      #####,   #    #        
            '#,     ,#'  ##    ##  '#,     ,#' ,#      #,         ##   #,  ,#        
             '#######'   ##     ##  '#######'  #'      '#     #####' # '####'        



                  #######################################################
                  #                        -***-                        #
                  #          Department of theory and spectroscopy      #
                  #    Directorship and core code : Frank Neese         #
                  #        Max Planck Institute fuer Kohlenforschung    #
                  #                Kaiser Wilhelm Platz 1               #
                  #                 D-45470 Muelheim/Ruhr               #
                  #                      Germany                        #
                  #                                                     #
                  #                  All rights reserved                #
                  #                        -***-                        #
                  #######################################################


                         Program Version 5.0.4 -  RELEASE  -


 With contributions from (in alphabetic order):
   Daniel Aravena         : Magnetic Suceptibility
   Michael Atanasov       : Ab Initio Ligand Field Theory (pilot matlab implementation)
   Alexander A. Auer      : GIAO ZORA, VPT2 properties, NMR spectrum
   Ute Becker             : Parallelization
   Giovanni Bistoni       : ED, misc. LED, open-shell LED, HFLD
   Martin Brehm           : Molecular dynamics
   Dmytro Bykov           : SCF Hessian
   Vijay G. Chilkuri      : MRCI spin determinant printing, contributions to CSF-ICE
   Dipayan Datta          : RHF DLPNO-CCSD density
   Achintya Kumar Dutta   : EOM-CC, STEOM-CC
   Dmitry Ganyushin       : Spin-Orbit,Spin-Spin,Magnetic field MRCI
   Miquel Garcia          : C-PCM and meta-GGA Hessian, CC/C-PCM, Gaussian charge scheme
   Yang Guo               : DLPNO-NEVPT2, F12-NEVPT2, CIM, IAO-localization
   Andreas Hansen         : Spin unrestricted coupled pair/coupled cluster methods
   Benjamin Helmich-Paris : MC-RPA, TRAH-SCF, COSX integrals
   Lee Huntington         : MR-EOM, pCC
   Robert Izsak           : Overlap fitted RIJCOSX, COSX-SCS-MP3, EOM
   Marcus Kettner         : VPT2
   Christian Kollmar      : KDIIS, OOCD, Brueckner-CCSD(T), CCSD density, CASPT2, CASPT2-K
   Simone Kossmann        : Meta GGA functionals, TD-DFT gradient, OOMP2, MP2 Hessian
   Martin Krupicka        : Initial AUTO-CI
   Lucas Lang             : DCDCAS
   Marvin Lechner         : AUTO-CI (C++ implementation), FIC-MRCC
   Dagmar Lenk            : GEPOL surface, SMD
   Dimitrios Liakos       : Extrapolation schemes; Compound Job, initial MDCI parallelization
   Dimitrios Manganas     : Further ROCIS development; embedding schemes
   Dimitrios Pantazis     : SARC Basis sets
   Anastasios Papadopoulos: AUTO-CI, single reference methods and gradients
   Taras Petrenko         : DFT Hessian,TD-DFT gradient, ASA, ECA, R-Raman, ABS, FL, XAS/XES, NRVS
   Peter Pinski           : DLPNO-MP2, DLPNO-MP2 Gradient
   Christoph Reimann      : Effective Core Potentials
   Marius Retegan         : Local ZFS, SOC
   Christoph Riplinger    : Optimizer, TS searches, QM/MM, DLPNO-CCSD(T), (RO)-DLPNO pert. Triples
   Tobias Risthaus        : Range-separated hybrids, TD-DFT gradient, RPA, STAB
   Michael Roemelt        : Original ROCIS implementation
   Masaaki Saitow         : Open-shell DLPNO-CCSD energy and density
   Barbara Sandhoefer     : DKH picture change effects
   Avijit Sen             : IP-ROCIS
   Kantharuban Sivalingam : CASSCF convergence, NEVPT2, FIC-MRCI
   Bernardo de Souza      : ESD, SOC TD-DFT
   Georgi Stoychev        : AutoAux, RI-MP2 NMR, DLPNO-MP2 response
   Willem Van den Heuvel  : Paramagnetic NMR
   Boris Wezisla          : Elementary symmetry handling
   Frank Wennmohs         : Technical directorship


 We gratefully acknowledge several colleagues who have allowed us to
 interface, adapt or use parts of their codes:
   Stefan Grimme, W. Hujo, H. Kruse, P. Pracht,  : VdW corrections, initial TS optimization,
                  C. Bannwarth, S. Ehlert          DFT functionals, gCP, sTDA/sTD-DF
   Ed Valeev, F. Pavosevic, A. Kumar             : LibInt (2-el integral package), F12 methods
   Garnet Chan, S. Sharma, J. Yang, R. Olivares  : DMRG
   Ulf Ekstrom                                   : XCFun DFT Library
   Mihaly Kallay                                 : mrcc  (arbitrary order and MRCC methods)
   Jiri Pittner, Ondrej Demel                    : Mk-CCSD
   Frank Weinhold                                : gennbo (NPA and NBO analysis)
   Christopher J. Cramer and Donald G. Truhlar   : smd solvation model
   Lars Goerigk                                  : TD-DFT with DH, B97 family of functionals
   V. Asgeirsson, H. Jonsson                     : NEB implementation
   FAccTs GmbH                                   : IRC, NEB, NEB-TS, DLPNO-Multilevel, CI-OPT
                                                   MM, QMMM, 2- and 3-layer-ONIOM, Crystal-QMMM,
                                                   LR-CPCM, SF, NACMEs, symmetry and pop. for TD-DFT,
                                                   nearIR, NL-DFT gradient (VV10), updates on ESD,
                                                   ML-optimized integration grids
   S Lehtola, MJT Oliveira, MAL Marques          : LibXC Library
   Liviu Ungur et al                             : ANISO software


 Your calculation uses the libint2 library for the computation of 2-el integrals
 For citations please refer to: http://libint.valeyev.net

 Your ORCA version has been built with support for libXC version: 5.1.0
 For citations please refer to: https://tddft.org/programs/libxc/

 This ORCA versions uses:
   CBLAS   interface :  Fast vector & matrix operations
   LAPACKE interface :  Fast linear algebra routines
   SCALAPACK package :  Parallel linear algebra routines
   Shared memory     :  Shared parallel matrices
   BLAS/LAPACK       :  OpenBLAS 0.3.15  USE64BITINT DYNAMIC_ARCH NO_AFFINITY Zen SINGLE_THREADED
        Core in use  :  Zen
   Copyright (c) 2011-2014, The OpenBLAS Project




***************************************
The coordinates will be read from file: model.xyz
***************************************


================================================================================

----- Orbital basis set information -----
Your calculation utilizes the basis: EPR-II
   V. Barone, in Recent Advances in Density Functional Methods, Part 1 (ed. D. P. Chong), World Scientific, Singapore, 1995, p. 287.

----- AuxJ basis set information -----
Your calculation utilizes the auxiliary basis: def2/J
   F. Weigend, Phys. Chem. Chem. Phys. 8, 1057 (2006).

================================================================================
                                        WARNINGS
                       Please study these warnings very carefully!
================================================================================


WARNING: your system is open-shell and RHF/RKS was chosen
  ===> : WILL SWITCH to UHF/UKS


WARNING: Geometry Optimization
  ===> : Switching off AutoStart
         For restart on a previous wavefunction, please use MOREAD

INFO   : the flag for use of the SHARK integral package has been found!

================================================================================
                                       INPUT FILE
================================================================================
NAME = opt.inp
|  1> ! B3LYP EPR-II OPT
|  2> %pal nprocs 16 end
|  3> *XYZFile 1 2 model.xyz
|  4> 
|  5>                          ****END OF INPUT****
================================================================================

                       *****************************
                       * Geometry Optimization Run *
                       *****************************

Geometry optimization settings:
Update method            Update   .... BFGS
Choice of coordinates    CoordSys .... Z-matrix Internals
Initial Hessian          InHess   .... Almoef's Model

Convergence Tolerances:
Energy Change            TolE     ....  5.0000e-06 Eh
Max. Gradient            TolMAXG  ....  3.0000e-04 Eh/bohr
RMS Gradient             TolRMSG  ....  1.0000e-04 Eh/bohr
Max. Displacement        TolMAXD  ....  4.0000e-03 bohr
RMS Displacement         TolRMSD  ....  2.0000e-03 bohr
Strict Convergence                ....  False
------------------------------------------------------------------------------
                        ORCA OPTIMIZATION COORDINATE SETUP
------------------------------------------------------------------------------

The optimization will be done in new redundant internal coordinates
Making redundant internal coordinates   ...  (new redundants) done
Evaluating the initial hessian          ...  (Almloef) done
Evaluating the coordinates              ...  done
Calculating the B-matrix                .... done
Calculating the G-matrix                .... done
Diagonalizing the G-matrix              .... done
Small eigenvalue found = 5.922e-03
Small eigenvalue found = 6.789e-03
Small eigenvalue found = 1.067e-02
Small eigenvalue found = 2.306e-02
Small eigenvalue found = 2.488e-02
The first mode is                       ....   70
The number of degrees of freedom        ....   93

    -----------------------------------------------------------------
                    Redundant Internal Coordinates


    -----------------------------------------------------------------
         Definition                    Initial Value    Approx d2E/dq
    -----------------------------------------------------------------
      1. B(C   1,N   0)                  1.4282         0.486358   
      2. B(C   2,C   1)                  1.5371         0.363920   
      3. B(O   3,C   2)                  1.2169         1.057015   
      4. B(C   4,C   1)                  1.5772         0.314052   
      5. B(C   5,C   4)                  1.5349         0.366886   
      6. B(C   6,C   5)                  1.5378         0.363087   
      7. B(C   7,C   6)                  1.6141         0.274280   
      8. B(N   8,C   7)                  1.3970         0.545322   
      9. B(H   9,N   0)                  1.0135         0.427240   
     10. B(C  10,N   0)                  1.3737         0.594032   
     11. B(N  11,C   2)                  1.3452         0.659678   
     12. B(H  12,N  11)                  1.0086         0.434912   
     13. B(O  13,C  10)                  1.2129         1.072526   
     14. B(H  14,N   8)                  1.0146         0.425502   
     15. B(C  15,N  11)                  1.4560         0.439185   
     16. B(H  16,C  15)                  1.0968         0.351184   
     17. B(H  17,C  15)                  1.0931         0.356032   
     18. B(H  18,C  15)                  1.0946         0.354060   
     19. B(C  19,C  10)                  1.5161         0.393196   
     20. B(H  20,C  19)                  1.0930         0.356155   
     21. B(H  21,C  19)                  1.0980         0.349635   
     22. B(H  22,C  19)                  1.0954         0.353022   
     23. B(H  23,C   1)                  1.0987         0.348718   
     24. B(H  24,C   4)                  1.0974         0.350481   
     25. B(H  25,C   4)                  1.0976         0.350220   
     26. B(H  26,C   5)                  1.0965         0.351573   
     27. B(H  27,C   5)                  1.0974         0.350434   
     28. B(H  28,C   6)                  1.0960         0.352214   
     29. B(H  29,C   6)                  1.0959         0.352379   
     30. B(H  30,C   7)                  1.0951         0.353356   
     31. B(H  31,C   7)                  1.0946         0.354127   
     32. B(H  32,N   8)                  1.0146         0.425447   
     33. A(H   9,N   0,C  10)          121.7210         0.355302   
     34. A(C   1,N   0,H   9)          116.5170         0.343517   
     35. A(C   1,N   0,C  10)          121.7201         0.407167   
     36. A(N   0,C   1,C   4)          113.0243         0.366710   
     37. A(C   4,C   1,H  23)          104.9574         0.313615   
     38. A(N   0,C   1,C   2)          107.6219         0.376130   
     39. A(C   2,C   1,H  23)          112.6318         0.321234   
     40. A(N   0,C   1,H  23)          108.7567         0.334949   
     41. A(C   2,C   1,C   4)          109.9276         0.351224   
     42. A(O   3,C   2,N  11)          123.8487         0.477386   
     43. A(C   1,C   2,O   3)          119.9922         0.431281   
     44. A(C   1,C   2,N  11)          116.1048         0.396638   
     45. A(C   1,C   4,C   5)          112.4163         0.351707   
     46. A(C   5,C   4,H  25)          111.6213         0.321887   
     47. A(C   5,C   4,H  24)          110.7341         0.321927   
     48. A(C   1,C   4,H  24)          108.3471         0.313872   
     49. A(H  24,C   4,H  25)          108.2870         0.288347   
     50. A(C   1,C   4,H  25)          105.1867         0.313834   
     51. A(C   4,C   5,H  27)          109.7395         0.321920   
     52. A(C   6,C   5,H  27)          110.1583         0.321372   
     53. A(C   6,C   5,H  26)          110.3285         0.321542   
     54. A(C   4,C   5,H  26)          111.1908         0.322091   
     55. A(C   4,C   5,C   6)          107.9313         0.360477   
     56. A(H  26,C   5,H  27)          107.5009         0.288515   
     57. A(C   7,C   6,H  28)          107.6872         0.307328   
     58. A(C   5,C   6,C   7)          107.9863         0.343178   
     59. A(C   5,C   6,H  29)          111.6398         0.321663   
     60. A(C   5,C   6,H  28)          112.2162         0.321638   
     61. A(H  28,C   6,H  29)          109.0703         0.288847   
     62. A(C   7,C   6,H  29)          108.0744         0.307351   
     63. A(H  30,C   7,H  31)          111.4727         0.289218   
     64. A(N   8,C   7,H  31)          110.6306         0.342283   
     65. A(N   8,C   7,H  30)          110.8041         0.342158   
     66. A(C   6,C   7,H  30)          107.0829         0.307488   
     67. A(C   6,C   7,H  31)          107.3806         0.307596   
     68. A(C   6,C   7,N   8)          109.3247         0.365395   
     69. A(C   7,N   8,H  32)          121.3446         0.349946   
     70. A(H  14,N   8,H  32)          116.2378         0.301628   
     71. A(C   7,N   8,H  14)          121.3352         0.349954   
     72. A(N   0,C  10,O  13)          120.4162         0.469532   
     73. A(O  13,C  10,C  19)          123.6529         0.438478   
     74. A(N   0,C  10,C  19)          115.9171         0.394733   
     75. A(C   2,N  11,H  12)          119.0551         0.362796   
     76. A(H  12,N  11,C  15)          118.6397         0.338711   
     77. A(C   2,N  11,C  15)          121.3772         0.407369   
     78. A(H  17,C  15,H  18)          109.5518         0.289552   
     79. A(H  16,C  15,H  18)          108.3787         0.288930   
     80. A(N  11,C  15,H  18)          109.6478         0.330163   
     81. A(H  16,C  15,H  17)          109.5001         0.289182   
     82. A(N  11,C  15,H  17)          108.7340         0.330466   
     83. A(N  11,C  15,H  16)          111.0135         0.329718   
     84. A(H  20,C  19,H  22)          110.3419         0.289434   
     85. A(C  10,C  19,H  22)          112.6031         0.325994   
     86. A(H  20,C  19,H  21)          108.2251         0.288997   
     87. A(C  10,C  19,H  21)          108.3555         0.325477   
     88. A(C  10,C  19,H  20)          108.8162         0.326468   
     89. A(H  21,C  19,H  22)          108.3871         0.288598   
     90. D(C   2,C   1,N   0,H   9)     13.0317         0.020248   
     91. D(C   2,C   1,N   0,C  10)   -164.6526         0.020248   
     92. D(C   4,C   1,N   0,C  10)     73.7763         0.020248   
     93. D(C   4,C   1,N   0,H   9)   -108.5395         0.020248   
     94. D(H  23,C   1,N   0,C  10)    -42.3586         0.020248   
     95. D(H  23,C   1,N   0,H   9)    135.3257         0.020248   
     96. D(O   3,C   2,C   1,N   0)    -33.3143         0.009942   
     97. D(N  11,C   2,C   1,N   0)    149.2657         0.009942   
     98. D(N  11,C   2,C   1,C   4)    -87.2525         0.009942   
     99. D(N  11,C   2,C   1,H  23)     29.4008         0.009942   
    100. D(O   3,C   2,C   1,C   4)     90.1675         0.009942   
    101. D(O   3,C   2,C   1,H  23)   -153.1791         0.009942   
    102. D(C   5,C   4,C   1,N   0)     63.7891         0.008121   
    103. D(C   5,C   4,C   1,C   2)    -56.4732         0.008121   
    104. D(H  25,C   4,C   1,C   2)   -178.1404         0.008121   
    105. D(C   5,C   4,C   1,H  23)   -177.8406         0.008121   
    106. D(H  24,C   4,C   1,H  23)    -55.1380         0.008121   
    107. D(H  24,C   4,C   1,C   2)     66.2294         0.008121   
    108. D(H  24,C   4,C   1,N   0)   -173.5084         0.008121   
    109. D(H  25,C   4,C   1,H  23)     60.4922         0.008121   
    110. D(H  25,C   4,C   1,N   0)    -57.8781         0.008121   
    111. D(H  27,C   5,C   4,H  25)     68.6392         0.010772   
    112. D(H  27,C   5,C   4,H  24)   -170.6344         0.010772   
    113. D(H  27,C   5,C   4,C   1)    -49.2865         0.010772   
    114. D(H  26,C   5,C   4,H  24)    -51.8326         0.010772   
    115. D(H  26,C   5,C   4,C   1)     69.5153         0.010772   
    116. D(C   6,C   5,C   4,H  25)    -51.4229         0.010772   
    117. D(H  26,C   5,C   4,H  25)   -172.5591         0.010772   
    118. D(C   6,C   5,C   4,H  24)     69.3035         0.010772   
    119. D(C   6,C   5,C   4,C   1)   -169.3485         0.010772   
    120. D(C   7,C   6,C   5,C   4)    179.0084         0.010564   
    121. D(H  29,C   6,C   5,H  26)   -177.9876         0.010564   
    122. D(H  29,C   6,C   5,C   4)     60.3409         0.010564   
    123. D(H  28,C   6,C   5,H  27)    177.7419         0.010564   
    124. D(H  28,C   6,C   5,H  26)     59.2115         0.010564   
    125. D(H  28,C   6,C   5,C   4)    -62.4601         0.010564   
    126. D(C   7,C   6,C   5,H  27)     59.2104         0.010564   
    127. D(H  29,C   6,C   5,H  27)    -59.4572         0.010564   
    128. D(C   7,C   6,C   5,H  26)    -59.3200         0.010564   
    129. D(H  31,C   7,C   6,H  29)     62.8541         0.006449   
    130. D(H  31,C   7,C   6,C   5)    -58.0629         0.006449   
    131. D(H  30,C   7,C   6,H  29)   -177.3133         0.006449   
    132. D(H  30,C   7,C   6,H  28)    -59.6152         0.006449   
    133. D(H  30,C   7,C   6,C   5)     61.7696         0.006449   
    134. D(N   8,C   7,C   6,H  29)    -57.2126         0.006449   
    135. D(H  31,C   7,C   6,H  28)   -179.4478         0.006449   
    136. D(N   8,C   7,C   6,H  28)     60.4855         0.006449   
    137. D(N   8,C   7,C   6,C   5)   -178.1297         0.006449   
    138. D(H  32,N   8,C   7,H  31)    -32.9537         0.025718   
    139. D(H  32,N   8,C   7,H  30)   -157.1110         0.025718   
    140. D(H  32,N   8,C   7,C   6)     85.0980         0.025718   
    141. D(H  14,N   8,C   7,H  31)    159.3909         0.025718   
    142. D(H  14,N   8,C   7,H  30)     35.2335         0.025718   
    143. D(H  14,N   8,C   7,C   6)    -82.5574         0.025718   
    144. D(C  19,C  10,N   0,H   9)     -3.6160         0.028394   
    145. D(C  19,C  10,N   0,C   1)    173.9479         0.028394   
    146. D(O  13,C  10,N   0,H   9)    177.6895         0.028394   
    147. D(O  13,C  10,N   0,C   1)     -4.7466         0.028394   
    148. D(C  15,N  11,C   2,O   3)      3.3897         0.035608   
    149. D(C  15,N  11,C   2,C   1)   -179.3009         0.035608   
    150. D(H  12,N  11,C   2,O   3)    172.2149         0.035608   
    151. D(H  12,N  11,C   2,C   1)    -10.4757         0.035608   
    152. D(H  16,C  15,N  11,C   2)     68.4187         0.016447   
    153. D(H  18,C  15,N  11,H  12)    139.8267         0.016447   
    154. D(H  18,C  15,N  11,C   2)    -51.3029         0.016447   
    155. D(H  17,C  15,N  11,H  12)     20.0705         0.016447   
    156. D(H  17,C  15,N  11,C   2)   -171.0591         0.016447   
    157. D(H  16,C  15,N  11,H  12)   -100.4517         0.016447   
    158. D(H  22,C  19,C  10,O  13)   -151.6320         0.011492   
    159. D(H  22,C  19,C  10,N   0)     29.7204         0.011492   
    160. D(H  21,C  19,C  10,O  13)     88.4917         0.011492   
    161. D(H  21,C  19,C  10,N   0)    -90.1558         0.011492   
    162. D(H  20,C  19,C  10,O  13)    -28.9714         0.011492   
    163. D(H  20,C  19,C  10,N   0)    152.3811         0.011492   
    -----------------------------------------------------------------

Number of atoms                         .... 33
Number of degrees of freedom            .... 163

         *************************************************************
         *                GEOMETRY OPTIMIZATION CYCLE   1            *
         *************************************************************
---------------------------------
CARTESIAN COORDINATES (ANGSTROEM)
---------------------------------
  N     -7.847769    0.885130    0.041642
  C     -6.426366    0.852779    0.176830
  C     -6.100678    0.894400    1.678481
  O     -6.817234    1.517714    2.439282
  C     -5.709058    2.047393   -0.562133
  C     -6.083951    3.412394    0.031332
  C     -5.554904    4.501977   -0.916084
  C     -5.971319    5.937456   -0.306715
  N     -5.540512    6.948433   -1.169290
  H     -8.375684    1.131139    0.871033
  C     -8.468906    0.552364   -1.137608
  N     -4.976867    0.260017    2.058220
  H     -4.500920   -0.332482    1.395100
  O     -7.813942    0.302364   -2.127395
  H     -4.586198    7.291984   -1.144547
  C     -4.566999    0.214439    3.454550
  H     -5.254653   -0.401913    4.046384
  H     -3.559536   -0.205874    3.511173
  H     -4.565516    1.226759    3.870922
  C     -9.983252    0.493826   -1.095365
  H    -10.372528    0.714485   -2.092571
  H    -10.282465   -0.528348   -0.828348
  H    -10.410818    1.182593   -0.358685
  H     -6.045379   -0.053693   -0.313469
  H     -4.625021    1.885259   -0.509239
  H     -6.018969    1.963844   -1.611724
  H     -5.657779    3.539371    1.033638
  H     -7.174710    3.489159    0.124354
  H     -4.462496    4.481177   -1.002624
  H     -5.994999    4.416504   -1.916088
  H     -5.484182    6.025828    0.670134
  H     -7.061804    5.949048   -0.213150
  H     -6.101841    7.240154   -1.962533

----------------------------
CARTESIAN COORDINATES (A.U.)
----------------------------
  NO LB      ZA    FRAG     MASS         X           Y           Z
   0 N     7.0000    0    14.007  -14.830134    1.672653    0.078692
   1 C     6.0000    0    12.011  -12.144072    1.611519    0.334160
   2 C     6.0000    0    12.011  -11.528611    1.690171    3.171869
   3 O     8.0000    0    15.999  -12.882705    2.868064    4.609575
   4 C     6.0000    0    12.011  -10.788556    3.869012   -1.062277
   5 C     6.0000    0    12.011  -11.497001    6.448490    0.059209
   6 C     6.0000    0    12.011  -10.497247    8.507504   -1.731148
   7 C     6.0000    0    12.011  -11.284158   11.220166   -0.579607
   8 N     7.0000    0    14.007  -10.470050   13.130635   -2.209638
   9 H     1.0000    0     1.008  -15.827749    2.137543    1.646014
  10 C     6.0000    0    12.011  -16.003913    1.043817   -2.149768
  11 N     7.0000    0    14.007   -9.404916    0.491361    3.889472
  12 H     1.0000    0     1.008   -8.505506   -0.628300    2.636357
  13 O     8.0000    0    15.999  -14.766210    0.571385   -4.020194
  14 H     1.0000    0     1.008   -8.666658   13.779853   -2.162880
  15 C     6.0000    0    12.011   -8.630377    0.405231    6.528153
  16 H     1.0000    0     1.008   -9.929855   -0.759505    7.646558
  17 H     1.0000    0     1.008   -6.726548   -0.389045    6.635155
  18 H     1.0000    0     1.008   -8.627575    2.318239    7.314982
  19 C     6.0000    0    12.011  -18.865612    0.933196   -2.069940
  20 H     1.0000    0     1.008  -19.601237    1.350181   -3.954386
  21 H     1.0000    0     1.008  -19.431043   -0.998433   -1.565351
  22 H     1.0000    0     1.008  -19.673595    2.234777   -0.677816
  23 H     1.0000    0     1.008  -11.424111   -0.101465   -0.592371
  24 H     1.0000    0     1.008   -8.740023    3.562623   -0.962322
  25 H     1.0000    0     1.008  -11.374203    3.711127   -3.045717
  26 H     1.0000    0     1.008  -10.691653    6.688442    1.953293
  27 H     1.0000    0     1.008  -13.558237    6.593555    0.234995
  28 H     1.0000    0     1.008   -8.432895    8.468197   -1.894685
  29 H     1.0000    0     1.008  -11.328906    8.345983   -3.620882
  30 H     1.0000    0     1.008  -10.363602   11.387165    1.266370
  31 H     1.0000    0     1.008  -13.344876   11.242071   -0.402795
  32 H     1.0000    0     1.008  -11.530808   13.681908   -3.708650

--------------------------------
INTERNAL COORDINATES (ANGSTROEM)
--------------------------------
 N      0   0   0     0.000000000000     0.00000000     0.00000000
 C      1   0   0     1.428183766521     0.00000000     0.00000000
 C      2   1   0     1.537127420478   107.62190238     0.00000000
 O      3   2   1     1.216877563822   119.99218030   326.68571709
 C      2   1   3     1.577244334664   113.02428981   238.42885502
 C      5   2   1     1.534917977507   112.41633525    63.78907223
 C      6   5   2     1.537751253992   107.93130352   190.65147741
 C      7   6   5     1.614104082712   107.98631858   179.00844844
 N      8   7   6     1.397034286051   109.32474219   181.87033958
 H      1   2   3     1.013461447805   116.51698990    13.03167476
 C      1   2   3     1.373744862056   121.72014057   195.34740699
 N      3   2   1     1.345211753789   116.10475521   149.26567468
 H     12   3   2     1.008617244652   119.05513936   349.52432648
 O     11   1   2     1.212912258436   120.41617979   355.25340137
 H      9   8   7     1.014571198214   121.33515861   277.44262328
 C     12   3   2     1.455955562649   121.37724404   180.69908314
 H     16  12   3     1.096825097805   111.01353852    68.41867735
 H     16  12   3     1.093092346724   108.73400702   188.94085961
 H     16  12   3     1.094604779851   109.64783386   308.69707501
 C     11   1   2     1.516065623978   115.91710179   173.94792228
 H     20  11   1     1.092998629868   108.81621109   152.38108155
 H     20  11   1     1.098028316545   108.35546449   269.84417824
 H     20  11   1     1.095404074780   112.60308069    29.72044302
 H      2   1   3     1.098742777157   108.75670435   122.29397628
 H      5   2   1     1.097370232219   108.34705630   186.49160693
 H      5   2   1     1.097573018347   105.18669589   302.12188149
 H      6   5   2     1.096523164256   111.19079050    69.51530277
 H      6   5   2     1.097406558113   109.73954763   310.71354515
 H      7   6   5     1.096027850953   112.21621102   297.53992157
 H      7   6   5     1.095900197450   111.63976686    60.34087057
 H      8   7   6     1.095146581949   107.08294723    61.76963674
 H      8   7   6     1.094553022432   107.38055772   301.93705870
 H      9   8   7     1.014606251277   121.34463614    85.09804393

---------------------------
INTERNAL COORDINATES (A.U.)
---------------------------
 N      0   0   0     0.000000000000     0.00000000     0.00000000
 C      1   0   0     2.698876187637     0.00000000     0.00000000
 C      2   1   0     2.904749857645   107.62190238     0.00000000
 O      3   2   1     2.299565334137   119.99218030   326.68571709
 C      2   1   3     2.980559838793   113.02428981   238.42885502
 C      5   2   1     2.900574615521   112.41633525    63.78907223
 C      6   5   2     2.905928732139   107.93130352   190.65147741
 C      7   6   5     3.050214667970   107.98631858   179.00844844
 N      8   7   6     2.640012200335   109.32474219   181.87033958
 H      1   2   3     1.915164583639   116.51698990    13.03167476
 C      1   2   3     2.596001567167   121.72014057   195.34740699
 N      3   2   1     2.542081806792   116.10475521   149.26567468
 H     12   3   2     1.906010366343   119.05513936   349.52432648
 O     11   1   2     2.292071992920   120.41617979   355.25340137
 H      9   8   7     1.917261707989   121.33515861   277.44262328
 C     12   3   2     2.751357276565   121.37724404   180.69908314
 H     16  12   3     2.072699051664   111.01353852    68.41867735
 H     16  12   3     2.065645174394   108.73400702   188.94085961
 H     16  12   3     2.068503258800   109.64783386   308.69707501
 C     11   1   2     2.864948830372   115.91710179   173.94792228
 H     20  11   1     2.065468075201   108.81621109   152.38108155
 H     20  11   1     2.074972805560   108.35546449   269.84417824
 H     20  11   1     2.070013707316   112.60308069    29.72044302
 H      2   1   3     2.076322940450   108.75670435   122.29397628
 H      5   2   1     2.073729206412   108.34705630   186.49160693
 H      5   2   1     2.074112416657   105.18669589   302.12188149
 H      6   5   2     2.072128479944   111.19079050    69.51530277
 H      6   5   2     2.073797852403   109.73954763   310.71354515
 H      7   6   5     2.071192473451   112.21621102   297.53992157
 H      7   6   5     2.070951243290   111.63976686    60.34087057
 H      8   7   6     2.069527116383   107.08294723    61.76963674
 H      8   7   6     2.068405451451   107.38055772   301.93705870
 H      9   8   7     1.917327948679   121.34463614    85.09804393

---------------------
BASIS SET INFORMATION
---------------------
There are 4 groups of distinct atoms

 Group   1 Type N   : 10s5p1d contracted to 6s2p1d pattern {511111/41/1}
 Group   2 Type C   : 10s5p1d contracted to 6s2p1d pattern {511111/41/1}
 Group   3 Type O   : 10s5p1d contracted to 6s2p1d pattern {511111/41/1}
 Group   4 Type H   : 6s1p contracted to 4s1p pattern {3111/1}

Atom   0N    basis set group =>   1
Atom   1C    basis set group =>   2
Atom   2C    basis set group =>   2
Atom   3O    basis set group =>   3
Atom   4C    basis set group =>   2
Atom   5C    basis set group =>   2
Atom   6C    basis set group =>   2
Atom   7C    basis set group =>   2
Atom   8N    basis set group =>   1
Atom   9H    basis set group =>   4
Atom  10C    basis set group =>   2
Atom  11N    basis set group =>   1
Atom  12H    basis set group =>   4
Atom  13O    basis set group =>   3
Atom  14H    basis set group =>   4
Atom  15C    basis set group =>   2
Atom  16H    basis set group =>   4
Atom  17H    basis set group =>   4
Atom  18H    basis set group =>   4
Atom  19C    basis set group =>   2
Atom  20H    basis set group =>   4
Atom  21H    basis set group =>   4
Atom  22H    basis set group =>   4
Atom  23H    basis set group =>   4
Atom  24H    basis set group =>   4
Atom  25H    basis set group =>   4
Atom  26H    basis set group =>   4
Atom  27H    basis set group =>   4
Atom  28H    basis set group =>   4
Atom  29H    basis set group =>   4
Atom  30H    basis set group =>   4
Atom  31H    basis set group =>   4
Atom  32H    basis set group =>   4
---------------------------------
AUXILIARY/J BASIS SET INFORMATION
---------------------------------
There are 4 groups of distinct atoms

 Group   1 Type N   : 12s5p4d2f1g contracted to 6s4p3d1f1g pattern {711111/2111/211/2/1}
 Group   2 Type C   : 12s5p4d2f1g contracted to 6s4p3d1f1g pattern {711111/2111/211/2/1}
 Group   3 Type O   : 12s5p4d2f1g contracted to 6s4p3d1f1g pattern {711111/2111/211/2/1}
 Group   4 Type H   : 5s2p1d contracted to 3s1p1d pattern {311/2/1}

Atom   0N    basis set group =>   1
Atom   1C    basis set group =>   2
Atom   2C    basis set group =>   2
Atom   3O    basis set group =>   3
Atom   4C    basis set group =>   2
Atom   5C    basis set group =>   2
Atom   6C    basis set group =>   2
Atom   7C    basis set group =>   2
Atom   8N    basis set group =>   1
Atom   9H    basis set group =>   4
Atom  10C    basis set group =>   2
Atom  11N    basis set group =>   1
Atom  12H    basis set group =>   4
Atom  13O    basis set group =>   3
Atom  14H    basis set group =>   4
Atom  15C    basis set group =>   2
Atom  16H    basis set group =>   4
Atom  17H    basis set group =>   4
Atom  18H    basis set group =>   4
Atom  19C    basis set group =>   2
Atom  20H    basis set group =>   4
Atom  21H    basis set group =>   4
Atom  22H    basis set group =>   4
Atom  23H    basis set group =>   4
Atom  24H    basis set group =>   4
Atom  25H    basis set group =>   4
Atom  26H    basis set group =>   4
Atom  27H    basis set group =>   4
Atom  28H    basis set group =>   4
Atom  29H    basis set group =>   4
Atom  30H    basis set group =>   4
Atom  31H    basis set group =>   4
Atom  32H    basis set group =>   4


           ************************************************************
           *        Program running with 16 parallel MPI-processes    *
           *              working on a common directory               *
           ************************************************************
------------------------------------------------------------------------------
                           ORCA GTO INTEGRAL CALCULATION
                           -- RI-GTO INTEGRALS CHOSEN --
------------------------------------------------------------------------------
------------------------------------------------------------------------------
                   ___                                                        
                  /   \      - P O W E R E D   B Y -                         
                 /     \                                                     
                 |  |  |   _    _      __       _____    __    __             
                 |  |  |  | |  | |    /  \     |  _  \  |  |  /  |          
                  \  \/   | |  | |   /    \    | | | |  |  | /  /          
                 / \  \   | |__| |  /  /\  \   | |_| |  |  |/  /          
                |  |  |   |  __  | /  /__\  \  |    /   |      \           
                |  |  |   | |  | | |   __   |  |    \   |  |\   \          
                \     /   | |  | | |  |  |  |  | |\  \  |  | \   \       
                 \___/    |_|  |_| |__|  |__|  |_| \__\ |__|  \__/        
                                                                              
                      - O R C A' S   B I G   F R I E N D -                    
                                      &                                       
                       - I N T E G R A L  F E E D E R -                       
                                                                              
 v1 FN, 2020, v2 2021                                                         
------------------------------------------------------------------------------


Reading SHARK input file opt.SHARKINP.tmp ... ok
----------------------
SHARK INTEGRAL PACKAGE
----------------------

Number of atoms                             ...     33
Number of basis functions                   ...    371
Number of shells                            ...    221
Maximum angular momentum                    ...      2
Integral batch strategy                     ... SHARK/LIBINT Hybrid
RI-J (if used) integral strategy            ... SPLIT-RIJ (Revised 2003 algorithm where possible)
Printlevel                                  ...      1
Contraction scheme used                     ... SEGMENTED contraction
Coulomb Range Separation                    ... NOT USED
Exchange Range Separation                   ... NOT USED
Finite Nucleus Model                        ... NOT USED
Auxiliary Coulomb fitting basis             ... AVAILABLE
   # of basis functions in Aux-J            ...    895
   # of shells in Aux-J                     ...    305
   Maximum angular momentum in Aux-J        ...      4
Auxiliary J/K fitting basis                 ... NOT available
Auxiliary Correlation fitting basis         ... NOT available
Auxiliary 'external' fitting basis          ... NOT available
Integral threshold                          ...     2.500000e-11
Primitive cut-off                           ...     2.500000e-12
Primitive pair pre-selection threshold      ...     2.500000e-12

Calculating pre-screening integrals         ... done (  0.0 sec) Dimension = 221
Organizing shell pair data                  ... done (  0.0 sec)
Shell pair information
Total number of shell pairs                 ...     24531
Shell pairs after pre-screening             ...     15962
Total number of primitive shell pairs       ...     64184
Primitive shell pairs kept                  ...     30422
          la=0 lb=0:   7523 shell pairs
          la=1 lb=0:   5459 shell pairs
          la=1 lb=1:    934 shell pairs
          la=2 lb=0:   1450 shell pairs
          la=2 lb=1:    515 shell pairs
          la=2 lb=2:     81 shell pairs

Calculating one electron integrals          ... done (  0.0 sec)
Calculating RI/J V-Matrix + Cholesky decomp.... done (  0.0 sec)
Calculating Nuclear repulsion               ... done (  0.0 sec) ENN=    939.505357784743 Eh

SHARK setup successfully completed in   0.3 seconds

Maximum memory used throughout the entire GTOINT-calculation: 22.9 MB


           ************************************************************
           *        Program running with 16 parallel MPI-processes    *
           *              working on a common directory               *
           ************************************************************
-------------------------------------------------------------------------------
                                 ORCA SCF
-------------------------------------------------------------------------------

------------
SCF SETTINGS
------------
Hamiltonian:
 Density Functional     Method          .... DFT(GTOs)
 Exchange Functional    Exchange        .... B88
   X-Alpha parameter    XAlpha          ....  0.666667
   Becke's b parameter  XBeta           ....  0.004200
 Correlation Functional Correlation     .... LYP
 LDA part of GGA corr.  LDAOpt          .... VWN-5
 Gradients option       PostSCFGGA      .... off
 Hybrid DFT is turned on
   Fraction HF Exchange ScalHFX         ....  0.200000
   Scaling of DF-GGA-X  ScalDFX         ....  0.720000
   Scaling of DF-GGA-C  ScalDFC         ....  0.810000
   Scaling of DF-LDA-C  ScalLDAC        ....  1.000000
   Perturbative correction              ....  0.000000
   Density functional embedding theory  .... OFF
   NL short-range parameter             ....  4.800000
 RI-approximation to the Coulomb term is turned on
   Number of AuxJ basis functions       .... 895
   RIJ-COSX (HFX calculated with COS-X)).... on


General Settings:
 Integral files         IntName         .... opt
 Hartree-Fock type      HFTyp           .... UHF
 Total Charge           Charge          ....    1
 Multiplicity           Mult            ....    2
 Number of Electrons    NEL             ....  109
 Basis Dimension        Dim             ....  371
 Nuclear Repulsion      ENuc            ....    939.5053577847 Eh

Convergence Acceleration:
 DIIS                   CNVDIIS         .... on
   Start iteration      DIISMaxIt       ....    12
   Startup error        DIISStart       ....  0.200000
   # of expansion vecs  DIISMaxEq       ....     5
   Bias factor          DIISBfac        ....   1.050
   Max. coefficient     DIISMaxC        ....  10.000
 Trust-Rad. Augm. Hess. CNVTRAH         .... auto
   Auto Start mean grad. ratio tolernc. ....  1.125000
   Auto Start start iteration           ....    20
   Auto Start num. interpolation iter.  ....    10
   Max. Number of Micro iterations      ....    16
   Max. Number of Macro iterations      .... Maxiter - #DIIS iter
   Number of Davidson start vectors     ....     2
   Converg. threshold I  (grad. norm)   ....   1.000e-05
   Converg. threshold II (energy diff.) ....   1.000e-08
   Grad. Scal. Fac. for Micro threshold ....   0.100
   Minimum threshold for Micro iter.    ....   0.010
   NR start threshold (gradient norm)   ....   0.001
   Initial trust radius                 ....   0.400
   Minimum AH scaling param. (alpha)    ....   1.000
   Maximum AH scaling param. (alpha)    .... 1000.000
   Orbital update algorithm             .... Taylor
   White noise on init. David. guess    .... on
   Maximum white noise                  ....   0.010
   Quad. conv. algorithm                .... NR
 SOSCF                  CNVSOSCF        .... off
 Level Shifting         CNVShift        .... on
   Level shift para.    LevelShift      ....    0.2500
   Turn off err/grad.   ShiftErr        ....    0.0010
 Zerner damping         CNVZerner       .... off
 Static damping         CNVDamp         .... on
   Fraction old density DampFac         ....    0.7000
   Max. Damping (<1)    DampMax         ....    0.9800
   Min. Damping (>=0)   DampMin         ....    0.0000
   Turn off err/grad.   DampErr         ....    0.1000
 Fernandez-Rico         CNVRico         .... off

SCF Procedure:
 Maximum # iterations   MaxIter         ....   125
 SCF integral mode      SCFMode         .... Direct
   Integral package                     .... SHARK and LIBINT hybrid scheme
 Reset frequency        DirectResetFreq ....    20
 Integral Threshold     Thresh          ....  2.500e-11 Eh
 Primitive CutOff       TCut            ....  2.500e-12 Eh

Convergence Tolerance:
 Convergence Check Mode ConvCheckMode   .... Total+1el-Energy
 Convergence forced     ConvForced      .... 0
 Energy Change          TolE            ....  1.000e-08 Eh
 1-El. energy change                    ....  1.000e-05 Eh
 DIIS Error             TolErr          ....  5.000e-07


Diagonalization of the overlap matrix:
Smallest eigenvalue                        ... 1.045e-03
Time for diagonalization                   ...    0.015 sec
Threshold for overlap eigenvalues          ... 1.000e-08
Number of eigenvalues below threshold      ... 0
Time for construction of square roots      ...    0.011 sec
Total time needed                          ...    0.027 sec

Time for model grid setup =    0.124 sec

------------------------------
INITIAL GUESS: MODEL POTENTIAL
------------------------------
Loading Hartree-Fock densities                     ... done
Calculating cut-offs                               ... done
Initializing the effective Hamiltonian             ... done
Setting up the integral package (SHARK)            ... done
Starting the Coulomb interaction                   ... done (   0.1 sec)
Reading the grid                                   ... done
Mapping shells                                     ... done
Starting the XC term evaluation                    ... done (   0.0 sec)
  promolecular density results
     # of electrons  =    109.990131237
     EX              =    -88.074518868
     EC              =     -3.688968307
     EX+EC           =    -91.763487175
Transforming the Hamiltonian                       ... done (   0.0 sec)
Diagonalizing the Hamiltonian                      ... done (   0.0 sec)
Back transforming the eigenvectors                 ... done (   0.0 sec)
Now organizing SCF variables                       ... done
                      ------------------
                      INITIAL GUESS DONE (   0.3 sec)
                      ------------------
-------------------
DFT GRID GENERATION
-------------------

General Integration Accuracy     IntAcc      ... 4.388
Radial Grid Type                 RadialGrid  ... OptM3 with GC (2021)
Angular Grid (max. ang.)         AngularGrid ... 4 (Lebedev-302)
Angular grid pruning method      GridPruning ... 4 (adaptive)
Weight generation scheme         WeightScheme... Becke
Basis function cutoff            BFCut       ... 1.0000e-11
Integration weight cutoff        WCut        ... 1.0000e-14
Angular grids for H and He will be reduced by one unit
Partially contracted basis set               ... off
Rotationally invariant grid construction     ... off

Total number of grid points                  ...   144682
Total number of batches                      ...     2278
Average number of points per batch           ...       63
Average number of grid points per atom       ...     4384
Time for grid setup =    0.614 sec

--------------------
COSX GRID GENERATION
--------------------

GRIDX 1
-------
General Integration Accuracy     IntAcc      ... 3.816
Radial Grid Type                 RadialGrid  ... OptM3 with GC (2021)
Angular Grid (max. ang.)         AngularGrid ... 1 (Lebedev-50)
Angular grid pruning method      GridPruning ... 4 (adaptive)
Weight generation scheme         WeightScheme... Becke
Basis function cutoff            BFCut       ... 1.0000e-11
Integration weight cutoff        WCut        ... 1.0000e-14
Angular grids for H and He will be reduced by one unit
Partially contracted basis set               ... on
Rotationally invariant grid construction     ... off

Total number of grid points                  ...    18465
Total number of batches                      ...      310
Average number of points per batch           ...       59
Average number of grid points per atom       ...      560
UseSFitting                                  ... on

GRIDX 2
-------
General Integration Accuracy     IntAcc      ... 4.020
Radial Grid Type                 RadialGrid  ... OptM3 with GC (2021)
Angular Grid (max. ang.)         AngularGrid ... 2 (Lebedev-110)
Angular grid pruning method      GridPruning ... 4 (adaptive)
Weight generation scheme         WeightScheme... Becke
Basis function cutoff            BFCut       ... 1.0000e-11
Integration weight cutoff        WCut        ... 1.0000e-14
Angular grids for H and He will be reduced by one unit
Partially contracted basis set               ... on
Rotationally invariant grid construction     ... off

Total number of grid points                  ...    38978
Total number of batches                      ...      626
Average number of points per batch           ...       62
Average number of grid points per atom       ...     1181
UseSFitting                                  ... on

GRIDX 3
-------
General Integration Accuracy     IntAcc      ... 4.338
Radial Grid Type                 RadialGrid  ... OptM3 with GC (2021)
Angular Grid (max. ang.)         AngularGrid ... 3 (Lebedev-194)
Angular grid pruning method      GridPruning ... 4 (adaptive)
Weight generation scheme         WeightScheme... Becke
Basis function cutoff            BFCut       ... 1.0000e-11
Integration weight cutoff        WCut        ... 1.0000e-14
Angular grids for H and He will be reduced by one unit
Partially contracted basis set               ... on
Rotationally invariant grid construction     ... off

Total number of grid points                  ...    84925
Total number of batches                      ...     1341
Average number of points per batch           ...       63
Average number of grid points per atom       ...     2573
UseSFitting                                  ... on

Time for X-Grid setup             =    0.794 sec

--------------
SCF ITERATIONS
--------------
ITER       Energy         Delta-E        Max-DP      RMS-DP      [F,P]     Damp
               ***  Starting incremental Fock matrix formation  ***
  0   -668.1517690056   0.000000000000 0.06671541  0.00086530  0.1277406 0.7000
  1   -668.3604390514  -0.208670045717 0.04262065  0.00059833  0.0497832 0.7000
                               ***Turning on DIIS***
  2   -668.4369548441  -0.076515792728 0.06693511  0.00093759  0.0198232 0.0000
  3   -668.5591541222  -0.122199278076 0.03367986  0.00046230  0.0278554 0.0000
  4   -668.5882432994  -0.029089177212 0.01274689  0.00016940  0.0084407 0.0000
  5   -668.5901180483  -0.001874748915 0.00565916  0.00006871  0.0065615 0.0000
  6   -668.5906001060  -0.000482057673 0.00226231  0.00002584  0.0013413 0.0000
  7   -668.5906446393  -0.000044533371 0.00572428  0.00005767  0.0006090 0.0000
               *** Restarting incremental Fock matrix formation ***
                                   *** Resetting DIIS ***
  8   -668.5906010847   0.000043554626 0.00511622  0.00004352  0.0020414 0.0000
  9   -668.5906003281   0.000000756654 0.00154378  0.00001322  0.0028296 0.0000
 10   -668.5906760716  -0.000075743504 0.00057583  0.00000808  0.0012556 0.0000
 11   -668.5906962285  -0.000020156953 0.00163298  0.00001569  0.0006079 0.0000
 12   -668.5907032128  -0.000006984281 0.00094083  0.00000741  0.0003631 0.0000
 13   -668.5907064538  -0.000003241038 0.00021361  0.00000281  0.0001352 0.0000
 14   -668.5907070760  -0.000000622137 0.00032120  0.00000344  0.0000775 0.0000
 15   -668.5907074061  -0.000000330123 0.00017385  0.00000169  0.0000655 0.0000
 16   -668.5907075854  -0.000000179281 0.00021172  0.00000182  0.0000401 0.0000
 17   -668.5907076815  -0.000000096079 0.00017909  0.00000147  0.0000192 0.0000
 18   -668.5907077322  -0.000000050712 0.00003269  0.00000028  0.0000118 0.0000
 19   -668.5907077268   0.000000005354 0.00011493  0.00000095  0.0000131 0.0000
 20   -668.5907077438  -0.000000017036 0.00003668  0.00000037  0.0000094 0.0000
 21   -668.5907077465  -0.000000002648 0.00003041  0.00000031  0.0000118 0.0000
                 **** Energy Check signals convergence ****

               *****************************************************
               *                     SUCCESS                       *
               *           SCF CONVERGED AFTER  22 CYCLES          *
               *****************************************************

Old exchange energy                            =    -17.867778762 Eh
New exchange energy                            =    -17.867799034 Eh
Exchange energy change after final integration =     -0.000020272 Eh
Total energy after final integration           =   -668.590728019 Eh
Final COS-X integration done in                =     2.316 sec

----------------
TOTAL SCF ENERGY
----------------

Total Energy       :         -668.59072802 Eh          -18193.27864 eV

Components:
Nuclear Repulsion  :          939.50535778 Eh           25565.24050 eV
Electronic Energy  :        -1608.09608580 Eh          -43758.51913 eV
One Electron Energy:        -2758.00397734 Eh          -75049.10365 eV
Two Electron Energy:         1149.90789154 Eh           31290.58451 eV
Max COSX asymmetry :            0.00000137 Eh               0.00004 eV

Virial components:
Potential Energy   :        -1332.82106944 Eh          -36267.90512 eV
Kinetic Energy     :          664.23034142 Eh           18074.62649 eV
Virial Ratio       :            2.00656457


DFT components:
N(Alpha)           :       54.999936645550 electrons
N(Beta)            :       53.999934998443 electrons
N(Total)           :      108.999871643993 electrons
E(X)               :      -71.023996780779 Eh       
E(C)               :       -4.318823375755 Eh       
E(XC)              :      -75.342820156534 Eh       
DFET-embed. en.    :        0.000000000000 Eh       

---------------
SCF CONVERGENCE
---------------

  Last Energy change         ...   -1.3172e-09  Tolerance :   1.0000e-08
  Last MAX-Density change    ...    0.0000e+00  Tolerance :   1.0000e-07
  Last RMS-Density change    ...    0.0000e+00  Tolerance :   5.0000e-09
  Last DIIS Error            ...    4.8718e-06  Tolerance :   5.0000e-07

             **** THE GBW FILE WAS UPDATED (opt.gbw) ****
             **** DENSITY opt.scfp WAS UPDATED ****
             **** ENERGY FILE WAS UPDATED (opt.en.tmp) ****
----------------------
UHF SPIN CONTAMINATION
----------------------

Warning: in a DFT calculation there is little theoretical justification to 
         calculate <S**2> as in Hartree-Fock theory. We will do it anyways
         but you should keep in mind that the values have only limited relevance

Expectation value of <S**2>     :     0.754965
Ideal value S*(S+1) for S=0.5   :     0.750000
Deviation                       :     0.004965

             **** THE GBW FILE WAS UPDATED (opt.gbw) ****
             **** DENSITY opt.scfp WAS UPDATED ****
----------------
ORBITAL ENERGIES
----------------
                 SPIN UP ORBITALS
  NO   OCC          E(Eh)            E(eV) 
   0   1.0000     -19.243410      -523.6398 
   1   1.0000     -19.240151      -523.5511 
   2   1.0000     -14.550259      -395.9327 
   3   1.0000     -14.499639      -394.5552 
   4   1.0000     -14.490607      -394.3095 
   5   1.0000     -10.420554      -283.5577 
   6   1.0000     -10.416574      -283.4494 
   7   1.0000     -10.391842      -282.7764 
   8   1.0000     -10.374191      -282.2961 
   9   1.0000     -10.351245      -281.6717 
  10   1.0000     -10.330385      -281.1041 
  11   1.0000     -10.328611      -281.0558 
  12   1.0000     -10.325081      -280.9597 
  13   1.0000     -10.295425      -280.1528 
  14   1.0000      -1.178561       -32.0703 
  15   1.0000      -1.169165       -31.8146 
  16   1.0000      -1.103962       -30.0403 
  17   1.0000      -1.063397       -28.9365 
  18   1.0000      -1.052623       -28.6433 
  19   1.0000      -0.947540       -25.7839 
  20   1.0000      -0.902958       -24.5707 
  21   1.0000      -0.856227       -23.2991 
  22   1.0000      -0.839291       -22.8383 
  23   1.0000      -0.809359       -22.0238 
  24   1.0000      -0.771660       -20.9979 
  25   1.0000      -0.741677       -20.1820 
  26   1.0000      -0.719208       -19.5707 
  27   1.0000      -0.716554       -19.4984 
  28   1.0000      -0.704839       -19.1797 
  29   1.0000      -0.663870       -18.0648 
  30   1.0000      -0.647825       -17.6282 
  31   1.0000      -0.618635       -16.8339 
  32   1.0000      -0.610794       -16.6206 
  33   1.0000      -0.601589       -16.3701 
  34   1.0000      -0.591308       -16.0903 
  35   1.0000      -0.578321       -15.7369 
  36   1.0000      -0.570528       -15.5248 
  37   1.0000      -0.566786       -15.4230 
  38   1.0000      -0.555611       -15.1189 
  39   1.0000      -0.546906       -14.8821 
  40   1.0000      -0.530977       -14.4486 
  41   1.0000      -0.524341       -14.2680 
  42   1.0000      -0.514428       -13.9983 
  43   1.0000      -0.508234       -13.8298 
  44   1.0000      -0.507596       -13.8124 
  45   1.0000      -0.502866       -13.6837 
  46   1.0000      -0.492486       -13.4012 
  47   1.0000      -0.489966       -13.3326 
  48   1.0000      -0.480144       -13.0654 
  49   1.0000      -0.470355       -12.7990 
  50   1.0000      -0.431756       -11.7487 
  51   1.0000      -0.402251       -10.9458 
  52   1.0000      -0.391614       -10.6564 
  53   1.0000      -0.380907       -10.3650 
  54   1.0000      -0.379665       -10.3312 
  55   0.0000      -0.121060        -3.2942 
  56   0.0000      -0.113806        -3.0968 
  57   0.0000      -0.099000        -2.6939 
  58   0.0000      -0.095142        -2.5889 
  59   0.0000      -0.088224        -2.4007 
  60   0.0000      -0.078483        -2.1356 
  61   0.0000      -0.069787        -1.8990 
  62   0.0000      -0.062528        -1.7015 
  63   0.0000      -0.035617        -0.9692 
  64   0.0000      -0.033344        -0.9073 
  65   0.0000      -0.028253        -0.7688 
  66   0.0000      -0.025031        -0.6811 
  67   0.0000      -0.018834        -0.5125 
  68   0.0000      -0.004599        -0.1251 
  69   0.0000      -0.000385        -0.0105 
  70   0.0000       0.013698         0.3728 
  71   0.0000       0.021888         0.5956 
  72   0.0000       0.043881         1.1941 
  73   0.0000       0.049346         1.3428 
  74   0.0000       0.051770         1.4087 
  75   0.0000       0.055736         1.5167 
  76   0.0000       0.062700         1.7061 
  77   0.0000       0.072062         1.9609 
  78   0.0000       0.077901         2.1198 
  79   0.0000       0.082253         2.2382 
  80   0.0000       0.087692         2.3862 
  81   0.0000       0.090197         2.4544 
  82   0.0000       0.092323         2.5122 
  83   0.0000       0.094518         2.5720 
  84   0.0000       0.105538         2.8718 
  85   0.0000       0.108076         2.9409 
  86   0.0000       0.113571         3.0904 
  87   0.0000       0.122375         3.3300 
  88   0.0000       0.129519         3.5244 
  89   0.0000       0.132346         3.6013 
  90   0.0000       0.139820         3.8047 
  91   0.0000       0.143269         3.8985 
  92   0.0000       0.149579         4.0703 
  93   0.0000       0.151085         4.1112 
  94   0.0000       0.163013         4.4358 
  95   0.0000       0.165988         4.5168 
  96   0.0000       0.168867         4.5951 
  97   0.0000       0.172803         4.7022 
  98   0.0000       0.178309         4.8520 
  99   0.0000       0.192721         5.2442 
 100   0.0000       0.196608         5.3500 
 101   0.0000       0.201411         5.4807 
 102   0.0000       0.205306         5.5867 
 103   0.0000       0.207636         5.6501 
 104   0.0000       0.230425         6.2702 
 105   0.0000       0.237306         6.4574 
 106   0.0000       0.247928         6.7465 
 107   0.0000       0.255660         6.9569 
 108   0.0000       0.259352         7.0573 
 109   0.0000       0.269570         7.3354 
 110   0.0000       0.274332         7.4650 
 111   0.0000       0.286310         7.7909 
 112   0.0000       0.290567         7.9067 
 113   0.0000       0.308853         8.4043 
 114   0.0000       0.312980         8.5166 
 115   0.0000       0.323116         8.7924 
 116   0.0000       0.335315         9.1244 
 117   0.0000       0.343160         9.3379 
 118   0.0000       0.352390         9.5890 
 119   0.0000       0.363738         9.8978 
 120   0.0000       0.370077        10.0703 
 121   0.0000       0.384406        10.4602 
 122   0.0000       0.401667        10.9299 
 123   0.0000       0.406676        11.0662 
 124   0.0000       0.418519        11.3885 
 125   0.0000       0.426151        11.5961 
 126   0.0000       0.444833        12.1045 
 127   0.0000       0.446335        12.1454 
 128   0.0000       0.463164        12.6033 
 129   0.0000       0.475889        12.9496 
 130   0.0000       0.490185        13.3386 
 131   0.0000       0.516417        14.0524 
 132   0.0000       0.541908        14.7461 
 133   0.0000       0.559182        15.2161 
 134   0.0000       0.564639        15.3646 
 135   0.0000       0.575419        15.6580 
 136   0.0000       0.584409        15.9026 
 137   0.0000       0.598598        16.2887 
 138   0.0000       0.613320        16.6893 
 139   0.0000       0.640238        17.4218 
 140   0.0000       0.665045        18.0968 
 141   0.0000       0.679393        18.4872 
 142   0.0000       0.685092        18.6423 
 143   0.0000       0.698941        19.0191 
 144   0.0000       0.707343        19.2478 
 145   0.0000       0.725543        19.7430 
 146   0.0000       0.727015        19.7831 
 147   0.0000       0.728302        19.8181 
 148   0.0000       0.732197        19.9241 
 149   0.0000       0.737961        20.0810 
 150   0.0000       0.751662        20.4538 
 151   0.0000       0.758877        20.6501 
 152   0.0000       0.761408        20.7190 
 153   0.0000       0.774898        21.0860 
 154   0.0000       0.777062        21.1449 
 155   0.0000       0.786355        21.3978 
 156   0.0000       0.798766        21.7355 
 157   0.0000       0.807343        21.9689 
 158   0.0000       0.809227        22.0202 
 159   0.0000       0.819588        22.3021 
 160   0.0000       0.827536        22.5184 
 161   0.0000       0.830146        22.5894 
 162   0.0000       0.837565        22.7913 
 163   0.0000       0.844819        22.9887 
 164   0.0000       0.858693        23.3662 
 165   0.0000       0.866570        23.5806 
 166   0.0000       0.880804        23.9679 
 167   0.0000       0.892073        24.2745 
 168   0.0000       0.901788        24.5389 
 169   0.0000       0.908597        24.7242 
 170   0.0000       0.920182        25.0394 
 171   0.0000       0.929721        25.2990 
 172   0.0000       0.943857        25.6837 
 173   0.0000       0.956949        26.0399 
 174   0.0000       0.961051        26.1515 
 175   0.0000       0.995252        27.0822 
 176   0.0000       1.008873        27.4528 
 177   0.0000       1.019116        27.7315 
 178   0.0000       1.023382        27.8476 
 179   0.0000       1.031909        28.0797 
 180   0.0000       1.039683        28.2912 
 181   0.0000       1.045538        28.4505 
 182   0.0000       1.057921        28.7875 
 183   0.0000       1.068855        29.0850 
 184   0.0000       1.091931        29.7130 
 185   0.0000       1.102213        29.9927 
 186   0.0000       1.106626        30.1128 
 187   0.0000       1.140089        31.0234 
 188   0.0000       1.162678        31.6381 
 189   0.0000       1.202429        32.7198 
 190   0.0000       1.214472        33.0475 
 191   0.0000       1.232599        33.5407 
 192   0.0000       1.239337        33.7241 
 193   0.0000       1.257007        34.2049 
 194   0.0000       1.257858        34.2280 
 195   0.0000       1.292769        35.1780 
 196   0.0000       1.307774        35.5864 
 197   0.0000       1.308698        35.6115 
 198   0.0000       1.312807        35.7233 
 199   0.0000       1.326945        36.1080 
 200   0.0000       1.355743        36.8917 
 201   0.0000       1.357214        36.9317 
 202   0.0000       1.377394        37.4808 
 203   0.0000       1.388526        37.7837 
 204   0.0000       1.392947        37.9040 
 205   0.0000       1.394537        37.9473 
 206   0.0000       1.404728        38.2246 
 207   0.0000       1.405237        38.2384 
 208   0.0000       1.411424        38.4068 
 209   0.0000       1.445849        39.3435 
 210   0.0000       1.451733        39.5037 
 211   0.0000       1.459265        39.7086 
 212   0.0000       1.470306        40.0091 
 213   0.0000       1.479534        40.2602 
 214   0.0000       1.484715        40.4011 
 215   0.0000       1.499405        40.8009 
 216   0.0000       1.503705        40.9179 
 217   0.0000       1.515594        41.2414 
 218   0.0000       1.523444        41.4550 
 219   0.0000       1.528577        41.5947 
 220   0.0000       1.543671        42.0054 
 221   0.0000       1.555759        42.3343 
 222   0.0000       1.560619        42.4666 
 223   0.0000       1.569640        42.7121 
 224   0.0000       1.582255        43.0553 
 225   0.0000       1.590145        43.2700 
 226   0.0000       1.600335        43.5473 
 227   0.0000       1.616276        43.9811 
 228   0.0000       1.621186        44.1147 
 229   0.0000       1.624873        44.2151 
 230   0.0000       1.653488        44.9937 
 231   0.0000       1.656148        45.0661 
 232   0.0000       1.677576        45.6492 
 233   0.0000       1.700241        46.2659 
 234   0.0000       1.706214        46.4284 
 235   0.0000       1.721833        46.8535 
 236   0.0000       1.736533        47.2535 
 237   0.0000       1.743645        47.4470 
 238   0.0000       1.757951        47.8363 
 239   0.0000       1.779194        48.4143 
 240   0.0000       1.793311        48.7985 
 241   0.0000       1.811726        49.2996 
 242   0.0000       1.844635        50.1951 
 243   0.0000       1.852511        50.4094 
 244   0.0000       1.877973        51.1022 
 245   0.0000       1.898060        51.6488 
 246   0.0000       1.903754        51.8038 
 247   0.0000       1.915153        52.1140 
 248   0.0000       1.933089        52.6020 
 249   0.0000       1.939407        52.7739 
 250   0.0000       1.962185        53.3938 
 251   0.0000       1.976552        53.7847 
 252   0.0000       2.006855        54.6093 
 253   0.0000       2.016646        54.8757 
 254   0.0000       2.039290        55.4919 
 255   0.0000       2.057461        55.9864 
 256   0.0000       2.073523        56.4234 
 257   0.0000       2.082605        56.6706 
 258   0.0000       2.097307        57.0706 
 259   0.0000       2.113534        57.5122 
 260   0.0000       2.120264        57.6953 
 261   0.0000       2.138485        58.1911 
 262   0.0000       2.150421        58.5159 
 263   0.0000       2.158709        58.7415 
 264   0.0000       2.170710        59.0680 
 265   0.0000       2.181387        59.3586 
 266   0.0000       2.199440        59.8498 
 267   0.0000       2.221369        60.4465 
 268   0.0000       2.235530        60.8319 
 269   0.0000       2.255716        61.3812 
 270   0.0000       2.273662        61.8695 
 271   0.0000       2.279823        62.0371 
 272   0.0000       2.283416        62.1349 
 273   0.0000       2.308225        62.8100 
 274   0.0000       2.321943        63.1833 
 275   0.0000       2.327358        63.3306 
 276   0.0000       2.348883        63.9164 
 277   0.0000       2.363397        64.3113 
 278   0.0000       2.374618        64.6167 
 279   0.0000       2.385740        64.9193 
 280   0.0000       2.391841        65.0853 
 281   0.0000       2.398088        65.2553 
 282   0.0000       2.423558        65.9484 
 283   0.0000       2.440933        66.4212 
 284   0.0000       2.453956        66.7755 
 285   0.0000       2.479776        67.4781 
 286   0.0000       2.498198        67.9794 
 287   0.0000       2.507970        68.2453 
 288   0.0000       2.538116        69.0657 
 289   0.0000       2.583433        70.2988 
 290   0.0000       2.594205        70.5919 
 291   0.0000       2.627757        71.5049 
 292   0.0000       2.638460        71.7962 
 293   0.0000       2.641344        71.8746 
 294   0.0000       2.673168        72.7406 
 295   0.0000       2.698252        73.4232 
 296   0.0000       2.773052        75.4586 
 297   0.0000       2.870601        78.1130 
 298   0.0000       2.915378        79.3315 
 299   0.0000       2.986158        81.2575 
 300   0.0000       2.998342        81.5890 
 301   0.0000       3.267000        88.8996 
 302   0.0000       3.312680        90.1426 
 303   0.0000       3.327750        90.5527 
 304   0.0000       3.335694        90.7689 
 305   0.0000       4.733443       128.8035 
 306   0.0000       4.864785       132.3775 
 307   0.0000       4.870102       132.5222 
 308   0.0000       4.887418       132.9934 
 309   0.0000       4.891904       133.1155 
 310   0.0000       4.897911       133.2789 
 311   0.0000       4.913859       133.7129 
 312   0.0000       4.921266       133.9144 
 313   0.0000       4.938121       134.3731 
 314   0.0000       4.956308       134.8680 
 315   0.0000       4.978118       135.4615 
 316   0.0000       4.990782       135.8061 
 317   0.0000       5.026732       136.7843 
 318   0.0000       5.060672       137.7079 
 319   0.0000       5.110666       139.0683 
 320   0.0000       5.136835       139.7804 
 321   0.0000       5.144738       139.9954 
 322   0.0000       5.175361       140.8287 
 323   0.0000       5.183368       141.0466 
 324   0.0000       5.212051       141.8271 
 325   0.0000       5.250337       142.8689 
 326   0.0000       5.262947       143.2121 
 327   0.0000       5.350883       145.6049 
 328   0.0000       5.457438       148.5044 
 329   0.0000       5.508981       149.9070 
 330   0.0000       5.580224       151.8456 
 331   0.0000       5.615135       152.7956 
 332   0.0000       5.712572       155.4470 
 333   0.0000       7.061429       192.1513 
 334   0.0000       7.172198       195.1654 
 335   0.0000       7.213496       196.2892 
 336   0.0000       8.956360       243.7149 
 337   0.0000       9.008621       245.1370 
 338   0.0000      29.465945       801.8091 
 339   0.0000      29.511264       803.0423 
 340   0.0000      29.654283       806.9341 
 341   0.0000      29.771934       810.1355 
 342   0.0000      29.829368       811.6984 
 343   0.0000      29.912424       813.9585 
 344   0.0000      29.970608       815.5417 
 345   0.0000      30.005814       816.4997 
 346   0.0000      30.134667       820.0060 
 347   0.0000      36.337697       988.7990 
 348   0.0000      36.474767       992.5289 
 349   0.0000      36.500908       993.2402 
 350   0.0000      36.506708       993.3980 
 351   0.0000      36.510273       993.4950 
 352   0.0000      36.513626       993.5863 
 353   0.0000      36.528909       994.0021 
 354   0.0000      36.533276       994.1210 
 355   0.0000      36.544931       994.4381 
 356   0.0000      36.572355       995.1844 
 357   0.0000      36.590362       995.6744 
 358   0.0000      36.607949       996.1529 
 359   0.0000      36.663651       997.6687 
 360   0.0000      36.671407       997.8797 
 361   0.0000      36.719247       999.1815 
 362   0.0000      36.745344       999.8917 
 363   0.0000      36.789839      1001.1024 
 364   0.0000      36.807015      1001.5698 
 365   0.0000      36.817591      1001.8576 
 366   0.0000      40.985906      1115.2832 
 367   0.0000      41.105156      1118.5282 
 368   0.0000      41.162285      1120.0827 
 369   0.0000      53.494323      1455.6545 
 370   0.0000      53.542205      1456.9575 

                 SPIN DOWN ORBITALS
  NO   OCC          E(Eh)            E(eV) 
   0   1.0000     -19.242560      -523.6167 
   1   1.0000     -19.238098      -523.4953 
   2   1.0000     -14.540378      -395.6638 
   3   1.0000     -14.496244      -394.4628 
   4   1.0000     -14.489826      -394.2882 
   5   1.0000     -10.420640      -283.5600 
   6   1.0000     -10.417201      -283.4664 
   7   1.0000     -10.391373      -282.7636 
   8   1.0000     -10.373591      -282.2798 
   9   1.0000     -10.348999      -281.6106 
  10   1.0000     -10.329404      -281.0774 
  11   1.0000     -10.328107      -281.0421 
  12   1.0000     -10.325072      -280.9595 
  13   1.0000     -10.295401      -280.1521 
  14   1.0000      -1.176285       -32.0083 
  15   1.0000      -1.165875       -31.7251 
  16   1.0000      -1.083846       -29.4929 
  17   1.0000      -1.056655       -28.7530 
  18   1.0000      -1.050837       -28.5947 
  19   1.0000      -0.942257       -25.6401 
  20   1.0000      -0.897315       -24.4172 
  21   1.0000      -0.851788       -23.1783 
  22   1.0000      -0.837924       -22.8011 
  23   1.0000      -0.805904       -21.9298 
  24   1.0000      -0.767812       -20.8932 
  25   1.0000      -0.738623       -20.0989 
  26   1.0000      -0.715487       -19.4694 
  27   1.0000      -0.713023       -19.4023 
  28   1.0000      -0.702435       -19.1142 
  29   1.0000      -0.662445       -18.0261 
  30   1.0000      -0.641720       -17.4621 
  31   1.0000      -0.616281       -16.7699 
  32   1.0000      -0.606542       -16.5048 
  33   1.0000      -0.594201       -16.1690 
  34   1.0000      -0.589617       -16.0443 
  35   1.0000      -0.576009       -15.6740 
  36   1.0000      -0.567429       -15.4405 
  37   1.0000      -0.555510       -15.1162 
  38   1.0000      -0.550099       -14.9690 
  39   1.0000      -0.543817       -14.7980 
  40   1.0000      -0.528958       -14.3937 
  41   1.0000      -0.519039       -14.1238 
  42   1.0000      -0.513015       -13.9599 
  43   1.0000      -0.507355       -13.8058 
  44   1.0000      -0.503807       -13.7093 
  45   1.0000      -0.500713       -13.6251 
  46   1.0000      -0.488750       -13.2996 
  47   1.0000      -0.485210       -13.2032 
  48   1.0000      -0.477667       -12.9980 
  49   1.0000      -0.461074       -12.5465 
  50   1.0000      -0.392382       -10.6773 
  51   1.0000      -0.384484       -10.4623 
  52   1.0000      -0.376589       -10.2475 
  53   1.0000      -0.366748        -9.9797 
  54   0.0000      -0.334261        -9.0957 
  55   0.0000      -0.118509        -3.2248 
  56   0.0000      -0.111908        -3.0452 
  57   0.0000      -0.097828        -2.6620 
  58   0.0000      -0.091307        -2.4846 
  59   0.0000      -0.087319        -2.3761 
  60   0.0000      -0.077294        -2.1033 
  61   0.0000      -0.068880        -1.8743 
  62   0.0000      -0.062120        -1.6904 
  63   0.0000      -0.034841        -0.9481 
  64   0.0000      -0.032233        -0.8771 
  65   0.0000      -0.026563        -0.7228 
  66   0.0000      -0.024201        -0.6585 
  67   0.0000      -0.017255        -0.4695 
  68   0.0000      -0.002150        -0.0585 
  69   0.0000       0.000444         0.0121 
  70   0.0000       0.016078         0.4375 
  71   0.0000       0.023890         0.6501 
  72   0.0000       0.044870         1.2210 
  73   0.0000       0.050742         1.3808 
  74   0.0000       0.053125         1.4456 
  75   0.0000       0.056682         1.5424 
  76   0.0000       0.064812         1.7636 
  77   0.0000       0.073753         2.0069 
  78   0.0000       0.079428         2.1614 
  79   0.0000       0.083685         2.2772 
  80   0.0000       0.088589         2.4106 
  81   0.0000       0.092948         2.5292 
  82   0.0000       0.093469         2.5434 
  83   0.0000       0.096147         2.6163 
  84   0.0000       0.107903         2.9362 
  85   0.0000       0.109719         2.9856 
  86   0.0000       0.115190         3.1345 
  87   0.0000       0.123945         3.3727 
  88   0.0000       0.131134         3.5683 
  89   0.0000       0.133425         3.6307 
  90   0.0000       0.140431         3.8213 
  91   0.0000       0.144022         3.9190 
  92   0.0000       0.150899         4.1062 
  93   0.0000       0.152613         4.1528 
  94   0.0000       0.164304         4.4709 
  95   0.0000       0.167261         4.5514 
  96   0.0000       0.169998         4.6259 
  97   0.0000       0.174162         4.7392 
  98   0.0000       0.179512         4.8848 
  99   0.0000       0.193699         5.2708 
 100   0.0000       0.197518         5.3747 
 101   0.0000       0.202352         5.5063 
 102   0.0000       0.206186         5.6106 
 103   0.0000       0.208138         5.6637 
 104   0.0000       0.231300         6.2940 
 105   0.0000       0.237968         6.4754 
 106   0.0000       0.249005         6.7758 
 107   0.0000       0.256475         6.9790 
 108   0.0000       0.260805         7.0969 
 109   0.0000       0.270642         7.3645 
 110   0.0000       0.275851         7.5063 
 111   0.0000       0.288161         7.8413 
 112   0.0000       0.291638         7.9359 
 113   0.0000       0.309989         8.4352 
 114   0.0000       0.314621         8.5613 
 115   0.0000       0.324835         8.8392 
 116   0.0000       0.339690         9.2434 
 117   0.0000       0.344491         9.3741 
 118   0.0000       0.358440         9.7536 
 119   0.0000       0.364855         9.9282 
 120   0.0000       0.372850        10.1458 
 121   0.0000       0.388235        10.5644 
 122   0.0000       0.404405        11.0044 
 123   0.0000       0.409940        11.1550 
 124   0.0000       0.421381        11.4664 
 125   0.0000       0.432466        11.7680 
 126   0.0000       0.447010        12.1638 
 127   0.0000       0.451516        12.2864 
 128   0.0000       0.467309        12.7161 
 129   0.0000       0.477169        12.9844 
 130   0.0000       0.491614        13.3775 
 131   0.0000       0.518975        14.1220 
 132   0.0000       0.546931        14.8828 
 133   0.0000       0.560995        15.2654 
 134   0.0000       0.567660        15.4468 
 135   0.0000       0.577067        15.7028 
 136   0.0000       0.587227        15.9792 
 137   0.0000       0.600503        16.3405 
 138   0.0000       0.614012        16.7081 
 139   0.0000       0.641313        17.4510 
 140   0.0000       0.667141        18.1538 
 141   0.0000       0.682952        18.5841 
 142   0.0000       0.686342        18.6763 
 143   0.0000       0.700265        19.0552 
 144   0.0000       0.708387        19.2762 
 145   0.0000       0.726157        19.7597 
 146   0.0000       0.728107        19.8128 
 147   0.0000       0.730096        19.8669 
 148   0.0000       0.734479        19.9862 
 149   0.0000       0.739024        20.1099 
 150   0.0000       0.753256        20.4971 
 151   0.0000       0.759783        20.6748 
 152   0.0000       0.763187        20.7674 
 153   0.0000       0.775458        21.1013 
 154   0.0000       0.778041        21.1716 
 155   0.0000       0.788699        21.4616 
 156   0.0000       0.799787        21.7633 
 157   0.0000       0.808183        21.9918 
 158   0.0000       0.810162        22.0456 
 159   0.0000       0.820621        22.3302 
 160   0.0000       0.828524        22.5453 
 161   0.0000       0.831929        22.6379 
 162   0.0000       0.838466        22.8158 
 163   0.0000       0.846373        23.0310 
 164   0.0000       0.860256        23.4088 
 165   0.0000       0.868069        23.6213 
 166   0.0000       0.881659        23.9912 
 167   0.0000       0.893741        24.3199 
 168   0.0000       0.904602        24.6155 
 169   0.0000       0.910396        24.7731 
 170   0.0000       0.924190        25.1485 
 171   0.0000       0.933057        25.3898 
 172   0.0000       0.944866        25.7111 
 173   0.0000       0.959643        26.1132 
 174   0.0000       0.963277        26.2121 
 175   0.0000       0.999521        27.1984 
 176   0.0000       1.010237        27.4899 
 177   0.0000       1.022521        27.8242 
 178   0.0000       1.025629        27.9088 
 179   0.0000       1.035751        28.1842 
 180   0.0000       1.042440        28.3662 
 181   0.0000       1.047281        28.4980 
 182   0.0000       1.059935        28.8423 
 183   0.0000       1.070485        29.1294 
 184   0.0000       1.093233        29.7484 
 185   0.0000       1.103583        30.0300 
 186   0.0000       1.107991        30.1500 
 187   0.0000       1.141377        31.0584 
 188   0.0000       1.164441        31.6861 
 189   0.0000       1.205381        32.8001 
 190   0.0000       1.216126        33.0925 
 191   0.0000       1.233526        33.5659 
 192   0.0000       1.240339        33.7514 
 193   0.0000       1.257585        34.2206 
 194   0.0000       1.258819        34.2542 
 195   0.0000       1.294071        35.2135 
[...]
      py      :     0.927005
      dz2     :     0.046957  d :     0.212228
      dxz     :     0.019917
      dyz     :     0.047507
      dx2y2   :     0.062698
      dxy     :     0.035149
  8 N s       :     3.094199  s :     3.094199
      pz      :     1.216358  p :     3.681077
      px      :     1.185325
      py      :     1.279394
      dz2     :     0.014422  d :     0.049766
      dxz     :     0.007161
      dyz     :     0.008029
      dx2y2   :     0.012499
      dxy     :     0.007656
  9 H s       :     0.743133  s :     0.743133
      pz      :     0.071610  p :     0.150870
      px      :     0.034094
      py      :     0.045166
 10 C s       :     2.848720  s :     2.848720
      pz      :     0.934505  p :     2.756864
      px      :     1.030830
      py      :     0.791530
      dz2     :     0.151654  d :     0.474239
      dxz     :     0.134387
      dyz     :     0.083969
      dx2y2   :     0.057230
      dxy     :     0.046999
 11 N s       :     3.067441  s :     3.067441
      pz      :     1.154489  p :     3.778965
      px      :     1.234962
      py      :     1.389514
      dz2     :     0.019502  d :     0.081327
      dxz     :     0.024688
      dyz     :     0.015123
      dx2y2   :     0.011366
      dxy     :     0.010647
 12 H s       :     0.766517  s :     0.766517
      pz      :     0.049951  p :     0.144239
      px      :     0.041646
      py      :     0.052642
 13 O s       :     3.585155  s :     3.585155
      pz      :     1.500063  p :     4.500997
      px      :     1.645846
      py      :     1.355088
      dz2     :     0.009656  d :     0.032806
      dxz     :     0.012022
      dyz     :     0.006082
      dx2y2   :     0.002546
      dxy     :     0.002500
 14 H s       :     0.766903  s :     0.766903
      pz      :     0.026557  p :     0.142253
      px      :     0.079561
      py      :     0.036135
 15 C s       :     2.856372  s :     2.856372
      pz      :     0.868568  p :     2.957395
      px      :     1.029648
      py      :     1.059180
      dz2     :     0.049968  d :     0.153107
      dxz     :     0.029656
      dyz     :     0.040451
      dx2y2   :     0.024394
      dxy     :     0.008637
 16 H s       :     0.875159  s :     0.875159
      pz      :     0.018159  p :     0.080375
      px      :     0.017909
      py      :     0.044307
 17 H s       :     0.878586  s :     0.878586
      pz      :     0.012632  p :     0.080066
      px      :     0.049087
      py      :     0.018347
 18 H s       :     0.860353  s :     0.860353
      pz      :     0.023098  p :     0.083478
      px      :     0.025599
      py      :     0.034781
 19 C s       :     2.864159  s :     2.864159
      pz      :     1.037755  p :     3.052003
      px      :     0.970042
      py      :     1.044206
      dz2     :     0.021960  d :     0.104761
      dxz     :     0.018553
      dyz     :     0.013003
      dx2y2   :     0.036098
      dxy     :     0.015147
 20 H s       :     0.854080  s :     0.854080
      pz      :     0.040915  p :     0.082318
      px      :     0.019760
      py      :     0.021642
 21 H s       :     0.848308  s :     0.848308
      pz      :     0.016914  p :     0.082636
      px      :     0.018837
      py      :     0.046885
 22 H s       :     0.875684  s :     0.875684
      pz      :     0.036108  p :     0.082080
      px      :     0.021374
      py      :     0.024598
 23 H s       :     0.838979  s :     0.838979
      pz      :     0.025760  p :     0.083564
      px      :     0.016557
      py      :     0.041246
 24 H s       :     0.863387  s :     0.863387
      pz      :     0.017357  p :     0.081608
      px      :     0.048392
      py      :     0.015860
 25 H s       :     0.849184  s :     0.849184
      pz      :     0.049785  p :     0.084218
      px      :     0.018584
      py      :     0.015849
 26 H s       :     0.860698  s :     0.860698
      pz      :     0.046909  p :     0.082111
      px      :     0.018935
      py      :     0.016268
 27 H s       :     0.865337  s :     0.865337
      pz      :     0.016578  p :     0.080974
      px      :     0.048364
      py      :     0.016032
 28 H s       :     0.866049  s :     0.866049
      pz      :     0.016942  p :     0.081617
      px      :     0.049531
      py      :     0.015144
 29 H s       :     0.865088  s :     0.865088
      pz      :     0.047646  p :     0.081866
      px      :     0.018781
      py      :     0.015439
 30 H s       :     0.856542  s :     0.856542
      pz      :     0.048315  p :     0.080259
      px      :     0.017937
      py      :     0.014007
 31 H s       :     0.858258  s :     0.858258
      pz      :     0.015126  p :     0.080231
      px      :     0.051412
      py      :     0.013693
 32 H s       :     0.766344  s :     0.766344
      pz      :     0.073895  p :     0.142365
      px      :     0.033104
      py      :     0.035366

SPIN
  0 N s       :     0.004903  s :     0.004903
      pz      :     0.021811  p :     0.169749
      px      :     0.003629
      py      :     0.144309
      dz2     :    -0.000292  d :    -0.000480
      dxz     :    -0.000005
      dyz     :    -0.000264
      dx2y2   :    -0.000200
      dxy     :     0.000282
  1 C s       :    -0.000806  s :    -0.000806
      pz      :     0.010268  p :     0.027607
      px      :    -0.003716
      py      :     0.021056
      dz2     :     0.000180  d :     0.008990
      dxz     :     0.001030
      dyz     :     0.000463
      dx2y2   :     0.000392
      dxy     :     0.006925
  2 C s       :    -0.000549  s :    -0.000549
      pz      :     0.001783  p :    -0.004299
      px      :    -0.000288
      py      :    -0.005794
      dz2     :     0.002262  d :     0.005701
      dxz     :     0.000050
      dyz     :     0.000882
      dx2y2   :    -0.000186
      dxy     :     0.002693
  3 O s       :     0.000375  s :     0.000375
      pz      :     0.020980  p :     0.035265
      px      :     0.002252
      py      :     0.012033
      dz2     :    -0.000010  d :    -0.000062
      dxz     :    -0.000016
      dyz     :    -0.000006
      dx2y2   :    -0.000011
      dxy     :    -0.000018
  4 C s       :     0.000364  s :     0.000364
      pz      :     0.008292  p :     0.043075
      px      :     0.002256
      py      :     0.032527
      dz2     :     0.000248  d :     0.001919
      dxz     :     0.000068
      dyz     :     0.000731
      dx2y2   :     0.000135
      dxy     :     0.000737
  5 C s       :    -0.000290  s :    -0.000290
      pz      :     0.002993  p :     0.017233
      px      :    -0.000789
      py      :     0.015029
      dz2     :    -0.000106  d :     0.001367
      dxz     :     0.000249
      dyz     :     0.001096
      dx2y2   :    -0.000267
      dxy     :     0.000395
  6 C s       :     0.001788  s :     0.001788
      pz      :     0.000884  p :     0.074473
      px      :     0.001679
      py      :     0.071910
      dz2     :    -0.000049  d :     0.002038
      dxz     :     0.000157
      dyz     :     0.000874
      dx2y2   :     0.000085
      dxy     :     0.000970
  7 C s       :    -0.001803  s :    -0.001803
      pz      :     0.002177  p :     0.019813
      px      :     0.000816
      py      :     0.016820
      dz2     :     0.004360  d :     0.016930
      dxz     :     0.000982
      dyz     :     0.002047
      dx2y2   :     0.007869
      dxy     :     0.001673
  8 N s       :     0.013396  s :     0.013396
      pz      :     0.096440  p :     0.400930
      px      :     0.061969
      py      :     0.242521
      dz2     :    -0.000081  d :    -0.000710
      dxz     :    -0.000111
      dyz     :    -0.000339
      dx2y2   :     0.000022
      dxy     :    -0.000201
  9 H s       :    -0.004143  s :    -0.004143
      pz      :     0.001646  p :     0.006158
      px      :     0.000245
      py      :     0.004268
 10 C s       :    -0.002234  s :    -0.002234
      pz      :    -0.004989  p :    -0.036213
      px      :    -0.001954
      py      :    -0.029270
      dz2     :     0.000799  d :     0.013801
      dxz     :     0.000574
      dyz     :     0.009956
      dx2y2   :     0.001979
      dxy     :     0.000492
 11 N s       :     0.001630  s :     0.001630
      pz      :     0.001098  p :     0.038182
      px      :     0.017891
      py      :     0.019193
      dz2     :     0.000017  d :    -0.000160
      dxz     :    -0.000031
      dyz     :     0.000007
      dx2y2   :    -0.000093
      dxy     :    -0.000059
 12 H s       :    -0.001043  s :    -0.001043
      pz      :     0.000174  p :     0.001331
      px      :     0.000666
      py      :     0.000492
 13 O s       :     0.001074  s :     0.001074
      pz      :     0.001842  p :     0.099745
      px      :     0.005889
      py      :     0.092014
      dz2     :    -0.000065  d :    -0.000380
      dxz     :    -0.000052
      dyz     :    -0.000179
      dx2y2   :    -0.000018
      dxy     :    -0.000067
 14 H s       :    -0.009518  s :    -0.009518
      pz      :     0.002951  p :     0.013829
      px      :     0.002857
      py      :     0.008021
 15 C s       :    -0.000273  s :    -0.000273
      pz      :    -0.000276  p :     0.001179
      px      :     0.000423
      py      :     0.001032
      dz2     :     0.000111  d :     0.001490
      dxz     :     0.000336
      dyz     :     0.000708
      dx2y2   :     0.000320
      dxy     :     0.000014
 16 H s       :     0.002488  s :     0.002488
      pz      :    -0.000004  p :    -0.000061
      px      :    -0.000012
      py      :    -0.000044
 17 H s       :     0.002019  s :     0.002019
      pz      :     0.000019  p :     0.000014
      px      :    -0.000021
      py      :     0.000016
 18 H s       :     0.000378  s :     0.000378
      pz      :    -0.000024  p :     0.000096
      px      :     0.000145
      py      :    -0.000025
 19 C s       :    -0.000014  s :    -0.000014
      pz      :     0.000149  p :     0.001480
      px      :     0.001226
      py      :     0.000104
      dz2     :    -0.000078  d :    -0.001099
      dxz     :    -0.000111
      dyz     :     0.000015
      dx2y2   :    -0.000102
      dxy     :    -0.000823
 20 H s       :    -0.000628  s :    -0.000628
      pz      :     0.000015  p :     0.000062
      px      :     0.000039
      py      :     0.000007
 21 H s       :    -0.001257  s :    -0.001257
      pz      :    -0.000001  p :     0.000076
      px      :     0.000047
      py      :     0.000031
 22 H s       :    -0.000351  s :    -0.000351
      pz      :     0.000005  p :     0.000004
      px      :     0.000013
      py      :    -0.000013
 23 H s       :     0.009734  s :     0.009734
      pz      :     0.000877  p :     0.000728
      px      :    -0.000163
      py      :     0.000014
 24 H s       :    -0.000889  s :    -0.000889
      pz      :     0.000136  p :     0.001008
      px      :     0.000186
      py      :     0.000686
 25 H s       :     0.002010  s :     0.002010
      pz      :     0.000064  p :     0.001261
      px      :     0.000188
      py      :     0.001009
 26 H s       :     0.000408  s :     0.000408
      pz      :     0.000022  p :     0.000318
      px      :    -0.000047
      py      :     0.000342
 27 H s       :    -0.000467  s :    -0.000467
      pz      :     0.000030  p :     0.000834
      px      :     0.000151
      py      :     0.000653
 28 H s       :    -0.001495  s :    -0.001495
      pz      :    -0.000006  p :     0.001582
      px      :     0.000230
      py      :     0.001358
 29 H s       :    -0.002030  s :    -0.002030
      pz      :     0.000174  p :     0.001523
      px      :     0.000037
      py      :     0.001312
 30 H s       :     0.009143  s :     0.009143
      pz      :    -0.000230  p :     0.000280
      px      :     0.000382
      py      :     0.000128
 31 H s       :     0.006757  s :     0.006757
      pz      :     0.000314  p :     0.000347
      px      :    -0.000128
      py      :     0.000161
 32 H s       :    -0.009475  s :    -0.009475
      pz      :     0.003495  p :     0.013842
      px      :     0.002389
      py      :     0.007958


                      *****************************
                      * MAYER POPULATION ANALYSIS *
                      *****************************

  NA   - Mulliken gross atomic population
  ZA   - Total nuclear charge
  QA   - Mulliken gross atomic charge
  VA   - Mayer's total valence
  BVA  - Mayer's bonded valence
  FA   - Mayer's free valence

  ATOM       NA         ZA         QA         VA         BVA        FA
  0 N      7.0610     7.0000    -0.0610     3.3947     3.3603     0.0344
  1 C      6.1338     6.0000    -0.1338     4.0752     4.0734     0.0018
  2 C      5.9089     6.0000     0.0911     4.0601     4.0600     0.0001
  3 O      8.2896     8.0000    -0.2896     2.1707     2.1691     0.0016
  4 C      6.2667     6.0000    -0.2667     3.8848     3.8821     0.0028
  5 C      6.2246     6.0000    -0.2246     3.9336     3.9331     0.0006
  6 C      6.2920     6.0000    -0.2920     3.9237     3.9159     0.0078
  7 C      6.2682     6.0000    -0.2682     3.8675     3.8651     0.0024
  8 N      7.2907     7.0000    -0.2907     3.4596     3.2762     0.1833
  9 H      0.7250     1.0000     0.2750     0.9545     0.9544     0.0001
 10 C      5.8312     6.0000     0.1688     4.0009     3.9993     0.0016
 11 N      7.0930     7.0000    -0.0930     3.2589     3.2572     0.0017
 12 H      0.7524     1.0000     0.2476     0.9518     0.9518     0.0000
 13 O      8.2411     8.0000    -0.2411     2.1988     2.1877     0.0111
 14 H      0.7099     1.0000     0.2901     0.9254     0.9250     0.0004
 15 C      6.4345     6.0000    -0.4345     3.8722     3.8722     0.0000
 16 H      0.8082     1.0000     0.1918     0.9485     0.9485     0.0000
 17 H      0.8278     1.0000     0.1722     0.9576     0.9576     0.0000
 18 H      0.7981     1.0000     0.2019     0.9590     0.9590     0.0000
 19 C      6.5226     6.0000    -0.5226     3.8310     3.8310     0.0000
 20 H      0.7984     1.0000     0.2016     0.9555     0.9555     0.0000
 21 H      0.7925     1.0000     0.2075     0.9525     0.9525     0.0000
 22 H      0.8411     1.0000     0.1589     0.9681     0.9681     0.0000
 23 H      0.8162     1.0000     0.1838     0.9418     0.9416     0.0002
 24 H      0.8368     1.0000     0.1632     0.9637     0.9637     0.0000
 25 H      0.8040     1.0000     0.1960     0.9560     0.9560     0.0000
 26 H      0.8276     1.0000     0.1724     0.9646     0.9646     0.0000
 27 H      0.8430     1.0000     0.1570     0.9703     0.9703     0.0000
 28 H      0.8251     1.0000     0.1749     0.9576     0.9576     0.0000
 29 H      0.8250     1.0000     0.1750     0.9593     0.9593     0.0000
 30 H      0.8003     1.0000     0.1997     0.9464     0.9463     0.0001
 31 H      0.8024     1.0000     0.1976     0.9484     0.9483     0.0001
 32 H      0.7082     1.0000     0.2918     0.9246     0.9242     0.0004

  Mayer bond orders larger than 0.100000
B(  0-N ,  1-C ) :   1.0641 B(  0-N ,  8-N ) :   0.1234 B(  0-N ,  9-H ) :   0.8731 
B(  0-N , 10-C ) :   1.1420 B(  1-C ,  2-C ) :   0.8869 B(  1-C ,  4-C ) :   0.8877 
B(  1-C , 13-O ) :   0.1215 B(  1-C , 23-H ) :   0.9494 B(  2-C ,  3-O ) :   1.8578 
B(  2-C , 11-N ) :   1.2239 B(  4-C ,  5-C ) :   0.9596 B(  4-C , 24-H ) :   0.9619 
B(  4-C , 25-H ) :   0.9459 B(  5-C ,  6-C ) :   0.9445 B(  5-C , 26-H ) :   0.9565 
B(  5-C , 27-H ) :   0.9688 B(  6-C ,  7-C ) :   0.8836 B(  6-C , 28-H ) :   0.9622 
B(  6-C , 29-H ) :   0.9622 B(  7-C ,  8-N ) :   1.0475 B(  7-C , 30-H ) :   0.9400 
B(  7-C , 31-H ) :   0.9440 B(  8-N , 14-H ) :   0.9104 B(  8-N , 32-H ) :   0.9097 
B( 10-C , 13-O ) :   1.8999 B( 10-C , 19-C ) :   0.9205 B( 11-N , 12-H ) :   0.9212 
B( 11-N , 15-C ) :   0.9589 B( 15-C , 16-H ) :   0.9473 B( 15-C , 17-H ) :   0.9548 
B( 15-C , 18-H ) :   0.9440 B( 19-C , 20-H ) :   0.9516 B( 19-C , 21-H ) :   0.9384 
B( 19-C , 22-H ) :   0.9686 

-------
TIMINGS
-------

Total SCF time: 0 days 0 hours 0 min 28 sec 

Total time                  ....      28.106 sec
Sum of individual times     ....      27.241 sec  ( 96.9%)

Fock matrix formation       ....      24.457 sec  ( 87.0%)
  Split-RI-J                ....       1.768 sec  (  7.2% of F)
  Chain of spheres X        ....      17.627 sec  ( 72.1% of F)
  XC integration            ....       4.514 sec  ( 18.5% of F)
    Basis function eval.    ....       0.493 sec  ( 10.9% of XC)
    Density eval.           ....       0.685 sec  ( 15.2% of XC)
    XC-Functional eval.     ....       0.114 sec  (  2.5% of XC)
    XC-Potential eval.      ....       0.374 sec  (  8.3% of XC)
Diagonalization             ....       0.827 sec  (  2.9%)
Density matrix formation    ....       0.038 sec  (  0.1%)
Population analysis         ....       0.072 sec  (  0.3%)
Initial guess               ....       0.061 sec  (  0.2%)
Orbital Transformation      ....       0.000 sec  (  0.0%)
Orbital Orthonormalization  ....       0.044 sec  (  0.2%)
DIIS solution               ....       0.447 sec  (  1.6%)
Grid generation             ....       1.338 sec  (  4.8%)

Maximum memory used throughout the entire SCF-calculation: 85.3 MB

-------------------------   --------------------
FINAL SINGLE POINT ENERGY      -668.594243102771
-------------------------   --------------------

                                *** OPTIMIZATION RUN DONE ***

                            ***************************************
                            *     ORCA property calculations      *
                            ***************************************

                                    ---------------------
                                    Active property flags
                                    ---------------------
   (+) Dipole Moment


------------------------------------------------------------------------------
                       ORCA ELECTRIC PROPERTIES CALCULATION
------------------------------------------------------------------------------

Dipole Moment Calculation                       ... on
Quadrupole Moment Calculation                   ... off
Polarizability Calculation                      ... off
GBWName                                         ... opt.gbw
Electron density                                ... opt.scfp
The origin for moment calculation is the CENTER OF MASS  = (-12.418527,  3.908847  0.367209)

-------------
DIPOLE MOMENT
-------------
                                X             Y             Z
Electronic contribution:     -2.71752      -6.41406      -0.24996
Nuclear contribution   :      4.24791       9.25634      -0.22468
                        -----------------------------------------
Total Dipole Moment    :      1.53039       2.84227      -0.47463
                        -----------------------------------------
Magnitude (a.u.)       :      3.26280
Magnitude (Debye)      :      8.29339



--------------------
Rotational spectrum 
--------------------
 
Rotational constants in cm-1:     0.019656     0.013095     0.008918 
Rotational constants in MHz :   589.273231   392.571423   267.346542 

 Dipole components along the rotational axes: 
x,y,z [a.u.] :     3.146764    -0.801210    -0.319105 
x,y,z [Debye]:     7.998439    -2.036513    -0.811101 

 

Timings for individual modules:

Sum of individual times         ...     1344.220 sec (=  22.404 min)
GTO integral calculation        ...      223.504 sec (=   3.725 min)  16.6 %
SCF iterations                  ...      732.174 sec (=  12.203 min)  54.5 %
SCF Gradient evaluation         ...      387.706 sec (=   6.462 min)  28.8 %
Geometry relaxation             ...        0.837 sec (=   0.014 min)   0.1 %
                             ****ORCA TERMINATED NORMALLY****
TOTAL RUN TIME: 0 days 0 hours 26 minutes 42 seconds 479 msec
