
                                 *****************
                                 * O   R   C   A *
                                 *****************

                                            #,                                       
                                            ###                                      
                                            ####                                     
                                            #####                                    
                                            ######                                   
                                           ########,                                 
                                     ,,################,,,,,                         
                               ,,#################################,,                 
                          ,,##########################################,,             
                       ,#########################################, ''#####,          
                    ,#############################################,,   '####,        
                  ,##################################################,,,,####,       
                ,###########''''           ''''###############################       
              ,#####''   ,,,,##########,,,,          '''####'''          '####       
            ,##' ,,,,###########################,,,                        '##       
           ' ,,###''''                  '''############,,,                           
         ,,##''                                '''############,,,,        ,,,,,,###''
      ,#''                                            '''#######################'''  
     '                                                          ''''####''''         
             ,#######,   #######,   ,#######,      ##                                
            ,#'     '#,  ##    ##  ,#'     '#,    #''#        ######   ,####,        
            ##       ##  ##   ,#'  ##            #'  '#       #        #'  '#        
            ##       ##  #######   ##           ,######,      #####,   #    #        
            '#,     ,#'  ##    ##  '#,     ,#' ,#      #,         ##   #,  ,#        
             '#######'   ##     ##  '#######'  #'      '#     #####' # '####'        



                  #######################################################
                  #                        -***-                        #
                  #          Department of theory and spectroscopy      #
                  #    Directorship and core code : Frank Neese         #
                  #        Max Planck Institute fuer Kohlenforschung    #
                  #                Kaiser Wilhelm Platz 1               #
                  #                 D-45470 Muelheim/Ruhr               #
                  #                      Germany                        #
                  #                                                     #
                  #                  All rights reserved                #
                  #                        -***-                        #
                  #######################################################


                         Program Version 5.0.4 -  RELEASE  -


 With contributions from (in alphabetic order):
   Daniel Aravena         : Magnetic Suceptibility
   Michael Atanasov       : Ab Initio Ligand Field Theory (pilot matlab implementation)
   Alexander A. Auer      : GIAO ZORA, VPT2 properties, NMR spectrum
   Ute Becker             : Parallelization
   Giovanni Bistoni       : ED, misc. LED, open-shell LED, HFLD
   Martin Brehm           : Molecular dynamics
   Dmytro Bykov           : SCF Hessian
   Vijay G. Chilkuri      : MRCI spin determinant printing, contributions to CSF-ICE
   Dipayan Datta          : RHF DLPNO-CCSD density
   Achintya Kumar Dutta   : EOM-CC, STEOM-CC
   Dmitry Ganyushin       : Spin-Orbit,Spin-Spin,Magnetic field MRCI
   Miquel Garcia          : C-PCM and meta-GGA Hessian, CC/C-PCM, Gaussian charge scheme
   Yang Guo               : DLPNO-NEVPT2, F12-NEVPT2, CIM, IAO-localization
   Andreas Hansen         : Spin unrestricted coupled pair/coupled cluster methods
   Benjamin Helmich-Paris : MC-RPA, TRAH-SCF, COSX integrals
   Lee Huntington         : MR-EOM, pCC
   Robert Izsak           : Overlap fitted RIJCOSX, COSX-SCS-MP3, EOM
   Marcus Kettner         : VPT2
   Christian Kollmar      : KDIIS, OOCD, Brueckner-CCSD(T), CCSD density, CASPT2, CASPT2-K
   Simone Kossmann        : Meta GGA functionals, TD-DFT gradient, OOMP2, MP2 Hessian
   Martin Krupicka        : Initial AUTO-CI
   Lucas Lang             : DCDCAS
   Marvin Lechner         : AUTO-CI (C++ implementation), FIC-MRCC
   Dagmar Lenk            : GEPOL surface, SMD
   Dimitrios Liakos       : Extrapolation schemes; Compound Job, initial MDCI parallelization
   Dimitrios Manganas     : Further ROCIS development; embedding schemes
   Dimitrios Pantazis     : SARC Basis sets
   Anastasios Papadopoulos: AUTO-CI, single reference methods and gradients
   Taras Petrenko         : DFT Hessian,TD-DFT gradient, ASA, ECA, R-Raman, ABS, FL, XAS/XES, NRVS
   Peter Pinski           : DLPNO-MP2, DLPNO-MP2 Gradient
   Christoph Reimann      : Effective Core Potentials
   Marius Retegan         : Local ZFS, SOC
   Christoph Riplinger    : Optimizer, TS searches, QM/MM, DLPNO-CCSD(T), (RO)-DLPNO pert. Triples
   Tobias Risthaus        : Range-separated hybrids, TD-DFT gradient, RPA, STAB
   Michael Roemelt        : Original ROCIS implementation
   Masaaki Saitow         : Open-shell DLPNO-CCSD energy and density
   Barbara Sandhoefer     : DKH picture change effects
   Avijit Sen             : IP-ROCIS
   Kantharuban Sivalingam : CASSCF convergence, NEVPT2, FIC-MRCI
   Bernardo de Souza      : ESD, SOC TD-DFT
   Georgi Stoychev        : AutoAux, RI-MP2 NMR, DLPNO-MP2 response
   Willem Van den Heuvel  : Paramagnetic NMR
   Boris Wezisla          : Elementary symmetry handling
   Frank Wennmohs         : Technical directorship


 We gratefully acknowledge several colleagues who have allowed us to
 interface, adapt or use parts of their codes:
   Stefan Grimme, W. Hujo, H. Kruse, P. Pracht,  : VdW corrections, initial TS optimization,
                  C. Bannwarth, S. Ehlert          DFT functionals, gCP, sTDA/sTD-DF
   Ed Valeev, F. Pavosevic, A. Kumar             : LibInt (2-el integral package), F12 methods
   Garnet Chan, S. Sharma, J. Yang, R. Olivares  : DMRG
   Ulf Ekstrom                                   : XCFun DFT Library
   Mihaly Kallay                                 : mrcc  (arbitrary order and MRCC methods)
   Jiri Pittner, Ondrej Demel                    : Mk-CCSD
   Frank Weinhold                                : gennbo (NPA and NBO analysis)
   Christopher J. Cramer and Donald G. Truhlar   : smd solvation model
   Lars Goerigk                                  : TD-DFT with DH, B97 family of functionals
   V. Asgeirsson, H. Jonsson                     : NEB implementation
   FAccTs GmbH                                   : IRC, NEB, NEB-TS, DLPNO-Multilevel, CI-OPT
                                                   MM, QMMM, 2- and 3-layer-ONIOM, Crystal-QMMM,
                                                   LR-CPCM, SF, NACMEs, symmetry and pop. for TD-DFT,
                                                   nearIR, NL-DFT gradient (VV10), updates on ESD,
                                                   ML-optimized integration grids
   S Lehtola, MJT Oliveira, MAL Marques          : LibXC Library
   Liviu Ungur et al                             : ANISO software


 Your calculation uses the libint2 library for the computation of 2-el integrals
 For citations please refer to: http://libint.valeyev.net

 Your ORCA version has been built with support for libXC version: 5.1.0
 For citations please refer to: https://tddft.org/programs/libxc/

 This ORCA versions uses:
   CBLAS   interface :  Fast vector & matrix operations
   LAPACKE interface :  Fast linear algebra routines
   SCALAPACK package :  Parallel linear algebra routines
   Shared memory     :  Shared parallel matrices
   BLAS/LAPACK       :  OpenBLAS 0.3.15  USE64BITINT DYNAMIC_ARCH NO_AFFINITY Zen SINGLE_THREADED
        Core in use  :  Zen
   Copyright (c) 2011-2014, The OpenBLAS Project




***************************************
The coordinates will be read from file: opt.xyz
***************************************


================================================================================

----- Orbital basis set information -----
Your calculation utilizes the basis: EPR-II
   V. Barone, in Recent Advances in Density Functional Methods, Part 1 (ed. D. P. Chong), World Scientific, Singapore, 1995, p. 287.

----- AuxJ basis set information -----
Your calculation utilizes the AutoAux generation procedure.
  G. L. Stoychev, A. A. Auer, F. Neese, J. Chem. Theory Comput. 13, 554 (2017)

----- AuxC basis set information -----
Your calculation utilizes the AutoAux generation procedure.
  G. L. Stoychev, A. A. Auer, F. Neese, J. Chem. Theory Comput. 13, 554 (2017)

----- AuxJK basis set information -----
Your calculation utilizes the AutoAux generation procedure.
  G. L. Stoychev, A. A. Auer, F. Neese, J. Chem. Theory Comput. 13, 554 (2017)

================================================================================
                                        WARNINGS
                       Please study these warnings very carefully!
================================================================================


WARNING: your system is open-shell and RHF/RKS was chosen
  ===> : WILL SWITCH to UHF/UKS


INFO   : the flag for use of the SHARK integral package has been found!

================================================================================
                                       INPUT FILE
================================================================================
NAME = epr_info.inp
|  1> ! B3LYP EPR-II AUTOAUX
|  2> %pal nprocs 16 end
|  3> *XYZFile 0 2 opt.xyz
|  4> %EPRNMR
|  5>         GTENSOR   TRUE
|  6>         NUCLEI    = 1,7,9,10,11,12,15,26,27 {SHIFT, AISO, ADIP, AORB}
|  7>         ORI       GIAO
|  8> END
|  9> 
| 10>                          ****END OF INPUT****
================================================================================

                       ****************************
                       * Single Point Calculation *
                       ****************************

---------------------------------
CARTESIAN COORDINATES (ANGSTROEM)
---------------------------------
  N     -4.534350   -4.734546   -0.781879
  C     -3.084771   -4.743080   -0.799580
  C     -2.617344   -4.583067    0.665565
  O     -3.417022   -4.360173    1.576271
  C     -2.492930   -3.641098   -1.732537
  C     -2.794590   -2.248238   -1.289811
  H     -3.786369   -1.993587   -0.929816
  C     -1.857750   -1.138476   -1.340756
  O     -0.602155   -1.483196   -1.776714
  O     -2.131410    0.015821   -1.026861
  H     -4.949759   -4.539250    0.121419
  H     -2.737663   -5.708174   -1.190482
  C     -5.274172   -5.216982   -1.827540
  N     -1.278978   -4.698979    0.874364
  H     -0.091994   -0.658540   -1.772230
  H     -0.670527   -4.838923    0.083422
  O     -4.752352   -5.594160   -2.877892
  C     -6.784092   -5.239695   -1.620554
  H     -7.246900   -4.585643   -2.364934
  H     -7.142934   -6.255582   -1.805132
  H     -7.091341   -4.920971   -0.621182
  C     -0.687172   -4.503354    2.196732
  H     -1.134998   -5.190411    2.919000
  H      0.384684   -4.697969    2.131605
  H     -0.847947   -3.480499    2.550745
  H     -1.414833   -3.778198   -1.852345
  H     -2.940720   -3.824808   -2.721032

----------------------------
CARTESIAN COORDINATES (A.U.)
----------------------------
  NO LB      ZA    FRAG     MASS         X           Y           Z
   0 N     7.0000    0    14.007   -8.568680   -8.946996   -1.477538
   1 C     6.0000    0    12.011   -5.829373   -8.963122   -1.510986
   2 C     6.0000    0    12.011   -4.946064   -8.660742    1.257735
   3 O     8.0000    0    15.999   -6.457237   -8.239532    2.978721
   4 C     6.0000    0    12.011   -4.710954   -6.880678   -3.274021
   5 C     6.0000    0    12.011   -5.281010   -4.248554   -2.437390
   6 H     1.0000    0     1.008   -7.155200   -3.767333   -1.757098
   7 C     6.0000    0    12.011   -3.510639   -2.151408   -2.533663
   8 O     8.0000    0    15.999   -1.137908   -2.802835   -3.357503
   9 O     8.0000    0    15.999   -4.027782    0.029897   -1.940486
  10 H     1.0000    0     1.008   -9.353689   -8.577940    0.229450
  11 H     1.0000    0     1.008   -5.173433  -10.786886   -2.249686
  12 C     6.0000    0    12.011   -9.966741   -9.858667   -3.453549
  13 N     7.0000    0    14.007   -2.416918   -8.879783    1.652309
  14 H     1.0000    0     1.008   -0.173844   -1.244460   -3.349029
  15 H     1.0000    0     1.008   -1.267113   -9.144240    0.157645
  16 O     8.0000    0    15.999   -8.980643  -10.571430   -5.438427
  17 C     6.0000    0    12.011  -12.820075   -9.901588   -3.062403
  18 H     1.0000    0     1.008  -13.694657   -8.665610   -4.469078
  19 H     1.0000    0     1.008  -13.498189  -11.821338   -3.411205
  20 H     1.0000    0     1.008  -13.400692   -9.299288   -1.173863
  21 C     6.0000    0    12.011   -1.298566   -8.510106    4.151221
  22 H     1.0000    0     1.008   -2.144835   -9.808455    5.516111
  23 H     1.0000    0     1.008    0.726947   -8.877875    4.028149
  24 H     1.0000    0     1.008   -1.602388   -6.577190    4.820210
  25 H     1.0000    0     1.008   -2.673648   -7.139760   -3.500424
  26 H     1.0000    0     1.008   -5.557155   -7.227840   -5.142006

--------------------------------
INTERNAL COORDINATES (ANGSTROEM)
--------------------------------
 N      0   0   0     0.000000000000     0.00000000     0.00000000
 C      1   0   0     1.449712026734     0.00000000     0.00000000
 C      2   1   0     1.546201828225   106.86396363     0.00000000
 O      3   2   1     1.232295943658   121.52234390   353.56293349
 C      2   1   3     1.560465201217   112.48120824   236.37105064
 C      5   2   1     1.492335023689   113.89618713    64.31675624
 H      6   5   2     1.085388393204   120.13779756   317.45741000
 C      6   5   2     1.453215841187   124.89277499   139.82909345
 O      8   6   5     1.373102410798   114.13637923   356.68589423
 O      8   6   5     1.227119246467   124.44437036   176.80864864
 H      1   2   3     1.013239343346   114.95856817     5.80329651
 H      2   1   3     1.097586834219   109.01055759   118.18583389
 C      1   2   3     1.368753348248   121.94168938   198.46245560
 N      3   2   1     1.359506117821   115.74177661   173.80544441
 H      9   8   6     0.969712565854   105.43270848   179.30717728
 H     14   3   2     1.007663572635   119.05977391     2.58227910
 O     13   1   2     1.231989867416   122.02499506   354.62603724
 C     13   1   2     1.524210051008   115.90937538   175.49416603
 H     18  13   1     1.093653240307   108.53405376   117.89665883
 H     18  13   1     1.093098487893   108.42846726   234.47303421
 H     18  13   1     1.093037912573   113.47055032   356.30707694
 C     14   3   2     1.461902555910   121.73834745   176.83567707
 H     22  14   3     1.092825224513   110.35379214    57.25684107
 H     22  14   3     1.091325340696   108.64799893   177.02234460
 H     22  14   3     1.094260516769   110.99240008   297.21299312
 H      5   2   1     1.093362693128   110.54472432   189.31364249
 H      5   2   1     1.100630572334   105.35385551   303.83372647

---------------------------
INTERNAL COORDINATES (A.U.)
---------------------------
 N      0   0   0     0.000000000000     0.00000000     0.00000000
 C      1   0   0     2.739558703579     0.00000000     0.00000000
 C      2   1   0     2.921898003113   106.86396363     0.00000000
 O      3   2   1     2.328701849456   121.52234390   353.56293349
 C      2   1   3     2.948851871815   112.48120824   236.37105064
 C      5   2   1     2.820104494830   113.89618713    64.31675624
 H      6   5   2     2.051086812092   120.13779756   317.45741000
 C      6   5   2     2.746179953319   124.89277499   139.82909345
 O      8   6   5     2.594787510235   114.13637923   356.68589423
 O      8   6   5     2.318919309487   124.44437036   176.80864864
 H      1   2   3     1.914744867038   114.95856817     5.80329651
 H      2   1   3     2.074138524872   109.01055759   118.18583389
 C      1   2   3     2.586568973077   121.94168938   198.46245560
 N      3   2   1     2.569094240072   115.74177661   173.80544441
 H      9   8   6     1.832491178087   105.43270848   179.30717728
 H     14   3   2     1.904208187409   119.05977391     2.58227910
 O     13   1   2     2.328123449182   122.02499506   354.62603724
 C     13   1   2     2.880339566975   115.90937538   175.49416603
 H     18  13   1     2.066705109655   108.53405376   117.89665883
 H     18  13   1     2.065656779522   108.42846726   234.47303421
 H     18  13   1     2.065542308756   113.47055032   356.30707694
 C     14   3   2     2.762595465148   121.73834745   176.83567707
 H     22  14   3     2.065140386570   110.35379214    57.25684107
 H     22  14   3     2.062306016924   108.64799893   177.02234460
 H     22  14   3     2.067852695857   110.99240008   297.21299312
 H      5   2   1     2.066156055059   110.54472432   189.31364249
 H      5   2   1     2.079890356333   105.35385551   303.83372647

---------------------
BASIS SET INFORMATION
---------------------
There are 4 groups of distinct atoms

 Group   1 Type N   : 10s5p1d contracted to 6s2p1d pattern {511111/41/1}
 Group   2 Type C   : 10s5p1d contracted to 6s2p1d pattern {511111/41/1}
 Group   3 Type O   : 10s5p1d contracted to 6s2p1d pattern {511111/41/1}
 Group   4 Type H   : 6s1p contracted to 4s1p pattern {3111/1}

Atom   0N    basis set group =>   1
Atom   1C    basis set group =>   2
Atom   2C    basis set group =>   2
Atom   3O    basis set group =>   3
Atom   4C    basis set group =>   2
Atom   5C    basis set group =>   2
Atom   6H    basis set group =>   4
Atom   7C    basis set group =>   2
Atom   8O    basis set group =>   3
Atom   9O    basis set group =>   3
Atom  10H    basis set group =>   4
Atom  11H    basis set group =>   4
Atom  12C    basis set group =>   2
Atom  13N    basis set group =>   1
Atom  14H    basis set group =>   4
Atom  15H    basis set group =>   4
Atom  16O    basis set group =>   3
Atom  17C    basis set group =>   2
Atom  18H    basis set group =>   4
Atom  19H    basis set group =>   4
Atom  20H    basis set group =>   4
Atom  21C    basis set group =>   2
Atom  22H    basis set group =>   4
Atom  23H    basis set group =>   4
Atom  24H    basis set group =>   4
Atom  25H    basis set group =>   4
Atom  26H    basis set group =>   4
---------------------------------
AUXILIARY/J BASIS SET INFORMATION
---------------------------------
There are 4 groups of distinct atoms

 Group   1 Type N   : 17s13p12d2f contracted to 17s13p12d2f pattern {11111111111111111/1111111111111/111111111111/11}
 Group   2 Type C   : 17s13p12d2f contracted to 17s13p12d2f pattern {11111111111111111/1111111111111/111111111111/11}
 Group   3 Type O   : 17s13p12d2f contracted to 17s13p12d2f pattern {11111111111111111/1111111111111/111111111111/11}
 Group   4 Type H   : 15s6p1d contracted to 15s6p1d pattern {111111111111111/111111/1}

Atom   0N    basis set group =>   1
Atom   1C    basis set group =>   2
Atom   2C    basis set group =>   2
Atom   3O    basis set group =>   3
Atom   4C    basis set group =>   2
Atom   5C    basis set group =>   2
Atom   6H    basis set group =>   4
Atom   7C    basis set group =>   2
Atom   8O    basis set group =>   3
Atom   9O    basis set group =>   3
Atom  10H    basis set group =>   4
Atom  11H    basis set group =>   4
Atom  12C    basis set group =>   2
Atom  13N    basis set group =>   1
Atom  14H    basis set group =>   4
Atom  15H    basis set group =>   4
Atom  16O    basis set group =>   3
Atom  17C    basis set group =>   2
Atom  18H    basis set group =>   4
Atom  19H    basis set group =>   4
Atom  20H    basis set group =>   4
Atom  21C    basis set group =>   2
Atom  22H    basis set group =>   4
Atom  23H    basis set group =>   4
Atom  24H    basis set group =>   4
Atom  25H    basis set group =>   4
Atom  26H    basis set group =>   4
---------------------------------
AUXILIARY/C BASIS SET INFORMATION
---------------------------------
There are 4 groups of distinct atoms

 Group   1 Type N   : 17s13p12d2f contracted to 17s13p12d2f pattern {11111111111111111/1111111111111/111111111111/11}
 Group   2 Type C   : 17s13p12d2f contracted to 17s13p12d2f pattern {11111111111111111/1111111111111/111111111111/11}
 Group   3 Type O   : 17s13p12d2f contracted to 17s13p12d2f pattern {11111111111111111/1111111111111/111111111111/11}
 Group   4 Type H   : 15s6p1d contracted to 15s6p1d pattern {111111111111111/111111/1}

Atom   0N    basis set group =>   1
Atom   1C    basis set group =>   2
Atom   2C    basis set group =>   2
Atom   3O    basis set group =>   3
Atom   4C    basis set group =>   2
Atom   5C    basis set group =>   2
Atom   6H    basis set group =>   4
Atom   7C    basis set group =>   2
Atom   8O    basis set group =>   3
Atom   9O    basis set group =>   3
Atom  10H    basis set group =>   4
Atom  11H    basis set group =>   4
Atom  12C    basis set group =>   2
Atom  13N    basis set group =>   1
Atom  14H    basis set group =>   4
Atom  15H    basis set group =>   4
Atom  16O    basis set group =>   3
Atom  17C    basis set group =>   2
Atom  18H    basis set group =>   4
Atom  19H    basis set group =>   4
Atom  20H    basis set group =>   4
Atom  21C    basis set group =>   2
Atom  22H    basis set group =>   4
Atom  23H    basis set group =>   4
Atom  24H    basis set group =>   4
Atom  25H    basis set group =>   4
Atom  26H    basis set group =>   4
----------------------------------
AUXILIARY/JK BASIS SET INFORMATION
----------------------------------
There are 4 groups of distinct atoms

 Group   1 Type N   : 17s13p12d2f contracted to 17s13p12d2f pattern {11111111111111111/1111111111111/111111111111/11}
 Group   2 Type C   : 17s13p12d2f contracted to 17s13p12d2f pattern {11111111111111111/1111111111111/111111111111/11}
 Group   3 Type O   : 17s13p12d2f contracted to 17s13p12d2f pattern {11111111111111111/1111111111111/111111111111/11}
 Group   4 Type H   : 15s6p1d contracted to 15s6p1d pattern {111111111111111/111111/1}

Atom   0N    basis set group =>   1
Atom   1C    basis set group =>   2
Atom   2C    basis set group =>   2
Atom   3O    basis set group =>   3
Atom   4C    basis set group =>   2
Atom   5C    basis set group =>   2
Atom   6H    basis set group =>   4
Atom   7C    basis set group =>   2
Atom   8O    basis set group =>   3
Atom   9O    basis set group =>   3
Atom  10H    basis set group =>   4
Atom  11H    basis set group =>   4
Atom  12C    basis set group =>   2
Atom  13N    basis set group =>   1
Atom  14H    basis set group =>   4
Atom  15H    basis set group =>   4
Atom  16O    basis set group =>   3
Atom  17C    basis set group =>   2
Atom  18H    basis set group =>   4
Atom  19H    basis set group =>   4
Atom  20H    basis set group =>   4
Atom  21C    basis set group =>   2
Atom  22H    basis set group =>   4
Atom  23H    basis set group =>   4
Atom  24H    basis set group =>   4
Atom  25H    basis set group =>   4
Atom  26H    basis set group =>   4


           ************************************************************
           *        Program running with 16 parallel MPI-processes    *
           *              working on a common directory               *
           ************************************************************
------------------------------------------------------------------------------
                           ORCA GTO INTEGRAL CALCULATION
                           -- RI-GTO INTEGRALS CHOSEN --
------------------------------------------------------------------------------
------------------------------------------------------------------------------
                   ___                                                        
                  /   \      - P O W E R E D   B Y -                         
                 /     \                                                     
                 |  |  |   _    _      __       _____    __    __             
                 |  |  |  | |  | |    /  \     |  _  \  |  |  /  |          
                  \  \/   | |  | |   /    \    | | | |  |  | /  /          
                 / \  \   | |__| |  /  /\  \   | |_| |  |  |/  /          
                |  |  |   |  __  | /  /__\  \  |    /   |      \           
                |  |  |   | |  | | |   __   |  |    \   |  |\   \          
                \     /   | |  | | |  |  |  |  | |\  \  |  | \   \       
                 \___/    |_|  |_| |__|  |__|  |_| \__\ |__|  \__/        
                                                                              
                      - O R C A' S   B I G   F R I E N D -                    
                                      &                                       
                       - I N T E G R A L  F E E D E R -                       
                                                                              
 v1 FN, 2020, v2 2021                                                         
------------------------------------------------------------------------------


Reading SHARK input file epr_info.SHARKINP.tmp ... ok
----------------------
SHARK INTEGRAL PACKAGE
----------------------

Number of atoms                             ...     27
Number of basis functions                   ...    329
Number of shells                            ...    191
Maximum angular momentum                    ...      2
Integral batch strategy                     ... SHARK/LIBINT Hybrid
RI-J (if used) integral strategy            ... SPLIT-RIJ (Revised 2003 algorithm where possible)
Printlevel                                  ...      1
Contraction scheme used                     ... SEGMENTED contraction
Coulomb Range Separation                    ... NOT USED
Exchange Range Separation                   ... NOT USED
Finite Nucleus Model                        ... NOT USED
Auxiliary Coulomb fitting basis             ... AVAILABLE
   # of basis functions in Aux-J            ...   2314
   # of shells in Aux-J                     ...    902
   Maximum angular momentum in Aux-J        ...      3
Auxiliary J/K fitting basis                 ... AVAILABLE
   # of basis functions in Aux-JK           ...   2314
   # of shells in Aux-JK                    ...    902
   Maximum angular momentum in Aux-JK       ...      3
Auxiliary Correlation fitting basis         ... AVAILABLE
   # of basis functions in Aux-C            ...   2314
   # of shells in Aux-C                     ...    902
   Maximum angular momentum in Aux-C        ...      3
Auxiliary 'external' fitting basis          ... NOT available
Integral threshold                          ...     1.000000e-10
Primitive cut-off                           ...     1.000000e-11
Primitive pair pre-selection threshold      ...     1.000000e-11

Calculating pre-screening integrals         ... done (  0.0 sec) Dimension = 191
Organizing shell pair data                  ... done (  0.0 sec)
Shell pair information
Total number of shell pairs                 ...     18336
Shell pairs after pre-screening             ...     12593
Total number of primitive shell pairs       ...     50033
Primitive shell pairs kept                  ...     24816
          la=0 lb=0:   5720 shell pairs
          la=1 lb=0:   4285 shell pairs
          la=1 lb=1:    750 shell pairs
          la=2 lb=0:   1279 shell pairs
          la=2 lb=1:    476 shell pairs
          la=2 lb=2:     83 shell pairs

Calculating one electron integrals          ... done (  0.0 sec)
Calculating RI/J V-Matrix + Cholesky decomp.... done (  0.3 sec)
Calculating RI/JK V-Matrix + Cholesky decomp... done (  0.3 sec)
Calculating RI/C V-Matrix + Cholesky decomp.... done (  0.2 sec)
Calculating Nuclear repulsion               ... done (  0.0 sec) ENN=    915.870962459237 Eh

SHARK setup successfully completed in   0.9 seconds

Maximum memory used throughout the entire GTOINT-calculation: 24.1 MB


           ************************************************************
           *        Program running with 16 parallel MPI-processes    *
           *              working on a common directory               *
           ************************************************************
-------------------------------------------------------------------------------
                                 ORCA SCF
-------------------------------------------------------------------------------

------------
SCF SETTINGS
------------
Hamiltonian:
 Density Functional     Method          .... DFT(GTOs)
 Exchange Functional    Exchange        .... B88
   X-Alpha parameter    XAlpha          ....  0.666667
   Becke's b parameter  XBeta           ....  0.004200
 Correlation Functional Correlation     .... LYP
 LDA part of GGA corr.  LDAOpt          .... VWN-5
 Gradients option       PostSCFGGA      .... off
 Hybrid DFT is turned on
   Fraction HF Exchange ScalHFX         ....  0.200000
   Scaling of DF-GGA-X  ScalDFX         ....  0.720000
   Scaling of DF-GGA-C  ScalDFC         ....  0.810000
   Scaling of DF-LDA-C  ScalLDAC        ....  1.000000
   Perturbative correction              ....  0.000000
   Density functional embedding theory  .... OFF
   NL short-range parameter             ....  4.800000
 RI-approximation to the Coulomb term is turned on
   Number of AuxJ basis functions       .... 2314
   RIJ-COSX (HFX calculated with COS-X)).... on


General Settings:
 Integral files         IntName         .... epr_info
 Hartree-Fock type      HFTyp           .... UHF
 Total Charge           Charge          ....    0
 Multiplicity           Mult            ....    2
 Number of Electrons    NEL             ....  107
 Basis Dimension        Dim             ....  329
 Nuclear Repulsion      ENuc            ....    915.8709624592 Eh

Convergence Acceleration:
 DIIS                   CNVDIIS         .... on
   Start iteration      DIISMaxIt       ....    12
   Startup error        DIISStart       ....  0.200000
   # of expansion vecs  DIISMaxEq       ....     5
   Bias factor          DIISBfac        ....   1.050
   Max. coefficient     DIISMaxC        ....  10.000
 Trust-Rad. Augm. Hess. CNVTRAH         .... auto
   Auto Start mean grad. ratio tolernc. ....  1.125000
   Auto Start start iteration           ....    20
   Auto Start num. interpolation iter.  ....    10
   Max. Number of Micro iterations      ....    16
   Max. Number of Macro iterations      .... Maxiter - #DIIS iter
   Number of Davidson start vectors     ....     2
   Converg. threshold I  (grad. norm)   ....   5.000e-05
   Converg. threshold II (energy diff.) ....   1.000e-06
   Grad. Scal. Fac. for Micro threshold ....   0.100
   Minimum threshold for Micro iter.    ....   0.010
   NR start threshold (gradient norm)   ....   0.001
   Initial trust radius                 ....   0.400
   Minimum AH scaling param. (alpha)    ....   1.000
   Maximum AH scaling param. (alpha)    .... 1000.000
   Orbital update algorithm             .... Taylor
   White noise on init. David. guess    .... on
   Maximum white noise                  ....   0.010
   Quad. conv. algorithm                .... NR
 SOSCF                  CNVSOSCF        .... off
 Level Shifting         CNVShift        .... on
   Level shift para.    LevelShift      ....    0.2500
   Turn off err/grad.   ShiftErr        ....    0.0010
 Zerner damping         CNVZerner       .... off
 Static damping         CNVDamp         .... on
   Fraction old density DampFac         ....    0.7000
   Max. Damping (<1)    DampMax         ....    0.9800
   Min. Damping (>=0)   DampMin         ....    0.0000
   Turn off err/grad.   DampErr         ....    0.1000
 Fernandez-Rico         CNVRico         .... off

SCF Procedure:
 Maximum # iterations   MaxIter         ....   125
 SCF integral mode      SCFMode         .... Direct
   Integral package                     .... SHARK and LIBINT hybrid scheme
 Reset frequency        DirectResetFreq ....    20
 Integral Threshold     Thresh          ....  1.000e-10 Eh
 Primitive CutOff       TCut            ....  1.000e-11 Eh

Convergence Tolerance:
 Convergence Check Mode ConvCheckMode   .... Total+1el-Energy
 Convergence forced     ConvForced      .... 0
 Energy Change          TolE            ....  1.000e-06 Eh
 1-El. energy change                    ....  1.000e-03 Eh
 DIIS Error             TolErr          ....  1.000e-06


Diagonalization of the overlap matrix:
Smallest eigenvalue                        ... 8.226e-04
Time for diagonalization                   ...    0.011 sec
Threshold for overlap eigenvalues          ... 1.000e-08
Number of eigenvalues below threshold      ... 0
Time for construction of square roots      ...    0.010 sec
Total time needed                          ...    0.022 sec

Time for model grid setup =    0.100 sec

------------------------------
INITIAL GUESS: MODEL POTENTIAL
------------------------------
Loading Hartree-Fock densities                     ... done
Calculating cut-offs                               ... done
Initializing the effective Hamiltonian             ... done
Setting up the integral package (SHARK)            ... done
Starting the Coulomb interaction                   ... done (   0.0 sec)
Reading the grid                                   ... done
Mapping shells                                     ... done
Starting the XC term evaluation                    ... done (   0.0 sec)
  promolecular density results
     # of electrons  =    106.990852869
     EX              =    -90.907915343
     EC              =     -3.672722384
     EX+EC           =    -94.580637727
Transforming the Hamiltonian                       ... done (   0.0 sec)
Diagonalizing the Hamiltonian                      ... done (   0.0 sec)
Back transforming the eigenvectors                 ... done (   0.0 sec)
Now organizing SCF variables                       ... done
                      ------------------
                      INITIAL GUESS DONE (   0.3 sec)
                      ------------------
-------------------
DFT GRID GENERATION
-------------------

General Integration Accuracy     IntAcc      ... 4.388
Radial Grid Type                 RadialGrid  ... OptM3 with GC (2021)
Angular Grid (max. ang.)         AngularGrid ... 4 (Lebedev-302)
Angular grid pruning method      GridPruning ... 4 (adaptive)
Weight generation scheme         WeightScheme... Becke
Basis function cutoff            BFCut       ... 1.0000e-10
Integration weight cutoff        WCut        ... 1.0000e-14
Angular grids for H and He will be reduced by one unit
Partially contracted basis set               ... off
Rotationally invariant grid construction     ... off

Total number of grid points                  ...   125937
Total number of batches                      ...     1982
Average number of points per batch           ...       63
Average number of grid points per atom       ...     4664
Time for grid setup =    0.536 sec

--------------------
COSX GRID GENERATION
--------------------

GRIDX 1
-------
General Integration Accuracy     IntAcc      ... 3.816
Radial Grid Type                 RadialGrid  ... OptM3 with GC (2021)
Angular Grid (max. ang.)         AngularGrid ... 1 (Lebedev-50)
Angular grid pruning method      GridPruning ... 4 (adaptive)
Weight generation scheme         WeightScheme... Becke
Basis function cutoff            BFCut       ... 1.0000e-10
Integration weight cutoff        WCut        ... 1.0000e-14
Angular grids for H and He will be reduced by one unit
Partially contracted basis set               ... on
Rotationally invariant grid construction     ... off

Total number of grid points                  ...    16042
Total number of batches                      ...      265
Average number of points per batch           ...       60
Average number of grid points per atom       ...      594
UseSFitting                                  ... on

GRIDX 2
-------
General Integration Accuracy     IntAcc      ... 4.020
Radial Grid Type                 RadialGrid  ... OptM3 with GC (2021)
Angular Grid (max. ang.)         AngularGrid ... 2 (Lebedev-110)
Angular grid pruning method      GridPruning ... 4 (adaptive)
Weight generation scheme         WeightScheme... Becke
Basis function cutoff            BFCut       ... 1.0000e-10
Integration weight cutoff        WCut        ... 1.0000e-14
Angular grids for H and He will be reduced by one unit
Partially contracted basis set               ... on
Rotationally invariant grid construction     ... off

Total number of grid points                  ...    34688
Total number of batches                      ...      555
Average number of points per batch           ...       62
Average number of grid points per atom       ...     1285
UseSFitting                                  ... on

GRIDX 3
-------
General Integration Accuracy     IntAcc      ... 4.338
Radial Grid Type                 RadialGrid  ... OptM3 with GC (2021)
Angular Grid (max. ang.)         AngularGrid ... 3 (Lebedev-194)
Angular grid pruning method      GridPruning ... 4 (adaptive)
Weight generation scheme         WeightScheme... Becke
Basis function cutoff            BFCut       ... 1.0000e-10
Integration weight cutoff        WCut        ... 1.0000e-14
Angular grids for H and He will be reduced by one unit
Partially contracted basis set               ... on
Rotationally invariant grid construction     ... off

Total number of grid points                  ...    76050
Total number of batches                      ...     1201
Average number of points per batch           ...       63
Average number of grid points per atom       ...     2817
UseSFitting                                  ... on

Time for X-Grid setup             =    0.594 sec

--------------
SCF ITERATIONS
--------------
ITER       Energy         Delta-E        Max-DP      RMS-DP      [F,P]     Damp
               ***  Starting incremental Fock matrix formation  ***
  0   -722.3427051195   0.000000000000 0.06567267  0.00108756  0.1288525 0.7000
  1   -722.5898004531  -0.247095333575 0.04106209  0.00073291  0.0499365 0.7000
                               ***Turning on DIIS***
  2   -722.6721327927  -0.082332339602 0.06178963  0.00106575  0.0181780 0.0000
  3   -722.8209432869  -0.148810494202 0.03650730  0.00054862  0.0260279 0.0000
  4   -722.8469167207  -0.025973433785 0.01359376  0.00018582  0.0109332 0.0000
  5   -722.8494927721  -0.002576051480 0.00553158  0.00006557  0.0036170 0.0000
  6   -722.8497030214  -0.000210249304 0.00217151  0.00002720  0.0013935 0.0000
  7   -722.8497549296  -0.000051908147 0.00239232  0.00002733  0.0009828 0.0000
               *** Restarting incremental Fock matrix formation ***
                                   *** Resetting DIIS ***
  8   -722.8497898207  -0.000034891150 0.00136318  0.00001235  0.0005226 0.0000
  9   -722.8497943179  -0.000004497182 0.00055552  0.00000506  0.0005568 0.0000
 10   -722.8497971923  -0.000002874435 0.00080797  0.00000404  0.0002909 0.0000
 11   -722.8497980795  -0.000000887186 0.00048917  0.00000293  0.0002202 0.0000
                 **** Energy Check signals convergence ****

               *****************************************************
               *                     SUCCESS                       *
               *           SCF CONVERGED AFTER  12 CYCLES          *
               *****************************************************

Old exchange energy                            =    -18.429198142 Eh
New exchange energy                            =    -18.429214536 Eh
Exchange energy change after final integration =     -0.000016394 Eh
Total energy after final integration           =   -722.849815065 Eh
Final COS-X integration done in                =     1.740 sec

----------------
TOTAL SCF ENERGY
----------------

Total Energy       :         -722.84981506 Eh          -19669.74346 eV

Components:
Nuclear Repulsion  :          915.87096246 Eh           24922.11590 eV
Electronic Energy  :        -1638.72077752 Eh          -44591.85936 eV
One Electron Energy:        -2803.63676969 Eh          -76290.83505 eV
Two Electron Energy:         1164.91599216 Eh           31698.97569 eV
Max COSX asymmetry :            0.00000188 Eh               0.00005 eV

Virial components:
Potential Energy   :        -1440.91814108 Eh          -39209.37598 eV
Kinetic Energy     :          718.06832601 Eh           19539.63253 eV
Virial Ratio       :            2.00665882


DFT components:
N(Alpha)           :       54.000011810630 electrons
N(Beta)            :       53.000016797202 electrons
N(Total)           :      107.000028607831 electrons
E(X)               :      -73.294220821106 Eh       
E(C)               :       -4.324732594334 Eh       
E(XC)              :      -77.618953415440 Eh       
DFET-embed. en.    :        0.000000000000 Eh       

---------------
SCF CONVERGENCE
---------------

  Last Energy change         ...   -5.9088e-07  Tolerance :   1.0000e-06
  Last MAX-Density change    ...    0.0000e+00  Tolerance :   1.0000e-05
  Last RMS-Density change    ...    0.0000e+00  Tolerance :   1.0000e-06
  Last DIIS Error            ...    1.0778e-04  Tolerance :   1.0000e-06

             **** THE GBW FILE WAS UPDATED (epr_info.gbw) ****
             **** DENSITY epr_info.scfp WAS UPDATED ****
             **** ENERGY FILE WAS UPDATED (epr_info.en.tmp) ****
----------------------
UHF SPIN CONTAMINATION
----------------------

Warning: in a DFT calculation there is little theoretical justification to 
         calculate <S**2> as in Hartree-Fock theory. We will do it anyways
         but you should keep in mind that the values have only limited relevance

Expectation value of <S**2>     :     0.757865
Ideal value S*(S+1) for S=0.5   :     0.750000
Deviation                       :     0.007865

             **** THE GBW FILE WAS UPDATED (epr_info.gbw) ****
             **** DENSITY epr_info.scfp WAS UPDATED ****
----------------
ORBITAL ENERGIES
----------------
                 SPIN UP ORBITALS
  NO   OCC          E(Eh)            E(eV) 
   0   1.0000     -19.191241      -522.2202 
   1   1.0000     -19.141115      -520.8562 
   2   1.0000     -19.131690      -520.5997 
   3   1.0000     -19.111024      -520.0374 
   4   1.0000     -14.379524      -391.2867 
   5   1.0000     -14.360783      -390.7768 
   6   1.0000     -10.327905      -281.0366 
   7   1.0000     -10.312214      -280.6096 
   8   1.0000     -10.298372      -280.2330 
   9   1.0000     -10.256169      -279.0845 
  10   1.0000     -10.236606      -278.5522 
  11   1.0000     -10.231553      -278.4147 
  12   1.0000     -10.215154      -277.9685 
  13   1.0000     -10.192955      -277.3644 
  14   1.0000      -1.104056       -30.0429 
  15   1.0000      -1.055266       -28.7152 
  16   1.0000      -1.033470       -28.1221 
  17   1.0000      -1.015540       -27.6343 
  18   1.0000      -0.939088       -25.5539 
  19   1.0000      -0.928822       -25.2745 
  20   1.0000      -0.820144       -22.3173 
  21   1.0000      -0.764269       -20.7968 
  22   1.0000      -0.734442       -19.9852 
  23   1.0000      -0.707800       -19.2602 
  24   1.0000      -0.658002       -17.9051 
  25   1.0000      -0.607498       -16.5309 
  26   1.0000      -0.606474       -16.5030 
  27   1.0000      -0.579915       -15.7803 
  28   1.0000      -0.547788       -14.9061 
  29   1.0000      -0.510035       -13.8788 
  30   1.0000      -0.491811       -13.3828 
  31   1.0000      -0.483419       -13.1545 
  32   1.0000      -0.476595       -12.9688 
  33   1.0000      -0.472480       -12.8568 
  34   1.0000      -0.462784       -12.5930 
  35   1.0000      -0.455801       -12.4030 
  36   1.0000      -0.454605       -12.3704 
  37   1.0000      -0.439074       -11.9478 
  38   1.0000      -0.431535       -11.7427 
  39   1.0000      -0.413783       -11.2596 
  40   1.0000      -0.411193       -11.1891 
  41   1.0000      -0.409779       -11.1506 
  42   1.0000      -0.402332       -10.9480 
  43   1.0000      -0.396612       -10.7924 
  44   1.0000      -0.382131       -10.3983 
  45   1.0000      -0.378711       -10.3053 
  46   1.0000      -0.354634        -9.6501 
  47   1.0000      -0.334248        -9.0953 
  48   1.0000      -0.287097        -7.8123 
  49   1.0000      -0.280509        -7.6330 
  50   1.0000      -0.279861        -7.6154 
  51   1.0000      -0.266499        -7.2518 
  52   1.0000      -0.256910        -6.9909 
  53   1.0000      -0.238263        -6.4835 
  54   0.0000      -0.004092        -0.1113 
  55   0.0000       0.005346         0.1455 
  56   0.0000       0.018086         0.4922 
  57   0.0000       0.019280         0.5246 
  58   0.0000       0.028604         0.7784 
  59   0.0000       0.029770         0.8101 
  60   0.0000       0.034088         0.9276 
  61   0.0000       0.055881         1.5206 
  62   0.0000       0.062487         1.7004 
  63   0.0000       0.069823         1.9000 
  64   0.0000       0.083997         2.2857 
  65   0.0000       0.098460         2.6792 
  66   0.0000       0.107588         2.9276 
  67   0.0000       0.127011         3.4561 
  68   0.0000       0.141490         3.8501 
  69   0.0000       0.152318         4.1448 
  70   0.0000       0.158172         4.3041 
  71   0.0000       0.170766         4.6468 
  72   0.0000       0.175014         4.7624 
  73   0.0000       0.175838         4.7848 
  74   0.0000       0.184729         5.0267 
  75   0.0000       0.192573         5.2402 
  76   0.0000       0.196473         5.3463 
  77   0.0000       0.199488         5.4283 
  78   0.0000       0.207057         5.6343 
  79   0.0000       0.218036         5.9331 
  80   0.0000       0.226731         6.1697 
  81   0.0000       0.227592         6.1931 
  82   0.0000       0.236183         6.4269 
  83   0.0000       0.243836         6.6351 
  84   0.0000       0.255240         6.9454 
  85   0.0000       0.262776         7.1505 
  86   0.0000       0.267283         7.2732 
  87   0.0000       0.276032         7.5112 
  88   0.0000       0.282583         7.6895 
  89   0.0000       0.285298         7.7634 
  90   0.0000       0.291525         7.9328 
  91   0.0000       0.296563         8.0699 
  92   0.0000       0.307120         8.3571 
  93   0.0000       0.312753         8.5104 
  94   0.0000       0.321798         8.7566 
  95   0.0000       0.322612         8.7787 
  96   0.0000       0.337875         9.1941 
  97   0.0000       0.340446         9.2640 
  98   0.0000       0.357980         9.7411 
  99   0.0000       0.364654         9.9228 
 100   0.0000       0.368466        10.0265 
 101   0.0000       0.384861        10.4726 
 102   0.0000       0.400712        10.9039 
 103   0.0000       0.407764        11.0958 
 104   0.0000       0.409987        11.1563 
 105   0.0000       0.428532        11.6609 
 106   0.0000       0.431618        11.7449 
 107   0.0000       0.448608        12.2073 
 108   0.0000       0.453386        12.3373 
 109   0.0000       0.463633        12.6161 
 110   0.0000       0.469881        12.7861 
 111   0.0000       0.499272        13.5859 
 112   0.0000       0.507255        13.8031 
 113   0.0000       0.521652        14.1949 
 114   0.0000       0.529832        14.4175 
 115   0.0000       0.545482        14.8433 
 116   0.0000       0.555365        15.1122 
 117   0.0000       0.575339        15.6558 
 118   0.0000       0.581766        15.8307 
 119   0.0000       0.588183        16.0053 
 120   0.0000       0.617865        16.8130 
 121   0.0000       0.623802        16.9745 
 122   0.0000       0.655254        17.8304 
 123   0.0000       0.664341        18.0776 
 124   0.0000       0.681645        18.5485 
 125   0.0000       0.702137        19.1061 
 126   0.0000       0.705535        19.1986 
 127   0.0000       0.738629        20.0991 
 128   0.0000       0.759976        20.6800 
 129   0.0000       0.775348        21.0983 
 130   0.0000       0.781599        21.2684 
 131   0.0000       0.788260        21.4496 
 132   0.0000       0.810586        22.0572 
 133   0.0000       0.815297        22.1854 
 134   0.0000       0.820130        22.3169 
 135   0.0000       0.827060        22.5054 
 136   0.0000       0.834465        22.7069 
 137   0.0000       0.837637        22.7933 
 138   0.0000       0.852151        23.1882 
 139   0.0000       0.854395        23.2493 
 140   0.0000       0.866473        23.5779 
 141   0.0000       0.876264        23.8444 
 142   0.0000       0.893160        24.3041 
 143   0.0000       0.895644        24.3717 
 144   0.0000       0.906844        24.6765 
 145   0.0000       0.915868        24.9220 
 146   0.0000       0.923633        25.1333 
 147   0.0000       0.926151        25.2019 
 148   0.0000       0.930338        25.3158 
 149   0.0000       0.945959        25.7408 
 150   0.0000       0.964143        26.2357 
 151   0.0000       0.971204        26.4278 
 152   0.0000       0.976915        26.5832 
 153   0.0000       0.984341        26.7853 
 154   0.0000       0.989552        26.9271 
 155   0.0000       1.008328        27.4380 
 156   0.0000       1.019823        27.7508 
 157   0.0000       1.030731        28.0476 
 158   0.0000       1.040957        28.3259 
 159   0.0000       1.059471        28.8297 
 160   0.0000       1.077251        29.3135 
 161   0.0000       1.106849        30.1189 
 162   0.0000       1.127848        30.6903 
 163   0.0000       1.140101        31.0237 
 164   0.0000       1.146651        31.2020 
 165   0.0000       1.153055        31.3762 
 166   0.0000       1.168895        31.8072 
 167   0.0000       1.177617        32.0446 
 168   0.0000       1.189422        32.3658 
 169   0.0000       1.210005        32.9259 
 170   0.0000       1.256750        34.1979 
 171   0.0000       1.290325        35.1115 
 172   0.0000       1.301582        35.4179 
 173   0.0000       1.320493        35.9324 
 174   0.0000       1.343769        36.5658 
 175   0.0000       1.364140        37.1201 
 176   0.0000       1.382691        37.6249 
 177   0.0000       1.385441        37.6998 
 178   0.0000       1.388188        37.7745 
 179   0.0000       1.399746        38.0890 
 180   0.0000       1.405567        38.2474 
 181   0.0000       1.420725        38.6599 
 182   0.0000       1.431192        38.9447 
 183   0.0000       1.456338        39.6290 
 184   0.0000       1.481156        40.3043 
 185   0.0000       1.484580        40.3975 
 186   0.0000       1.490709        40.5643 
 187   0.0000       1.498952        40.7886 
 188   0.0000       1.531335        41.6698 
 189   0.0000       1.545197        42.0469 
 190   0.0000       1.547114        42.0991 
 191   0.0000       1.564119        42.5618 
 192   0.0000       1.574235        42.8371 
 193   0.0000       1.587508        43.1983 
 194   0.0000       1.597782        43.4779 
 195   0.0000       1.605988        43.7012 
 196   0.0000       1.609556        43.7982 
 197   0.0000       1.629246        44.3340 
 198   0.0000       1.650337        44.9079 
 199   0.0000       1.667410        45.3725 
 200   0.0000       1.679882        45.7119 
 201   0.0000       1.686912        45.9032 
 202   0.0000       1.701348        46.2960 
 203   0.0000       1.713082        46.6153 
 204   0.0000       1.721944        46.8565 
 205   0.0000       1.729159        47.0528 
 206   0.0000       1.750627        47.6370 
 207   0.0000       1.767173        48.0872 
 208   0.0000       1.803013        49.0625 
 209   0.0000       1.809180        49.2303 
 210   0.0000       1.824070        49.6355 
 211   0.0000       1.835999        49.9601 
 212   0.0000       1.850267        50.3483 
 213   0.0000       1.863960        50.7209 
 214   0.0000       1.871551        50.9275 
 215   0.0000       1.884894        51.2906 
 216   0.0000       1.933530        52.6140 
 217   0.0000       1.948445        53.0199 
 218   0.0000       1.976312        53.7782 
 219   0.0000       2.000624        54.4398 
 220   0.0000       2.032704        55.3127 
 221   0.0000       2.041819        55.5607 
 222   0.0000       2.048588        55.7449 
 223   0.0000       2.074903        56.4610 
 224   0.0000       2.093942        56.9791 
 225   0.0000       2.117203        57.6120 
 226   0.0000       2.131448        57.9996 
 227   0.0000       2.143868        58.3376 
 228   0.0000       2.161148        58.8078 
 229   0.0000       2.185782        59.4781 
 230   0.0000       2.207972        60.0820 
 231   0.0000       2.236277        60.8522 
 232   0.0000       2.245290        61.0975 
 233   0.0000       2.279158        62.0191 
 234   0.0000       2.293184        62.4007 
 235   0.0000       2.331133        63.4334 
 236   0.0000       2.337943        63.6187 
 237   0.0000       2.379021        64.7365 
 238   0.0000       2.388767        65.0017 
 239   0.0000       2.392240        65.0962 
 240   0.0000       2.408815        65.5472 
 241   0.0000       2.429947        66.1222 
 242   0.0000       2.438648        66.3590 
 243   0.0000       2.461870        66.9909 
 244   0.0000       2.492256        67.8177 
 245   0.0000       2.497825        67.9693 
 246   0.0000       2.532494        68.9127 
 247   0.0000       2.558491        69.6201 
 248   0.0000       2.601878        70.8007 
 249   0.0000       2.604774        70.8795 
 250   0.0000       2.607768        70.9610 
 251   0.0000       2.631632        71.6104 
 252   0.0000       2.681119        72.9570 
 253   0.0000       2.686597        73.1060 
 254   0.0000       2.707230        73.6675 
 255   0.0000       2.738344        74.5141 
 256   0.0000       2.760484        75.1166 
 257   0.0000       2.772216        75.4358 
 258   0.0000       2.809692        76.4556 
 259   0.0000       2.837152        77.2028 
 260   0.0000       2.884084        78.4799 
 261   0.0000       2.976895        81.0054 
 262   0.0000       3.017067        82.0986 
 263   0.0000       3.038699        82.6872 
 264   0.0000       3.074637        83.6651 
 265   0.0000       3.097605        84.2901 
 266   0.0000       3.104915        84.4890 
 267   0.0000       3.119880        84.8962 
 268   0.0000       3.355134        91.2978 
 269   0.0000       3.362558        91.4999 
 270   0.0000       3.410606        92.8073 
 271   0.0000       3.427648        93.2710 
 272   0.0000       3.429745        93.3281 
 273   0.0000       3.431787        93.3837 
 274   0.0000       3.613078        98.3168 
 275   0.0000       4.923080       133.9638 
 276   0.0000       4.963409       135.0612 
 277   0.0000       4.983073       135.5963 
 278   0.0000       4.985317       135.6574 
 279   0.0000       5.005782       136.2143 
 280   0.0000       5.015849       136.4882 
 281   0.0000       5.048062       137.3648 
 282   0.0000       5.100727       138.7978 
 283   0.0000       5.109979       139.0496 
 284   0.0000       5.147722       140.0766 
 285   0.0000       5.208821       141.7392 
 286   0.0000       5.247234       142.7845 
 287   0.0000       5.258300       143.0856 
 288   0.0000       5.296051       144.1129 
 289   0.0000       5.336786       145.2213 
 290   0.0000       5.350124       145.5843 
 291   0.0000       5.513418       150.0277 
 292   0.0000       5.584665       151.9664 
 293   0.0000       5.651904       153.7961 
 294   0.0000       5.712836       155.4542 
 295   0.0000       5.789744       157.5469 
 296   0.0000       7.281715       198.1456 
 297   0.0000       7.317278       199.1132 
 298   0.0000       8.878907       241.6073 
 299   0.0000       9.069201       246.7855 
 300   0.0000       9.095813       247.5097 
 301   0.0000       9.116631       248.0761 
 302   0.0000      29.491246       802.4976 
 303   0.0000      29.607796       805.6691 
 304   0.0000      29.668264       807.3145 
 305   0.0000      29.879505       813.0627 
 306   0.0000      29.960373       815.2632 
 307   0.0000      30.043003       817.5117 
 308   0.0000      30.080675       818.5368 
 309   0.0000      30.194280       821.6281 
 310   0.0000      36.540989       994.3309 
 311   0.0000      36.602237       995.9975 
 312   0.0000      36.603939       996.0438 
 313   0.0000      36.609357       996.1912 
 314   0.0000      36.632495       996.8209 
 315   0.0000      36.668769       997.8079 
 316   0.0000      36.700531       998.6722 
 317   0.0000      36.715324       999.0747 
 318   0.0000      36.773142      1000.6481 
 319   0.0000      36.799730      1001.3716 
 320   0.0000      36.884191      1003.6699 
 321   0.0000      36.892179      1003.8872 
 322   0.0000      36.918725      1004.6096 
 323   0.0000      41.221794      1121.7020 
 324   0.0000      41.256637      1122.6502 
 325   0.0000      53.427674      1453.8409 
 326   0.0000      53.605520      1458.6804 
 327   0.0000      53.631742      1459.3939 
 328   0.0000      53.653856      1459.9957 

                 SPIN DOWN ORBITALS
  NO   OCC          E(Eh)            E(eV) 
   0   1.0000     -19.190869      -522.2101 
   1   1.0000     -19.135867      -520.7134 
   2   1.0000     -19.131641      -520.5984 
   3   1.0000     -19.110872      -520.0333 
   4   1.0000     -14.379521      -391.2867 
   5   1.0000     -14.360743      -390.7757 
   6   1.0000     -10.329051      -281.0678 
   7   1.0000     -10.312207      -280.6094 
   8   1.0000     -10.298390      -280.2334 
   9   1.0000     -10.255535      -279.0673 
  10   1.0000     -10.231552      -278.4147 
  11   1.0000     -10.224795      -278.2308 
  12   1.0000     -10.215757      -277.9849 
  13   1.0000     -10.192952      -277.3643 
  14   1.0000      -1.101146       -29.9637 
  15   1.0000      -1.055131       -28.7116 
  16   1.0000      -1.033250       -28.1162 
  17   1.0000      -1.008007       -27.4293 
  18   1.0000      -0.939048       -25.5528 
  19   1.0000      -0.928368       -25.2622 
  20   1.0000      -0.809741       -22.0342 
  21   1.0000      -0.755186       -20.5496 
  22   1.0000      -0.733993       -19.9730 
  23   1.0000      -0.702766       -19.1232 
  24   1.0000      -0.655586       -17.8394 
  25   1.0000      -0.606856       -16.5134 
  26   1.0000      -0.600774       -16.3479 
  27   1.0000      -0.577142       -15.7048 
  28   1.0000      -0.547254       -14.8916 
  29   1.0000      -0.507385       -13.8066 
  30   1.0000      -0.487969       -13.2783 
  31   1.0000      -0.483176       -13.1479 
  32   1.0000      -0.472406       -12.8548 
  33   1.0000      -0.469550       -12.7771 
  34   1.0000      -0.461238       -12.5509 
  35   1.0000      -0.453478       -12.3398 
  36   1.0000      -0.445062       -12.1107 
  37   1.0000      -0.433917       -11.8075 
  38   1.0000      -0.429626       -11.6907 
  39   1.0000      -0.413150       -11.2424 
  40   1.0000      -0.408461       -11.1148 
  41   1.0000      -0.407645       -11.0926 
  42   1.0000      -0.399804       -10.8792 
  43   1.0000      -0.394335       -10.7304 
  44   1.0000      -0.380584       -10.3562 
  45   1.0000      -0.377021       -10.2593 
  46   1.0000      -0.353632        -9.6228 
  47   1.0000      -0.316099        -8.6015 
  48   1.0000      -0.282343        -7.6829 
  49   1.0000      -0.279214        -7.5978 
  50   1.0000      -0.277708        -7.5568 
  51   1.0000      -0.262277        -7.1369 
  52   1.0000      -0.256241        -6.9727 
  53   0.0000      -0.119363        -3.2480 
  54   0.0000      -0.003509        -0.0955 
  55   0.0000       0.005517         0.1501 
  56   0.0000       0.018272         0.4972 
  57   0.0000       0.019501         0.5306 
  58   0.0000       0.028763         0.7827 
  59   0.0000       0.031420         0.8550 
  60   0.0000       0.050741         1.3807 
  61   0.0000       0.060918         1.6577 
  62   0.0000       0.066888         1.8201 
  63   0.0000       0.070100         1.9075 
  64   0.0000       0.085310         2.3214 
  65   0.0000       0.100910         2.7459 
  66   0.0000       0.108728         2.9586 
  67   0.0000       0.127489         3.4692 
  68   0.0000       0.142082         3.8663 
  69   0.0000       0.152393         4.1468 
  70   0.0000       0.159146         4.3306 
  71   0.0000       0.172056         4.6819 
  72   0.0000       0.175731         4.7819 
  73   0.0000       0.176868         4.8128 
  74   0.0000       0.185852         5.0573 
  75   0.0000       0.192954         5.2505 
  76   0.0000       0.197136         5.3643 
  77   0.0000       0.204647         5.5687 
  78   0.0000       0.209029         5.6880 
  79   0.0000       0.218940         5.9576 
  80   0.0000       0.228524         6.2185 
  81   0.0000       0.228933         6.2296 
  82   0.0000       0.241109         6.5609 
  83   0.0000       0.246962         6.7202 
  84   0.0000       0.256721         6.9857 
  85   0.0000       0.263628         7.1737 
  86   0.0000       0.269103         7.3227 
  87   0.0000       0.276640         7.5278 
  88   0.0000       0.284311         7.7365 
  89   0.0000       0.287302         7.8179 
  90   0.0000       0.292977         7.9723 
  91   0.0000       0.298870         8.1327 
  92   0.0000       0.307517         8.3680 
  93   0.0000       0.314569         8.5598 
  94   0.0000       0.323564         8.8046 
  95   0.0000       0.327827         8.9206 
  96   0.0000       0.338550         9.2124 
  97   0.0000       0.342293         9.3143 
  98   0.0000       0.360436         9.8080 
  99   0.0000       0.366583         9.9752 
 100   0.0000       0.372750        10.1431 
 101   0.0000       0.389474        10.5981 
 102   0.0000       0.402492        10.9524 
 103   0.0000       0.408204        11.1078 
 104   0.0000       0.413530        11.2527 
 105   0.0000       0.429291        11.6816 
 106   0.0000       0.433496        11.7960 
 107   0.0000       0.450970        12.2715 
 108   0.0000       0.454353        12.3636 
 109   0.0000       0.466473        12.6934 
 110   0.0000       0.474946        12.9239 
 111   0.0000       0.500722        13.6253 
 112   0.0000       0.511239        13.9115 
 113   0.0000       0.525346        14.2954 
 114   0.0000       0.538371        14.6498 
 115   0.0000       0.547223        14.8907 
 116   0.0000       0.558783        15.2053 
 117   0.0000       0.577167        15.7055 
 118   0.0000       0.583548        15.8792 
 119   0.0000       0.589801        16.0493 
 120   0.0000       0.622232        16.9318 
 121   0.0000       0.625088        17.0095 
 122   0.0000       0.655953        17.8494 
 123   0.0000       0.665905        18.1202 
 124   0.0000       0.684835        18.6353 
 125   0.0000       0.705471        19.1968 
 126   0.0000       0.709250        19.2997 
 127   0.0000       0.741305        20.1719 
 128   0.0000       0.762756        20.7557 
 129   0.0000       0.779274        21.2051 
 130   0.0000       0.782828        21.3018 
 131   0.0000       0.791084        21.5265 
 132   0.0000       0.811362        22.0783 
 133   0.0000       0.816999        22.2317 
 134   0.0000       0.822437        22.3796 
 135   0.0000       0.828878        22.5549 
 136   0.0000       0.835674        22.7398 
 137   0.0000       0.840230        22.8638 
 138   0.0000       0.853332        23.2203 
 139   0.0000       0.855489        23.2791 
 140   0.0000       0.866968        23.5914 
 141   0.0000       0.878869        23.9152 
 142   0.0000       0.894435        24.3388 
 143   0.0000       0.897747        24.4289 
 144   0.0000       0.908441        24.7199 
 145   0.0000       0.916388        24.9362 
 146   0.0000       0.925890        25.1947 
 147   0.0000       0.926705        25.2169 
 148   0.0000       0.931033        25.3347 
 149   0.0000       0.947307        25.7775 
 150   0.0000       0.966638        26.3036 
 151   0.0000       0.974986        26.5307 
 152   0.0000       0.979850        26.6631 
 153   0.0000       0.986439        26.8424 
 154   0.0000       0.992892        27.0180 
 155   0.0000       1.009115        27.4594 
 156   0.0000       1.023496        27.8507 
 157   0.0000       1.038470        28.2582 
 158   0.0000       1.044073        28.4107 
 159   0.0000       1.061946        28.8970 
 160   0.0000       1.081776        29.4366 
 161   0.0000       1.110880        30.2286 
 162   0.0000       1.130826        30.7713 
 163   0.0000       1.142607        31.0919 
 164   0.0000       1.149075        31.2679 
 165   0.0000       1.153437        31.3866 
 166   0.0000       1.169365        31.8201 
 167   0.0000       1.178557        32.0702 
 168   0.0000       1.193727        32.4830 
 169   0.0000       1.211800        32.9747 
 170   0.0000       1.259611        34.2758 
 171   0.0000       1.294004        35.2116 
 172   0.0000       1.304120        35.4869 
 173   0.0000       1.322554        35.9885 
 174   0.0000       1.344509        36.5860 
 175   0.0000       1.366867        37.1943 
 176   0.0000       1.383689        37.6521 
 177   0.0000       1.388360        37.7792 
 178   0.0000       1.393358        37.9152 
 179   0.0000       1.401259        38.1302 
 180   0.0000       1.405846        38.2550 
 181   0.0000       1.423670        38.7400 
 182   0.0000       1.437877        39.1266 
 183   0.0000       1.460352        39.7382 
 184   0.0000       1.481910        40.3248 
 185   0.0000       1.485028        40.4097 
 186   0.0000       1.493011        40.6269 
 187   0.0000       1.499820        40.8122 
 188   0.0000       1.532145        41.6918 
 189   0.0000       1.547583        42.1119 
 190   0.0000       1.549024        42.1511 
 191   0.0000       1.565454        42.5982 
 192   0.0000       1.575082        42.8602 
 193   0.0000       1.588405        43.2227 
 194   0.0000       1.600573        43.5538 
 195   0.0000       1.608800        43.7777 
 196   0.0000       1.613288        43.8998 
 197   0.0000       1.630312        44.3630 
 198   0.0000       1.651786        44.9474 
 199   0.0000       1.670924        45.4682 
 200   0.0000       1.681870        45.7660 
 201   0.0000       1.689891        45.9843 
 202   0.0000       1.708142        46.4809 
 203   0.0000       1.714622        46.6572 
 204   0.0000       1.722791        46.8795 
 205   0.0000       1.729829        47.0710 
 206   0.0000       1.759302        47.8730 
 207   0.0000       1.768506        48.1235 
 208   0.0000       1.806282        49.1514 
 209   0.0000       1.814624        49.3784 
 210   0.0000       1.826408        49.6991 
 211   0.0000       1.837414        49.9986 
 212   0.0000       1.852364        50.4054 
 213   0.0000       1.865954        50.7752 
 214   0.0000       1.877400        51.0867 
 215   0.0000       1.888132        51.3787 
 216   0.0000       1.938565        52.7510 
 217   0.0000       1.952767        53.1375 
 218   0.0000       1.978075        53.8262 
 219   0.0000       2.002573        54.4928 
 220   0.0000       2.035363        55.3851 
 221   0.0000       2.046719        55.6941 
 222   0.0000       2.053194        55.8702 
 223   0.0000       2.075990        56.4906 
 224   0.0000       2.094988        57.0075 
 225   0.0000       2.121773        57.7364 
 226   0.0000       2.132211        58.0204 
 227   0.0000       2.145054        58.3699 
 228   0.0000       2.162457        58.8434 
 229   0.0000       2.186565        59.4995 
 230   0.0000       2.209360        60.1198 
 231   0.0000       2.239697        60.9453 
 232   0.0000       2.245788        61.1110 
 233   0.0000       2.279957        62.0408 
 234   0.0000       2.296501        62.4910 
 235   0.0000       2.333607        63.5007 
 236   0.0000       2.338336        63.6293 
 237   0.0000       2.379798        64.7576 
 238   0.0000       2.388838        65.0036 
 239   0.0000       2.392507        65.1034 
 240   0.0000       2.409448        65.5644 
 241   0.0000       2.430205        66.1292 
 242   0.0000       2.439905        66.3932 
 243   0.0000       2.464888        67.0730 
 244   0.0000       2.492412        67.8220 
 245   0.0000       2.499124        68.0046 
 246   0.0000       2.533769        68.9473 
 247   0.0000       2.559497        69.6475 
 248   0.0000       2.603459        70.8437 
 249   0.0000       2.608015        70.9677 
 250   0.0000       2.619689        71.2854 
 251   0.0000       2.632756        71.6409 
 252   0.0000       2.681802        72.9755 
 253   0.0000       2.699075        73.4456 
 254   0.0000       2.709219        73.7216 
 255   0.0000       2.739023        74.5326 
 256   0.0000       2.761030        75.1314 
 257   0.0000       2.772410        75.4411 
 258   0.0000       2.809844        76.4597 
 259   0.0000       2.841577        77.3232 
 260   0.0000       2.888744        78.6067 
 261   0.0000       2.977152        81.0124 
 262   0.0000       3.017256        82.1037 
 263   0.0000       3.040023        82.7232 
 264   0.0000       3.074765        83.6686 
 265   0.0000       3.102827        84.4322 
 266   0.0000       3.111072        84.6566 
 267   0.0000       3.122667        84.9721 
 268   0.0000       3.355249        91.3010 
 269   0.0000       3.368068        91.6498 
 270   0.0000       3.410787        92.8122 
 271   0.0000       3.427840        93.2763 
 272   0.0000       3.430346        93.3445 
 273   0.0000       3.433450        93.4289 
 274   0.0000       3.614109        98.3449 
 275   0.0000       4.927380       134.0808 
 276   0.0000       4.965246       135.1112 
 277   0.0000       4.983098       135.5970 
 278   0.0000       4.985469       135.6615 
 279   0.0000       5.006735       136.2402 
 280   0.0000       5.017306       136.5279 
 281   0.0000       5.050597       137.4337 
 282   0.0000       5.106067       138.9431 
 283   0.0000       5.109973       139.0494 
 284   0.0000       5.147812       140.0791 
 285   0.0000       5.209079       141.7463 
 286   0.0000       5.247455       142.7905 
 287   0.0000       5.258811       143.0995 
 288   0.0000       5.297897       144.1631 
 289   0.0000       5.340538       145.3234 
 290   0.0000       5.350200       145.5863 
 291   0.0000       5.514345       150.0529 
 292   0.0000       5.587786       152.0514 
 293   0.0000       5.657193       153.9400 
 294   0.0000       5.713900       155.4831 
 295   0.0000       5.796724       157.7369 
 296   0.0000       7.281759       198.1467 
 297   0.0000       7.317372       199.1158 
 298   0.0000       8.882392       241.7022 
 299   0.0000       9.069576       246.7957 
 300   0.0000       9.095944       247.5132 
 301   0.0000       9.125632       248.3211 
 302   0.0000      29.495799       802.6215 
 303   0.0000      29.607846       805.6704 
 304   0.0000      29.668208       807.3130 
 305   0.0000      29.879613       813.0656 
 306   0.0000      29.964525       815.3762 
 307   0.0000      30.046067       817.5951 
 308   0.0000      30.082829       818.5954 
 309   0.0000      30.196504       821.6886 
 310   0.0000      36.541877       994.3550 
 311   0.0000      36.602299       995.9992 
 312   0.0000      36.603966       996.0445 
 313   0.0000      36.609369       996.1916 
 314   0.0000      36.632469       996.8202 
 315   0.0000      36.674152       997.9544 
 316   0.0000      36.706516       998.8351 
 317   0.0000      36.714832       999.0614 
 318   0.0000      36.766968      1000.4801 
 319   0.0000      36.801117      1001.4093 
 320   0.0000      36.888857      1003.7968 
 321   0.0000      36.894546      1003.9516 
 322   0.0000      36.918950      1004.6157 
 323   0.0000      41.221816      1121.7026 
 324   0.0000      41.256670      1122.6511 
 325   0.0000      53.429477      1453.8900 
 326   0.0000      53.605727      1458.6860 
 327   0.0000      53.631814      1459.3959 
 328   0.0000      53.658651      1460.1261 

                    ********************************
                    * MULLIKEN POPULATION ANALYSIS *
                    ********************************

--------------------------------------------
MULLIKEN ATOMIC CHARGES AND SPIN POPULATIONS
--------------------------------------------
   0 N :   -0.118487    0.001235
   1 C :   -0.134850    0.023119
   2 C :    0.110267    0.000302
   3 O :   -0.328864    0.002569
   4 C :   -0.277124   -0.047678
   5 C :   -0.034178    0.852769
   6 H :    0.166817   -0.039578
   7 C :    0.068799   -0.052692
   8 O :   -0.291341    0.013693
   9 O :   -0.270543    0.192456
  10 H :    0.256887   -0.000044
  11 H :    0.172128    0.002149
  12 C :    0.177289   -0.001192
  13 N :   -0.104655   -0.000659
  14 H :    0.289420   -0.001728
  15 H :    0.236294    0.000149
  16 O :   -0.322009    0.004487
  17 C :   -0.552427    0.000176
  18 H :    0.187196   -0.000015
  19 H :    0.188203    0.000008
  20 H :    0.151216    0.000029
  21 C :   -0.436219   -0.000078
  22 H :    0.185855    0.000051
  23 H :    0.144820    0.000005
  24 H :    0.183233    0.000015
  25 H :    0.152008    0.004989
  26 H :    0.200265    0.045461
Sum of atomic charges         :   -0.0000000
Sum of atomic spin populations:    1.0000000

-----------------------------------------------------
MULLIKEN REDUCED ORBITAL CHARGES AND SPIN POPULATIONS
-----------------------------------------------------
CHARGE
  0 N s       :     3.364085  s :     3.364085
      pz      :     1.139249  p :     3.720792
      px      :     1.003099
      py      :     1.578445
      dz2     :     0.008523  d :     0.033610
      dxz     :     0.011612
      dyz     :     0.002686
      dx2y2   :     0.005552
      dxy     :     0.005237
  1 C s       :     3.180171  s :     3.180171
      pz      :     0.943146  p :     2.850310
      px      :     0.876609
      py      :     1.030554
      dz2     :     0.022262  d :     0.104369
      dxz     :     0.016849
      dyz     :     0.014228
      dx2y2   :     0.026502
      dxy     :     0.024528
  2 C s       :     3.075835  s :     3.075835
      pz      :     0.937337  p :     2.619982
      px      :     0.871618
      py      :     0.811027
      dz2     :     0.061957  d :     0.193916
      dxz     :     0.040556
      dyz     :     0.020808
      dx2y2   :     0.031689
      dxy     :     0.038906
  3 O s       :     3.902087  s :     3.902087
      pz      :     1.456107  p :     4.408386
      px      :     1.523653
      py      :     1.428625
      dz2     :     0.003861  d :     0.018391
      dxz     :     0.006785
      dyz     :     0.003207
      dx2y2   :     0.002196
      dxy     :     0.002342
  4 C s       :     3.156621  s :     3.156621
      pz      :     1.057677  p :     3.043346
      px      :     1.085970
      py      :     0.899699
      dz2     :     0.018458  d :     0.077157
      dxz     :     0.009162
      dyz     :     0.015409
      dx2y2   :     0.024009
      dxy     :     0.010120
  5 C s       :     3.214370  s :     3.214370
      pz      :     0.913936  p :     2.762663
      px      :     0.967759
      py      :     0.880967
      dz2     :     0.004520  d :     0.057145
      dxz     :     0.005457
      dyz     :     0.009279
      dx2y2   :     0.017457
      dxy     :     0.020432
  6 H s       :     0.811533  s :     0.811533
      pz      :     0.005987  p :     0.021650
      px      :     0.010521
      py      :     0.005142
  7 C s       :     3.076684  s :     3.076684
      pz      :     0.845876  p :     2.636654
      px      :     0.865872
      py      :     0.924906
      dz2     :     0.017657  d :     0.217863
      dxz     :     0.030076
      dyz     :     0.035346
      dx2y2   :     0.060444
      dxy     :     0.074340
  8 O s       :     3.791264  s :     3.791264
      pz      :     1.739042  p :     4.484025
      px      :     1.249238
      py      :     1.495744
      dz2     :     0.002511  d :     0.016052
      dxz     :     0.002248
      dyz     :     0.001196
      dx2y2   :     0.004269
      dxy     :     0.005828
  9 O s       :     3.882354  s :     3.882354
      pz      :     1.394309  p :     4.369451
      px      :     1.705291
      py      :     1.269850
      dz2     :     0.002479  d :     0.018738
      dxz     :     0.000546
      dyz     :     0.005439
      dx2y2   :     0.005967
      dxy     :     0.004307
 10 H s       :     0.700778  s :     0.700778
      pz      :     0.018440  p :     0.042335
      px      :     0.010049
      py      :     0.013847
 11 H s       :     0.808550  s :     0.808550
      pz      :     0.005976  p :     0.019322
      px      :     0.003786
      py      :     0.009559
 12 C s       :     3.049406  s :     3.049406
      pz      :     0.855252  p :     2.578246
      px      :     0.918884
      py      :     0.804110
      dz2     :     0.054119  d :     0.195059
      dxz     :     0.057097
      dyz     :     0.037453
      dx2y2   :     0.026017
      dxy     :     0.020372
 13 N s       :     3.351001  s :     3.351001
      pz      :     1.066951  p :     3.718934
      px      :     1.036885
      py      :     1.615098
      dz2     :     0.008399  d :     0.034720
      dxz     :     0.013964
      dyz     :     0.003330
      dx2y2   :     0.005127
      dxy     :     0.003900
 14 H s       :     0.652725  s :     0.652725
      pz      :     0.018488  p :     0.057856
      px      :     0.018395
      py      :     0.020972
 15 H s       :     0.722969  s :     0.722969
      pz      :     0.013254  p :     0.040738
      px      :     0.012216
      py      :     0.015268
 16 O s       :     3.900733  s :     3.900733
      pz      :     1.309311  p :     4.403052
      px      :     1.670652
      py      :     1.423089
      dz2     :     0.005950  d :     0.018224
      dxz     :     0.005083
      dyz     :     0.004638
      dx2y2   :     0.001110
      dxy     :     0.001443
 17 C s       :     3.223105  s :     3.223105
      pz      :     1.130625  p :     3.268785
      px      :     0.984943
      py      :     1.153217
      dz2     :     0.015050  d :     0.060537
      dxz     :     0.008680
      dyz     :     0.011491
      dx2y2   :     0.015932
      dxy     :     0.009385
 18 H s       :     0.793744  s :     0.793744
      pz      :     0.006947  p :     0.019060
      px      :     0.005870
      py      :     0.006243
 19 H s       :     0.792870  s :     0.792870
      pz      :     0.004553  p :     0.018927
      px      :     0.005298
      py      :     0.009075
 20 H s       :     0.829779  s :     0.829779
      pz      :     0.008813  p :     0.019004
      px      :     0.005306
      py      :     0.004886
 21 C s       :     3.198867  s :     3.198867
      pz      :     0.905922  p :     3.149779
      px      :     1.080459
      py      :     1.163398
      dz2     :     0.020180  d :     0.087572
      dxz     :     0.015032
      dyz     :     0.024794
      dx2y2   :     0.020867
      dxy     :     0.006699
 22 H s       :     0.797038  s :     0.797038
      pz      :     0.005373  p :     0.017108
      px      :     0.005374
      py      :     0.006361
 23 H s       :     0.837270  s :     0.837270
      pz      :     0.003274  p :     0.017910
      px      :     0.009825
      py      :     0.004810
 24 H s       :     0.799645  s :     0.799645
      pz      :     0.003522  p :     0.017121
      px      :     0.004366
      py      :     0.009233
 25 H s       :     0.827957  s :     0.827957
      pz      :     0.004894  p :     0.020035
      px      :     0.010592
      py      :     0.004549
[...]

Forming final perturbed densities           ... done
Transforming perturbed density to AO basis  ... done

 Raw HFC matrix (all values in MHz): 
 -----------------------------------
                 1.2603              -0.3350              -0.3796
                -0.3365               7.2200               0.1603
                -0.3794               0.1607               2.0404

 A(FC)           3.5058               3.5058               3.5058
 A(SD)          -2.4105              -1.3268               3.7373
 A(ORB+DIA)      0.0005               0.0007               0.0021    A(PC) =   0.0011
 A(ORB)          0.0003               0.0005               0.0018    A(PC) =   0.0009
 A(DIA)          0.0003               0.0002               0.0003    A(PC) =   0.0003
             ----------           ----------           ----------
 A(Tot)          1.0958               2.1797               7.2452    A(iso)=    3.5069
 Orientation: 
  X          -0.9294832           -0.3642643           -0.0580732
  Y          -0.0412508           -0.0538005            0.9976993
  Z          -0.3665506            0.9297403            0.0349805

Notes:  (1) The A matrix conforms to the "SAI" spin Hamiltonian convention.
        (2) Tensor is right-handed.

 -----------------------------------------------------------
 Nucleus  14H : A:ISTP=    1 I=  0.5 P=533.5514 MHz/au**3
                Q:ISTP=    2 I=  1.0 Q=  0.0029 barn     
 -----------------------------------------------------------
 Solving for nuclear perturbation:
Forming RHS of the CP-SCF equations         ... 
Calc. nucleus orbit integrals (SHARK)       ... done

------------------------------------------------------------------------------
                           ORCA CP-SCF CALCULATION
------------------------------------------------------------------------------

Input orbitals are from        ... epr_info.gbw
Input Perturbation             ... epr_info.pin.tmp
Wavefunction output            ... epr_info.pout.tmp
Perturbation mode              ... Imaginary perturbation
Solver                         ... POPLE
Max. number of iterations      ... 64
Convergence tolerance          ... 1.000e-03
Integral handling              ... Direct
DFT GridXC                     ... 1
COSX GridX                     ... 1
COSX IntAccX                   ... 3.067
COSX Algorithm                 ... Auto
Number of perturbations        ... 3
Number of operators            ... 2
Orbital ranges used for CP-SCF:
 Operator 0:  Orbitals   0... 53  to  54...328
 Operator 1:  Orbitals   0... 52  to  53...328
Variables per perturbation     ... 29478
DFT calculation                         ... on
XC functional terms                     ... off
Hybrid DFT                              ... on
   Exchange mixing (SCF)                ...  0.200
   Exchange mixing (CP-SCF)             ...  0.200
   GGA exch. scaling(SCF)               ...  0.720
   GGA exch. scaling (CP-SCF)           ...  0.720
   GGA corr. scaling (SCF)              ...  0.810
   GGA corr. scaling (CP-SCF)           ...  0.810

CP-SCF GRID
-----------

General Integration Accuracy     IntAcc      ... 3.467
Radial Grid Type                 RadialGrid  ... OptM3 with GC (2021)
Angular Grid (max. ang.)         AngularGrid ... 1 (Lebedev-50)
Angular grid pruning method      GridPruning ... 4 (adaptive)
Weight generation scheme         WeightScheme... Becke
Basis function cutoff            BFCut       ... 1.0000e-10
Integration weight cutoff        WCut        ... 1.0000e-14
Angular grids for H and He will be reduced by one unit
Partially contracted basis set               ... off
Rotationally invariant grid construction     ... off

Total number of grid points                  ...    18193
Total number of batches                      ...      300
Average number of points per batch           ...       60
Average number of grid points per atom       ...      674

CP-SCF GRIDX
------------

General Integration Accuracy     IntAcc      ... 3.067
Radial Grid Type                 RadialGrid  ... OptM3 with GC (2021)
Angular Grid (max. ang.)         AngularGrid ... 1 (Lebedev-50)
Angular grid pruning method      GridPruning ... 4 (adaptive)
Weight generation scheme         WeightScheme... Becke
Basis function cutoff            BFCut       ... 1.0000e-10
Integration weight cutoff        WCut        ... 1.0000e-14
Angular grids for H and He will be reduced by one unit
Partially contracted basis set               ... on
Rotationally invariant grid construction     ... off

Total number of grid points                  ...     8449
Total number of batches                      ...      150
Average number of points per batch           ...       56
Average number of grid points per atom       ...      313

Memory available               ... 931.1 MB
Memory needed per perturbation ...   6.7 MB
Perturbations treated per batch... 3
Number of batches              ... 1
     CP-SCF ITERATION   0:   7.2861e-02 (   0.4 sec   0/  3 done)
     CP-SCF ITERATION   1:   8.0817e-03 (   0.4 sec   0/  3 done)
     CP-SCF ITERATION   2:   7.3738e-04 (   0.4 sec   3/  3 done)
                    *** THE CP-SCF HAS CONVERGED ***

Forming final perturbed densities           ... done
Transforming perturbed density to AO basis  ... done

 Raw HFC matrix (all values in MHz): 
 -----------------------------------
                -0.2972               2.3209              -1.1247
                 2.3111              -3.1553              -0.1965
                -1.1264              -0.1984              -5.0952

 A(FC)          -2.8659              -2.8659              -2.8659
 A(SD)           4.0269              -1.4713              -2.5556
 A(ORB+DIA)      0.0205               0.0299              -0.0003    A(PC) =   0.0167
 A(ORB)          0.0197               0.0296              -0.0002    A(PC) =   0.0164
 A(DIA)          0.0008               0.0003              -0.0001    A(PC) =   0.0003
             ----------           ----------           ----------
 A(Tot)          1.1815              -4.3073              -5.4219    A(iso)=   -2.8492
 Orientation: 
  X           0.8657893           -0.3937350            0.3088391
  Y           0.4707107            0.8502484           -0.2356039
  Z          -0.1698244            0.3493572            0.9214712

Notes:  (1) The A matrix conforms to the "SAI" spin Hamiltonian convention.
        (2) Tensor is right-handed.

 -----------------------------------------------------------
 Nucleus  25H : A:ISTP=    1 I=  0.5 P=533.5514 MHz/au**3
                Q:ISTP=    2 I=  1.0 Q=  0.0029 barn     
 -----------------------------------------------------------
 Solving for nuclear perturbation:
Forming RHS of the CP-SCF equations         ... 
Calc. nucleus orbit integrals (SHARK)       ... done

------------------------------------------------------------------------------
                           ORCA CP-SCF CALCULATION
------------------------------------------------------------------------------

Input orbitals are from        ... epr_info.gbw
Input Perturbation             ... epr_info.pin.tmp
Wavefunction output            ... epr_info.pout.tmp
Perturbation mode              ... Imaginary perturbation
Solver                         ... POPLE
Max. number of iterations      ... 64
Convergence tolerance          ... 1.000e-03
Integral handling              ... Direct
DFT GridXC                     ... 1
COSX GridX                     ... 1
COSX IntAccX                   ... 3.067
COSX Algorithm                 ... Auto
Number of perturbations        ... 3
Number of operators            ... 2
Orbital ranges used for CP-SCF:
 Operator 0:  Orbitals   0... 53  to  54...328
 Operator 1:  Orbitals   0... 52  to  53...328
Variables per perturbation     ... 29478
DFT calculation                         ... on
XC functional terms                     ... off
Hybrid DFT                              ... on
   Exchange mixing (SCF)                ...  0.200
   Exchange mixing (CP-SCF)             ...  0.200
   GGA exch. scaling(SCF)               ...  0.720
   GGA exch. scaling (CP-SCF)           ...  0.720
   GGA corr. scaling (SCF)              ...  0.810
   GGA corr. scaling (CP-SCF)           ...  0.810

CP-SCF GRID
-----------

General Integration Accuracy     IntAcc      ... 3.467
Radial Grid Type                 RadialGrid  ... OptM3 with GC (2021)
Angular Grid (max. ang.)         AngularGrid ... 1 (Lebedev-50)
Angular grid pruning method      GridPruning ... 4 (adaptive)
Weight generation scheme         WeightScheme... Becke
Basis function cutoff            BFCut       ... 1.0000e-10
Integration weight cutoff        WCut        ... 1.0000e-14
Angular grids for H and He will be reduced by one unit
Partially contracted basis set               ... off
Rotationally invariant grid construction     ... off

Total number of grid points                  ...    18193
Total number of batches                      ...      300
Average number of points per batch           ...       60
Average number of grid points per atom       ...      674

CP-SCF GRIDX
------------

General Integration Accuracy     IntAcc      ... 3.067
Radial Grid Type                 RadialGrid  ... OptM3 with GC (2021)
Angular Grid (max. ang.)         AngularGrid ... 1 (Lebedev-50)
Angular grid pruning method      GridPruning ... 4 (adaptive)
Weight generation scheme         WeightScheme... Becke
Basis function cutoff            BFCut       ... 1.0000e-10
Integration weight cutoff        WCut        ... 1.0000e-14
Angular grids for H and He will be reduced by one unit
Partially contracted basis set               ... on
Rotationally invariant grid construction     ... off

Total number of grid points                  ...     8449
Total number of batches                      ...      150
Average number of points per batch           ...       56
Average number of grid points per atom       ...      313

Memory available               ... 930.8 MB
Memory needed per perturbation ...   6.7 MB
Perturbations treated per batch... 3
Number of batches              ... 1
     CP-SCF ITERATION   0:   4.2352e-02 (   0.4 sec   0/  3 done)
     CP-SCF ITERATION   1:   3.0468e-03 (   0.4 sec   0/  3 done)
     CP-SCF ITERATION   2:   3.7445e-04 (   0.4 sec   3/  3 done)
                    *** THE CP-SCF HAS CONVERGED ***

Forming final perturbed densities           ... done
Transforming perturbed density to AO basis  ... done

 Raw HFC matrix (all values in MHz): 
 -----------------------------------
                12.4380              -5.1660              -2.2944
                -5.1557              14.2328               2.2046
                -2.2925               2.2051               9.2824

 A(FC)          11.9850              11.9850              11.9850
 A(SD)          -4.1246              -3.4464               7.5710
 A(ORB+DIA)      0.0037               0.0012              -0.0065    A(PC) =  -0.0006
 A(ORB)          0.0031               0.0005              -0.0074    A(PC) =  -0.0012
 A(DIA)          0.0006               0.0006               0.0008    A(PC) =   0.0007
             ----------           ----------           ----------
 A(Tot)          7.8640               8.5397              19.5494    A(iso)=   11.9844
 Orientation: 
  X          -0.7283640           -0.2878726           -0.6217839
  Y          -0.3975091           -0.5616094            0.7256593
  Z          -0.5580971            0.7757089            0.2946241

Notes:  (1) The A matrix conforms to the "SAI" spin Hamiltonian convention.
        (2) Tensor is right-handed.

 -----------------------------------------------------------
 Nucleus  26H : A:ISTP=    1 I=  0.5 P=533.5514 MHz/au**3
                Q:ISTP=    2 I=  1.0 Q=  0.0029 barn     
 -----------------------------------------------------------
 Solving for nuclear perturbation:
Forming RHS of the CP-SCF equations         ... 
Calc. nucleus orbit integrals (SHARK)       ... done

------------------------------------------------------------------------------
                           ORCA CP-SCF CALCULATION
------------------------------------------------------------------------------

Input orbitals are from        ... epr_info.gbw
Input Perturbation             ... epr_info.pin.tmp
Wavefunction output            ... epr_info.pout.tmp
Perturbation mode              ... Imaginary perturbation
Solver                         ... POPLE
Max. number of iterations      ... 64
Convergence tolerance          ... 1.000e-03
Integral handling              ... Direct
DFT GridXC                     ... 1
COSX GridX                     ... 1
COSX IntAccX                   ... 3.067
COSX Algorithm                 ... Auto
Number of perturbations        ... 3
Number of operators            ... 2
Orbital ranges used for CP-SCF:
 Operator 0:  Orbitals   0... 53  to  54...328
 Operator 1:  Orbitals   0... 52  to  53...328
Variables per perturbation     ... 29478
DFT calculation                         ... on
XC functional terms                     ... off
Hybrid DFT                              ... on
   Exchange mixing (SCF)                ...  0.200
   Exchange mixing (CP-SCF)             ...  0.200
   GGA exch. scaling(SCF)               ...  0.720
   GGA exch. scaling (CP-SCF)           ...  0.720
   GGA corr. scaling (SCF)              ...  0.810
   GGA corr. scaling (CP-SCF)           ...  0.810

CP-SCF GRID
-----------

General Integration Accuracy     IntAcc      ... 3.467
Radial Grid Type                 RadialGrid  ... OptM3 with GC (2021)
Angular Grid (max. ang.)         AngularGrid ... 1 (Lebedev-50)
Angular grid pruning method      GridPruning ... 4 (adaptive)
Weight generation scheme         WeightScheme... Becke
Basis function cutoff            BFCut       ... 1.0000e-10
Integration weight cutoff        WCut        ... 1.0000e-14
Angular grids for H and He will be reduced by one unit
Partially contracted basis set               ... off
Rotationally invariant grid construction     ... off

Total number of grid points                  ...    18193
Total number of batches                      ...      300
Average number of points per batch           ...       60
Average number of grid points per atom       ...      674

CP-SCF GRIDX
------------

General Integration Accuracy     IntAcc      ... 3.067
Radial Grid Type                 RadialGrid  ... OptM3 with GC (2021)
Angular Grid (max. ang.)         AngularGrid ... 1 (Lebedev-50)
Angular grid pruning method      GridPruning ... 4 (adaptive)
Weight generation scheme         WeightScheme... Becke
Basis function cutoff            BFCut       ... 1.0000e-10
Integration weight cutoff        WCut        ... 1.0000e-14
Angular grids for H and He will be reduced by one unit
Partially contracted basis set               ... on
Rotationally invariant grid construction     ... off

Total number of grid points                  ...     8449
Total number of batches                      ...      150
Average number of points per batch           ...       56
Average number of grid points per atom       ...      313

Memory available               ... 930.5 MB
Memory needed per perturbation ...   6.7 MB
Perturbations treated per batch... 3
Number of batches              ... 1
     CP-SCF ITERATION   0:   4.1286e-02 (   0.4 sec   0/  3 done)
     CP-SCF ITERATION   1:   1.2915e-03 (   0.4 sec   0/  3 done)
     CP-SCF ITERATION   2:   1.1245e-04 (   0.4 sec   3/  3 done)
                    *** THE CP-SCF HAS CONVERGED ***

Forming final perturbed densities           ... done
Transforming perturbed density to AO basis  ... done

 Raw HFC matrix (all values in MHz): 
 -----------------------------------
               122.3686               0.0467               1.8328
                 0.0450             129.7257               5.4462
                 1.8310               5.4439             128.1040

 A(FC)         126.7325             126.7325             126.7325
 A(SD)          -5.3757              -2.4355               7.8111
 A(ORB+DIA)     -0.0013              -0.0003               0.0024    A(PC) =   0.0003
 A(ORB)         -0.0014              -0.0003               0.0017    A(PC) =   0.0000
 A(DIA)          0.0000              -0.0000               0.0007    A(PC) =   0.0002
             ----------           ----------           ----------
 A(Tot)        121.3555             124.2967             134.5460    A(iso)=  126.7328
 Orientation: 
  X          -0.8316272            0.5458823            0.1020228
  Y          -0.2995842           -0.5956877            0.7452553
  Z           0.4675954            0.5892102            0.6589278

Notes:  (1) The A matrix conforms to the "SAI" spin Hamiltonian convention.
        (2) Tensor is right-handed.


--------------------------------------------------------------------------------
----------------------------------------------------------------------------
                           ORCA EULER ANGLE PROGRAM
----------------------------------------------------------------------------

Only g-tensor available        -->  using g-tensor as reference tensor

Reference tensor               ...  g

g-tensor ordering              ...  |g_min> --> |gx>
                                    |g_mid> --> |gy>
                                    |g_max> --> |gz>

A- and EFG-tensor ordering     ...  the axes |Ax>, |Qx>, |Ay>, etc. are assigned
                                    such that the Euler rotation is minimal. You
                                    can find the respective eigenvalues as Ax,
                                    EFGx, Ay, etc. in the tables below.
                                    The relation of |Ax>, |Ay>,  etc. to Amin, Amid, etc.
                                    (as printed in the ORCA EPR/NMR CALCULATION Output)
                                    is obtained in the detailed printout.

Euler rotation around          ...  z - y - z
   First rotation              -->  by alpha around z
   Second rotation             -->  by beta around y'
   Third rotation              -->  by gamma around z''
   Positive / Negative angle   -->  clockwise / counterclockwise rotation

Plot EFG-tensors                    (-)
Plot HFC-tensors                    (-)
Detailed Printout                   (-)

-------------------------------------------------------------------------
          Euler rotation of hyperfine tensor to g-tensor
-------------------------------------------------------------------------

-------------------------------------------------------------------
 Atom  |   Alpha    Beta    Gamma   |   Ax       Ay       Az 
       |          [degrees]         |           [MHz]         
-------------------------------------------------------------------
  0N     -126.9     31.1    171.6      -6.62    -8.50     0.67
  6H      -87.2      2.0     88.8     -58.29   -21.50   -86.60
  8O       94.8     36.1    -97.3       6.14   -38.76   -49.65
  9O      101.2     11.7   -100.9     520.97  -123.23  -117.49
 10H       85.0     43.9    -56.2      -1.65     2.73    -1.28
 11H       91.8     17.9   -130.5       2.18     1.10     7.25
 14H       88.7     38.5    -87.0      -5.42     1.18    -4.31
 25H      -51.2     50.7     34.3       8.54    19.55     7.86
 26H       48.4     32.7    -26.3     124.30   121.36   134.55
-------------------------------------------------------------------


Maximum memory used throughout the entire EPRNMR-calculation: 122.2 MB

Timings for individual modules:

Sum of individual times         ...      239.799 sec (=   3.997 min)
GTO integral calculation        ...        3.487 sec (=   0.058 min)   1.5 %
Spin-Orbit-Coupling Matrices    ...        4.450 sec (=   0.074 min)   1.9 %
SCF iterations                  ...       21.898 sec (=   0.365 min)   9.1 %
EPR/NMR calculation             ...      209.964 sec (=   3.499 min)  87.6 %
                             ****ORCA TERMINATED NORMALLY****
TOTAL RUN TIME: 0 days 0 hours 4 minutes 2 seconds 452 msec
