
                                 *****************
                                 * O   R   C   A *
                                 *****************

                                            #,                                       
                                            ###                                      
                                            ####                                     
                                            #####                                    
                                            ######                                   
                                           ########,                                 
                                     ,,################,,,,,                         
                               ,,#################################,,                 
                          ,,##########################################,,             
                       ,#########################################, ''#####,          
                    ,#############################################,,   '####,        
                  ,##################################################,,,,####,       
                ,###########''''           ''''###############################       
              ,#####''   ,,,,##########,,,,          '''####'''          '####       
            ,##' ,,,,###########################,,,                        '##       
           ' ,,###''''                  '''############,,,                           
         ,,##''                                '''############,,,,        ,,,,,,###''
      ,#''                                            '''#######################'''  
     '                                                          ''''####''''         
             ,#######,   #######,   ,#######,      ##                                
            ,#'     '#,  ##    ##  ,#'     '#,    #''#        ######   ,####,        
            ##       ##  ##   ,#'  ##            #'  '#       #        #'  '#        
            ##       ##  #######   ##           ,######,      #####,   #    #        
            '#,     ,#'  ##    ##  '#,     ,#' ,#      #,         ##   #,  ,#        
             '#######'   ##     ##  '#######'  #'      '#     #####' # '####'        



                  #######################################################
                  #                        -***-                        #
                  #          Department of theory and spectroscopy      #
                  #    Directorship and core code : Frank Neese         #
                  #        Max Planck Institute fuer Kohlenforschung    #
                  #                Kaiser Wilhelm Platz 1               #
                  #                 D-45470 Muelheim/Ruhr               #
                  #                      Germany                        #
                  #                                                     #
                  #                  All rights reserved                #
                  #                        -***-                        #
                  #######################################################


                         Program Version 5.0.4 -  RELEASE  -


 With contributions from (in alphabetic order):
   Daniel Aravena         : Magnetic Suceptibility
   Michael Atanasov       : Ab Initio Ligand Field Theory (pilot matlab implementation)
   Alexander A. Auer      : GIAO ZORA, VPT2 properties, NMR spectrum
   Ute Becker             : Parallelization
   Giovanni Bistoni       : ED, misc. LED, open-shell LED, HFLD
   Martin Brehm           : Molecular dynamics
   Dmytro Bykov           : SCF Hessian
   Vijay G. Chilkuri      : MRCI spin determinant printing, contributions to CSF-ICE
   Dipayan Datta          : RHF DLPNO-CCSD density
   Achintya Kumar Dutta   : EOM-CC, STEOM-CC
   Dmitry Ganyushin       : Spin-Orbit,Spin-Spin,Magnetic field MRCI
   Miquel Garcia          : C-PCM and meta-GGA Hessian, CC/C-PCM, Gaussian charge scheme
   Yang Guo               : DLPNO-NEVPT2, F12-NEVPT2, CIM, IAO-localization
   Andreas Hansen         : Spin unrestricted coupled pair/coupled cluster methods
   Benjamin Helmich-Paris : MC-RPA, TRAH-SCF, COSX integrals
   Lee Huntington         : MR-EOM, pCC
   Robert Izsak           : Overlap fitted RIJCOSX, COSX-SCS-MP3, EOM
   Marcus Kettner         : VPT2
   Christian Kollmar      : KDIIS, OOCD, Brueckner-CCSD(T), CCSD density, CASPT2, CASPT2-K
   Simone Kossmann        : Meta GGA functionals, TD-DFT gradient, OOMP2, MP2 Hessian
   Martin Krupicka        : Initial AUTO-CI
   Lucas Lang             : DCDCAS
   Marvin Lechner         : AUTO-CI (C++ implementation), FIC-MRCC
   Dagmar Lenk            : GEPOL surface, SMD
   Dimitrios Liakos       : Extrapolation schemes; Compound Job, initial MDCI parallelization
   Dimitrios Manganas     : Further ROCIS development; embedding schemes
   Dimitrios Pantazis     : SARC Basis sets
   Anastasios Papadopoulos: AUTO-CI, single reference methods and gradients
   Taras Petrenko         : DFT Hessian,TD-DFT gradient, ASA, ECA, R-Raman, ABS, FL, XAS/XES, NRVS
   Peter Pinski           : DLPNO-MP2, DLPNO-MP2 Gradient
   Christoph Reimann      : Effective Core Potentials
   Marius Retegan         : Local ZFS, SOC
   Christoph Riplinger    : Optimizer, TS searches, QM/MM, DLPNO-CCSD(T), (RO)-DLPNO pert. Triples
   Tobias Risthaus        : Range-separated hybrids, TD-DFT gradient, RPA, STAB
   Michael Roemelt        : Original ROCIS implementation
   Masaaki Saitow         : Open-shell DLPNO-CCSD energy and density
   Barbara Sandhoefer     : DKH picture change effects
   Avijit Sen             : IP-ROCIS
   Kantharuban Sivalingam : CASSCF convergence, NEVPT2, FIC-MRCI
   Bernardo de Souza      : ESD, SOC TD-DFT
   Georgi Stoychev        : AutoAux, RI-MP2 NMR, DLPNO-MP2 response
   Willem Van den Heuvel  : Paramagnetic NMR
   Boris Wezisla          : Elementary symmetry handling
   Frank Wennmohs         : Technical directorship


 We gratefully acknowledge several colleagues who have allowed us to
 interface, adapt or use parts of their codes:
   Stefan Grimme, W. Hujo, H. Kruse, P. Pracht,  : VdW corrections, initial TS optimization,
                  C. Bannwarth, S. Ehlert          DFT functionals, gCP, sTDA/sTD-DF
   Ed Valeev, F. Pavosevic, A. Kumar             : LibInt (2-el integral package), F12 methods
   Garnet Chan, S. Sharma, J. Yang, R. Olivares  : DMRG
   Ulf Ekstrom                                   : XCFun DFT Library
   Mihaly Kallay                                 : mrcc  (arbitrary order and MRCC methods)
   Jiri Pittner, Ondrej Demel                    : Mk-CCSD
   Frank Weinhold                                : gennbo (NPA and NBO analysis)
   Christopher J. Cramer and Donald G. Truhlar   : smd solvation model
   Lars Goerigk                                  : TD-DFT with DH, B97 family of functionals
   V. Asgeirsson, H. Jonsson                     : NEB implementation
   FAccTs GmbH                                   : IRC, NEB, NEB-TS, DLPNO-Multilevel, CI-OPT
                                                   MM, QMMM, 2- and 3-layer-ONIOM, Crystal-QMMM,
                                                   LR-CPCM, SF, NACMEs, symmetry and pop. for TD-DFT,
                                                   nearIR, NL-DFT gradient (VV10), updates on ESD,
                                                   ML-optimized integration grids
   S Lehtola, MJT Oliveira, MAL Marques          : LibXC Library
   Liviu Ungur et al                             : ANISO software


 Your calculation uses the libint2 library for the computation of 2-el integrals
 For citations please refer to: http://libint.valeyev.net

 Your ORCA version has been built with support for libXC version: 5.1.0
 For citations please refer to: https://tddft.org/programs/libxc/

 This ORCA versions uses:
   CBLAS   interface :  Fast vector & matrix operations
   LAPACKE interface :  Fast linear algebra routines
   SCALAPACK package :  Parallel linear algebra routines
   Shared memory     :  Shared parallel matrices
   BLAS/LAPACK       :  OpenBLAS 0.3.15  USE64BITINT DYNAMIC_ARCH NO_AFFINITY Zen SINGLE_THREADED
        Core in use  :  Zen
   Copyright (c) 2011-2014, The OpenBLAS Project




***************************************
The coordinates will be read from file: opt.xyz
***************************************


XCFun DFT library Copyright 2009-2010 Ulf Ekstrom and contributors.
See http://admol.org/xcfun for more information.
This is free software; see the source code for copying conditions.
There is ABSOLUTELY NO WARRANTY; not even for MERCHANTABILITY or FITNESS FOR A PARTICULAR PURPOSE.
For details see the documentation.
Scientific users of this library should cite U. Ekstrom, L. Visscher, R. Bast, A. J. Thorvaldsen and K. Ruud;
J.Chem.Theor.Comp. 2010, DOI: 10.1021/ct100117s
XCFun Version 0.99 

================================================================================

----- Orbital basis set information -----
Your calculation utilizes the basis: def2-TZVP
   F. Weigend and R. Ahlrichs, Phys. Chem. Chem. Phys. 7, 3297 (2005).

----- AuxJ basis set information -----
Your calculation utilizes the auxiliary basis: def2/J
   F. Weigend, Phys. Chem. Chem. Phys. 8, 1057 (2006).

================================================================================
                                        WARNINGS
                       Please study these warnings very carefully!
================================================================================


WARNING: your system is open-shell and RHF/RKS was chosen
  ===> : WILL SWITCH to UHF/UKS


WARNING: Geometry Optimization
  ===> : Switching off AutoStart
         For restart on a previous wavefunction, please use MOREAD

WARNING: Minnesota functionals are quite sensitive to the integration grid.
         see SE Wheeler, KN Houk, JCTC 2010, 6, 395,
             N Mardirossian, M Head-Gordon, JCTC 2016, 12, 4303.
         DEFGRID3 seems to be a minimum grid for reliable results with these functionals!
  ===> : Please increase the integration grid!


INFO   : the flag for use of the SHARK integral package has been found!

================================================================================
                                       INPUT FILE
================================================================================
NAME = freq.inp
|  1> ! M062X def2-TZVP OPT FREQ
|  2> %pal nprocs 16 end
|  3> *XYZFile 0 2 opt.xyz
|  4> 
|  5>                          ****END OF INPUT****
================================================================================

                       *****************************
                       * Geometry Optimization Run *
                       *****************************

Geometry optimization settings:
Update method            Update   .... BFGS
Choice of coordinates    CoordSys .... Z-matrix Internals
Initial Hessian          InHess   .... Almoef's Model

Convergence Tolerances:
Energy Change            TolE     ....  5.0000e-06 Eh
Max. Gradient            TolMAXG  ....  3.0000e-04 Eh/bohr
RMS Gradient             TolRMSG  ....  1.0000e-04 Eh/bohr
Max. Displacement        TolMAXD  ....  4.0000e-03 bohr
RMS Displacement         TolRMSD  ....  2.0000e-03 bohr
Strict Convergence                ....  False
------------------------------------------------------------------------------
                        ORCA OPTIMIZATION COORDINATE SETUP
------------------------------------------------------------------------------

The optimization will be done in new redundant internal coordinates
Making redundant internal coordinates   ...  (new redundants) done
Evaluating the initial hessian          ...  (Almloef) done
Evaluating the coordinates              ...  done
Calculating the B-matrix                .... done
Calculating the G-matrix                .... done
Diagonalizing the G-matrix              .... done
Small eigenvalue found = 8.635e-03
Small eigenvalue found = 1.111e-02
Small eigenvalue found = 1.305e-02
Small eigenvalue found = 2.931e-02
The first mode is                       ....   47
The number of degrees of freedom        ....   75

    -----------------------------------------------------------------
                    Redundant Internal Coordinates


    -----------------------------------------------------------------
         Definition                    Initial Value    Approx d2E/dq
    -----------------------------------------------------------------
      1. B(C   1,N   0)                  1.4497         0.449375   
      2. B(C   2,C   1)                  1.5462         0.351989   
      3. B(O   3,C   2)                  1.2323         0.998808   
      4. B(C   4,C   1)                  1.5605         0.334020   
      5. B(C   5,C   4)                  1.4923         0.429012   
      6. B(H   6,C   5)                  1.0854         0.366253   
      7. B(C   7,C   5)                  1.4532         0.495315   
      8. B(O   8,C   7)                  1.3731         0.595435   
      9. B(O   9,C   7)                  1.2271         1.017985   
     10. B(H  10,N   0)                  1.0132         0.427589   
     11. B(H  11,C   1)                  1.0976         0.350202   
     12. B(C  12,N   0)                  1.3688         0.605025   
     13. B(N  13,C   2)                  1.3595         0.625931   
     14. B(H  14,O   8)                  0.9697         0.501731   
     15. B(H  15,N  13)                  1.0077         0.436438   
     16. B(O  16,C  12)                  1.2320         0.999932   
     17. B(C  17,C  12)                  1.5242         0.381606   
     18. B(H  18,C  17)                  1.0937         0.355300   
     19. B(H  19,C  17)                  1.0931         0.356024   
     20. B(H  20,C  17)                  1.0930         0.356104   
     21. B(C  21,N  13)                  1.4619         0.429694   
     22. B(H  22,C  21)                  1.0928         0.356382   
     23. B(H  23,C  21)                  1.0913         0.358351   
     24. B(H  24,C  21)                  1.0943         0.354508   
     25. B(H  25,C   4)                  1.0934         0.355679   
     26. B(H  26,C   4)                  1.1006         0.346308   
     27. A(C   1,N   0,C  12)          121.9417         0.402822   
     28. A(H  10,N   0,C  12)          121.8297         0.356459   
     29. A(C   1,N   0,H  10)          114.9586         0.339048   
     30. A(C   2,C   1,C   4)          112.2588         0.352910   
     31. A(N   0,C   1,C   4)          112.4812         0.365616   
     32. A(N   0,C   1,H  11)          109.0106         0.330818   
     33. A(N   0,C   1,C   2)          106.8640         0.368916   
     34. A(C   4,C   1,H  11)          106.7423         0.316990   
     35. A(C   2,C   1,H  11)          109.4430         0.319710   
     36. A(C   1,C   2,N  13)          115.7418         0.390718   
     37. A(O   3,C   2,N  13)          122.7354         0.467908   
     38. A(C   1,C   2,O   3)          121.5223         0.424381   
     39. A(H  25,C   4,H  26)          106.3692         0.288505   
     40. A(C   1,C   4,C   5)          113.8962         0.364999   
     41. A(C   1,C   4,H  26)          105.3539         0.316414   
     42. A(C   1,C   4,H  25)          110.5447         0.317792   
     43. A(C   5,C   4,H  25)          110.4176         0.331127   
     44. A(C   5,C   4,H  26)          109.8762         0.329668   
     45. A(C   4,C   5,C   7)          124.8928         0.390742   
     46. A(C   4,C   5,H   6)          120.1378         0.332738   
     47. A(H   6,C   5,C   7)          114.9310         0.340796   
     48. A(O   8,C   7,O   9)          121.4191         0.465265   
     49. A(C   5,C   7,O   9)          124.4444         0.452903   
     50. A(C   5,C   7,O   8)          114.1364         0.411307   
     51. A(C   7,O   8,H  14)          105.4327         0.365315   
     52. A(O  16,C  12,C  17)          122.0597         0.430657   
     53. A(N   0,C  12,C  17)          115.9094         0.393933   
     54. A(N   0,C  12,O  16)          122.0250         0.465101   
     55. A(C   2,N  13,C  21)          121.7383         0.402055   
     56. A(C   2,N  13,H  15)          119.0598         0.359776   
     57. A(H  15,N  13,C  21)          118.9569         0.337676   
     58. A(H  19,C  17,H  20)          109.4574         0.289812   
     59. A(H  18,C  17,H  20)          109.2063         0.289720   
     60. A(C  12,C  17,H  20)          113.4706         0.324858   
     61. A(H  18,C  17,H  19)          107.5747         0.289709   
     62. A(C  12,C  17,H  19)          108.4285         0.324846   
     63. A(C  12,C  17,H  18)          108.5341         0.324737   
     64. A(H  23,C  21,H  24)          109.2872         0.289904   
     65. A(H  22,C  21,H  24)          108.2790         0.289654   
     66. A(N  13,C  21,H  24)          110.9924         0.329042   
     67. A(H  22,C  21,H  23)          109.2568         0.290144   
     68. A(N  13,C  21,H  23)          108.6480         0.329628   
     69. A(N  13,C  21,H  22)          110.3538         0.329329   
     70. D(C   4,C   1,N   0,C  12)     74.8335         0.017226   
     71. D(C   2,C   1,N   0,C  12)   -161.5375         0.017226   
     72. D(C   2,C   1,N   0,H  10)      5.8033         0.017226   
     73. D(H  11,C   1,N   0,C  12)    -43.3517         0.017226   
     74. D(C   4,C   1,N   0,H  10)   -117.8257         0.017226   
     75. D(H  11,C   1,N   0,H  10)    123.9891         0.017226   
     76. D(N  13,C   2,C   1,H  11)     55.9027         0.009352   
     77. D(O   3,C   2,C   1,N   0)     -6.4371         0.009352   
     78. D(O   3,C   2,C   1,H  11)   -124.3398         0.009352   
     79. D(N  13,C   2,C   1,C   4)    -62.4283         0.009352   
     80. D(N  13,C   2,C   1,N   0)    173.8054         0.009352   
     81. D(O   3,C   2,C   1,C   4)    117.3292         0.009352   
     82. D(C   5,C   4,C   1,H  11)   -176.1699         0.009064   
     83. D(C   5,C   4,C   1,C   2)    -56.2549         0.009064   
     84. D(C   5,C   4,C   1,N   0)     64.3168         0.009064   
     85. D(H  26,C   4,C   1,H  11)     63.3471         0.009064   
     86. D(H  26,C   4,C   1,C   2)   -176.7379         0.009064   
     87. D(H  26,C   4,C   1,N   0)    -56.1663         0.009064   
     88. D(H  25,C   4,C   1,H  11)    -51.1730         0.009064   
     89. D(H  25,C   4,C   1,C   2)     68.7420         0.009064   
     90. D(H  25,C   4,C   1,N   0)   -170.6864         0.009064   
     91. D(C   7,C   5,C   4,H  25)     14.7645         0.013594   
     92. D(C   7,C   5,C   4,C   1)    139.8291         0.013594   
     93. D(H   6,C   5,C   4,H  26)     75.3701         0.013594   
     94. D(H   6,C   5,C   4,H  25)   -167.6072         0.013594   
     95. D(C   7,C   5,C   4,H  26)   -102.2582         0.013594   
     96. D(H   6,C   5,C   4,C   1)    -42.5426         0.013594   
     97. D(O   9,C   7,C   5,H   6)     -0.9296         0.016708   
     98. D(O   9,C   7,C   5,C   4)    176.8086         0.016708   
     99. D(O   8,C   7,C   5,H   6)    178.9477         0.016708   
    100. D(O   8,C   7,C   5,C   4)     -3.3141         0.016708   
    101. D(H  14,O   8,C   7,O   9)     -0.8114         0.025869   
    102. D(H  14,O   8,C   7,C   5)    179.3072         0.025869   
    103. D(C  17,C  12,N   0,H  10)      9.0181         0.029532   
    104. D(C  17,C  12,N   0,C   1)    175.4942         0.029532   
    105. D(O  16,C  12,N   0,H  10)   -171.8500         0.029532   
    106. D(O  16,C  12,N   0,C   1)     -5.3740         0.029532   
    107. D(C  21,N  13,C   2,O   3)     -2.9186         0.031773   
    108. D(C  21,N  13,C   2,C   1)    176.8357         0.031773   
    109. D(H  15,N  13,C   2,O   3)   -177.1720         0.031773   
    110. D(H  15,N  13,C   2,C   1)      2.5823         0.031773   
    111. D(H  20,C  17,C  12,N   0)     -3.6929         0.010861   
    112. D(H  19,C  17,C  12,O  16)     55.3415         0.010861   
    113. D(H  19,C  17,C  12,N   0)   -125.5270         0.010861   
    114. D(H  18,C  17,C  12,O  16)    -61.2349         0.010861   
    115. D(H  20,C  17,C  12,O  16)    177.1755         0.010861   
    116. D(H  18,C  17,C  12,N   0)    117.8967         0.010861   
    117. D(H  24,C  21,N  13,H  15)    111.4721         0.015742   
    118. D(H  24,C  21,N  13,C   2)    -62.7870         0.015742   
    119. D(H  23,C  21,N  13,H  15)     -8.7185         0.015742   
    120. D(H  23,C  21,N  13,C   2)    177.0223         0.015742   
    121. D(H  22,C  21,N  13,H  15)   -128.4840         0.015742   
    122. D(H  22,C  21,N  13,C   2)     57.2568         0.015742   
    -----------------------------------------------------------------

Number of atoms                         .... 27
Number of degrees of freedom            .... 122

         *************************************************************
         *                GEOMETRY OPTIMIZATION CYCLE   1            *
         *************************************************************
---------------------------------
CARTESIAN COORDINATES (ANGSTROEM)
---------------------------------
  N     -4.534350   -4.734546   -0.781879
  C     -3.084771   -4.743080   -0.799580
  C     -2.617344   -4.583067    0.665565
  O     -3.417022   -4.360173    1.576271
  C     -2.492930   -3.641098   -1.732537
  C     -2.794590   -2.248238   -1.289811
  H     -3.786369   -1.993587   -0.929816
  C     -1.857750   -1.138476   -1.340756
  O     -0.602155   -1.483196   -1.776714
  O     -2.131410    0.015821   -1.026861
  H     -4.949759   -4.539250    0.121419
  H     -2.737663   -5.708174   -1.190482
  C     -5.274172   -5.216982   -1.827540
  N     -1.278978   -4.698979    0.874364
  H     -0.091994   -0.658540   -1.772230
  H     -0.670527   -4.838923    0.083422
  O     -4.752352   -5.594160   -2.877892
  C     -6.784092   -5.239695   -1.620554
  H     -7.246900   -4.585643   -2.364934
  H     -7.142934   -6.255582   -1.805132
  H     -7.091341   -4.920971   -0.621182
  C     -0.687172   -4.503354    2.196732
  H     -1.134998   -5.190411    2.919000
  H      0.384684   -4.697969    2.131605
  H     -0.847947   -3.480499    2.550745
  H     -1.414833   -3.778198   -1.852345
  H     -2.940720   -3.824808   -2.721032

----------------------------
CARTESIAN COORDINATES (A.U.)
----------------------------
  NO LB      ZA    FRAG     MASS         X           Y           Z
   0 N     7.0000    0    14.007   -8.568680   -8.946996   -1.477538
   1 C     6.0000    0    12.011   -5.829373   -8.963122   -1.510986
   2 C     6.0000    0    12.011   -4.946064   -8.660742    1.257735
   3 O     8.0000    0    15.999   -6.457237   -8.239532    2.978721
   4 C     6.0000    0    12.011   -4.710954   -6.880678   -3.274021
   5 C     6.0000    0    12.011   -5.281010   -4.248554   -2.437390
   6 H     1.0000    0     1.008   -7.155200   -3.767333   -1.757098
   7 C     6.0000    0    12.011   -3.510639   -2.151408   -2.533663
   8 O     8.0000    0    15.999   -1.137908   -2.802835   -3.357503
   9 O     8.0000    0    15.999   -4.027782    0.029897   -1.940486
  10 H     1.0000    0     1.008   -9.353689   -8.577940    0.229450
  11 H     1.0000    0     1.008   -5.173433  -10.786886   -2.249686
  12 C     6.0000    0    12.011   -9.966741   -9.858667   -3.453549
  13 N     7.0000    0    14.007   -2.416918   -8.879783    1.652309
  14 H     1.0000    0     1.008   -0.173844   -1.244460   -3.349029
  15 H     1.0000    0     1.008   -1.267113   -9.144240    0.157645
  16 O     8.0000    0    15.999   -8.980643  -10.571430   -5.438427
  17 C     6.0000    0    12.011  -12.820075   -9.901588   -3.062403
  18 H     1.0000    0     1.008  -13.694657   -8.665610   -4.469078
  19 H     1.0000    0     1.008  -13.498189  -11.821338   -3.411205
  20 H     1.0000    0     1.008  -13.400692   -9.299288   -1.173863
  21 C     6.0000    0    12.011   -1.298566   -8.510106    4.151221
  22 H     1.0000    0     1.008   -2.144835   -9.808455    5.516111
  23 H     1.0000    0     1.008    0.726947   -8.877875    4.028149
  24 H     1.0000    0     1.008   -1.602388   -6.577190    4.820210
  25 H     1.0000    0     1.008   -2.673648   -7.139760   -3.500424
  26 H     1.0000    0     1.008   -5.557155   -7.227840   -5.142006

--------------------------------
INTERNAL COORDINATES (ANGSTROEM)
--------------------------------
 N      0   0   0     0.000000000000     0.00000000     0.00000000
 C      1   0   0     1.449712026734     0.00000000     0.00000000
 C      2   1   0     1.546201828225   106.86396363     0.00000000
 O      3   2   1     1.232295943658   121.52234390   353.56293349
 C      2   1   3     1.560465201217   112.48120824   236.37105064
 C      5   2   1     1.492335023689   113.89618713    64.31675624
 H      6   5   2     1.085388393204   120.13779756   317.45741000
 C      6   5   2     1.453215841187   124.89277499   139.82909345
 O      8   6   5     1.373102410798   114.13637923   356.68589423
 O      8   6   5     1.227119246467   124.44437036   176.80864864
 H      1   2   3     1.013239343346   114.95856817     5.80329651
 H      2   1   3     1.097586834219   109.01055759   118.18583389
 C      1   2   3     1.368753348248   121.94168938   198.46245560
 N      3   2   1     1.359506117821   115.74177661   173.80544441
 H      9   8   6     0.969712565854   105.43270848   179.30717728
 H     14   3   2     1.007663572635   119.05977391     2.58227910
 O     13   1   2     1.231989867416   122.02499506   354.62603724
 C     13   1   2     1.524210051008   115.90937538   175.49416603
 H     18  13   1     1.093653240307   108.53405376   117.89665883
 H     18  13   1     1.093098487893   108.42846726   234.47303421
 H     18  13   1     1.093037912573   113.47055032   356.30707694
 C     14   3   2     1.461902555910   121.73834745   176.83567707
 H     22  14   3     1.092825224513   110.35379214    57.25684107
 H     22  14   3     1.091325340696   108.64799893   177.02234460
 H     22  14   3     1.094260516769   110.99240008   297.21299312
 H      5   2   1     1.093362693128   110.54472432   189.31364249
 H      5   2   1     1.100630572334   105.35385551   303.83372647

---------------------------
INTERNAL COORDINATES (A.U.)
---------------------------
 N      0   0   0     0.000000000000     0.00000000     0.00000000
 C      1   0   0     2.739558703579     0.00000000     0.00000000
 C      2   1   0     2.921898003113   106.86396363     0.00000000
 O      3   2   1     2.328701849456   121.52234390   353.56293349
 C      2   1   3     2.948851871815   112.48120824   236.37105064
 C      5   2   1     2.820104494830   113.89618713    64.31675624
 H      6   5   2     2.051086812092   120.13779756   317.45741000
 C      6   5   2     2.746179953319   124.89277499   139.82909345
 O      8   6   5     2.594787510235   114.13637923   356.68589423
 O      8   6   5     2.318919309487   124.44437036   176.80864864
 H      1   2   3     1.914744867038   114.95856817     5.80329651
 H      2   1   3     2.074138524872   109.01055759   118.18583389
 C      1   2   3     2.586568973077   121.94168938   198.46245560
 N      3   2   1     2.569094240072   115.74177661   173.80544441
 H      9   8   6     1.832491178087   105.43270848   179.30717728
 H     14   3   2     1.904208187409   119.05977391     2.58227910
 O     13   1   2     2.328123449182   122.02499506   354.62603724
 C     13   1   2     2.880339566975   115.90937538   175.49416603
 H     18  13   1     2.066705109655   108.53405376   117.89665883
 H     18  13   1     2.065656779522   108.42846726   234.47303421
 H     18  13   1     2.065542308756   113.47055032   356.30707694
 C     14   3   2     2.762595465148   121.73834745   176.83567707
 H     22  14   3     2.065140386570   110.35379214    57.25684107
 H     22  14   3     2.062306016924   108.64799893   177.02234460
 H     22  14   3     2.067852695857   110.99240008   297.21299312
 H      5   2   1     2.066156055059   110.54472432   189.31364249
 H      5   2   1     2.079890356333   105.35385551   303.83372647

---------------------
BASIS SET INFORMATION
---------------------
There are 4 groups of distinct atoms

 Group   1 Type N   : 11s6p2d1f contracted to 5s3p2d1f pattern {62111/411/11/1}
 Group   2 Type C   : 11s6p2d1f contracted to 5s3p2d1f pattern {62111/411/11/1}
 Group   3 Type O   : 11s6p2d1f contracted to 5s3p2d1f pattern {62111/411/11/1}
 Group   4 Type H   : 5s1p contracted to 3s1p pattern {311/1}

Atom   0N    basis set group =>   1
Atom   1C    basis set group =>   2
Atom   2C    basis set group =>   2
Atom   3O    basis set group =>   3
Atom   4C    basis set group =>   2
Atom   5C    basis set group =>   2
Atom   6H    basis set group =>   4
Atom   7C    basis set group =>   2
Atom   8O    basis set group =>   3
Atom   9O    basis set group =>   3
Atom  10H    basis set group =>   4
Atom  11H    basis set group =>   4
Atom  12C    basis set group =>   2
Atom  13N    basis set group =>   1
Atom  14H    basis set group =>   4
Atom  15H    basis set group =>   4
Atom  16O    basis set group =>   3
Atom  17C    basis set group =>   2
Atom  18H    basis set group =>   4
Atom  19H    basis set group =>   4
Atom  20H    basis set group =>   4
Atom  21C    basis set group =>   2
Atom  22H    basis set group =>   4
Atom  23H    basis set group =>   4
Atom  24H    basis set group =>   4
Atom  25H    basis set group =>   4
Atom  26H    basis set group =>   4
---------------------------------
AUXILIARY/J BASIS SET INFORMATION
---------------------------------
There are 4 groups of distinct atoms

 Group   1 Type N   : 12s5p4d2f1g contracted to 6s4p3d1f1g pattern {711111/2111/211/2/1}
 Group   2 Type C   : 12s5p4d2f1g contracted to 6s4p3d1f1g pattern {711111/2111/211/2/1}
 Group   3 Type O   : 12s5p4d2f1g contracted to 6s4p3d1f1g pattern {711111/2111/211/2/1}
 Group   4 Type H   : 5s2p1d contracted to 3s1p1d pattern {311/2/1}

Atom   0N    basis set group =>   1
Atom   1C    basis set group =>   2
Atom   2C    basis set group =>   2
Atom   3O    basis set group =>   3
Atom   4C    basis set group =>   2
Atom   5C    basis set group =>   2
Atom   6H    basis set group =>   4
Atom   7C    basis set group =>   2
Atom   8O    basis set group =>   3
Atom   9O    basis set group =>   3
Atom  10H    basis set group =>   4
Atom  11H    basis set group =>   4
Atom  12C    basis set group =>   2
Atom  13N    basis set group =>   1
Atom  14H    basis set group =>   4
Atom  15H    basis set group =>   4
Atom  16O    basis set group =>   3
Atom  17C    basis set group =>   2
Atom  18H    basis set group =>   4
Atom  19H    basis set group =>   4
Atom  20H    basis set group =>   4
Atom  21C    basis set group =>   2
Atom  22H    basis set group =>   4
Atom  23H    basis set group =>   4
Atom  24H    basis set group =>   4
Atom  25H    basis set group =>   4
Atom  26H    basis set group =>   4


           ************************************************************
           *        Program running with 16 parallel MPI-processes    *
           *              working on a common directory               *
           ************************************************************
------------------------------------------------------------------------------
                           ORCA GTO INTEGRAL CALCULATION
                           -- RI-GTO INTEGRALS CHOSEN --
------------------------------------------------------------------------------
------------------------------------------------------------------------------
                   ___                                                        
                  /   \      - P O W E R E D   B Y -                         
                 /     \                                                     
                 |  |  |   _    _      __       _____    __    __             
                 |  |  |  | |  | |    /  \     |  _  \  |  |  /  |          
                  \  \/   | |  | |   /    \    | | | |  |  | /  /          
                 / \  \   | |__| |  /  /\  \   | |_| |  |  |/  /          
                |  |  |   |  __  | /  /__\  \  |    /   |      \           
                |  |  |   | |  | | |   __   |  |    \   |  |\   \          
                \     /   | |  | | |  |  |  |  | |\  \  |  | \   \       
                 \___/    |_|  |_| |__|  |__|  |_| \__\ |__|  \__/        
                                                                              
                      - O R C A' S   B I G   F R I E N D -                    
                                      &                                       
                       - I N T E G R A L  F E E D E R -                       
                                                                              
 v1 FN, 2020, v2 2021                                                         
------------------------------------------------------------------------------


Reading SHARK input file freq.SHARKINP.tmp ... ok
----------------------
SHARK INTEGRAL PACKAGE
----------------------

Number of atoms                             ...     27
Number of basis functions                   ...    512
Number of shells                            ...    206
Maximum angular momentum                    ...      3
Integral batch strategy                     ... SHARK/LIBINT Hybrid
RI-J (if used) integral strategy            ... SPLIT-RIJ (Revised 2003 algorithm where possible)
Printlevel                                  ...      1
Contraction scheme used                     ... SEGMENTED contraction
Coulomb Range Separation                    ... NOT USED
Exchange Range Separation                   ... NOT USED
Finite Nucleus Model                        ... NOT USED
Auxiliary Coulomb fitting basis             ... AVAILABLE
   # of basis functions in Aux-J            ...    829
   # of shells in Aux-J                     ...    275
   Maximum angular momentum in Aux-J        ...      4
Auxiliary J/K fitting basis                 ... NOT available
Auxiliary Correlation fitting basis         ... NOT available
Auxiliary 'external' fitting basis          ... NOT available
Integral threshold                          ...     2.500000e-11
Primitive cut-off                           ...     2.500000e-12
Primitive pair pre-selection threshold      ...     2.500000e-12

Calculating pre-screening integrals         ... done (  0.0 sec) Dimension = 206
Organizing shell pair data                  ... done (  0.1 sec)
Shell pair information
Total number of shell pairs                 ...     21321
Shell pairs after pre-screening             ...     16599
Total number of primitive shell pairs       ...     64608
Primitive shell pairs kept                  ...     34935
          la=0 lb=0:   4550 shell pairs
          la=1 lb=0:   4811 shell pairs
          la=1 lb=1:   1296 shell pairs
          la=2 lb=0:   2325 shell pairs
          la=2 lb=1:   1239 shell pairs
          la=2 lb=2:    315 shell pairs
          la=3 lb=0:   1102 shell pairs
          la=3 lb=1:    602 shell pairs
          la=3 lb=2:    283 shell pairs
          la=3 lb=3:     76 shell pairs

Calculating one electron integrals          ... done (  0.0 sec)
Calculating RI/J V-Matrix + Cholesky decomp.... done (  0.0 sec)
Calculating Nuclear repulsion               ... done (  0.0 sec) ENN=    915.870962459237 Eh

SHARK setup successfully completed in   0.4 seconds

Maximum memory used throughout the entire GTOINT-calculation: 28.8 MB


           ************************************************************
           *        Program running with 16 parallel MPI-processes    *
           *              working on a common directory               *
           ************************************************************
-------------------------------------------------------------------------------
                                 ORCA SCF
-------------------------------------------------------------------------------

------------
SCF SETTINGS
------------
Hamiltonian:
 Density Functional     Method          .... DFT(GTOs)
 Exchange Functional    Exchange        .... M062X
 Correlation Functional Correlation     .... M062X
 Gradients option       PostSCFGGA      .... off
 Hybrid DFT is turned on
   Fraction HF Exchange ScalHFX         ....  0.540000
   Scaling of DF-GGA-X  ScalDFX         ....  0.460000
   Scaling of DF-GGA-C  ScalDFC         ....  1.000000
   Scaling of DF-LDA-C  ScalLDAC        ....  1.000000
   Perturbative correction              ....  0.000000
   Density functional embedding theory  .... OFF
 RI-approximation to the Coulomb term is turned on
   Number of AuxJ basis functions       .... 829
   RIJ-COSX (HFX calculated with COS-X)).... on


General Settings:
 Integral files         IntName         .... freq
 Hartree-Fock type      HFTyp           .... UHF
 Total Charge           Charge          ....    0
 Multiplicity           Mult            ....    2
 Number of Electrons    NEL             ....  107
 Basis Dimension        Dim             ....  512
 Nuclear Repulsion      ENuc            ....    915.8709624592 Eh

Convergence Acceleration:
 DIIS                   CNVDIIS         .... on
   Start iteration      DIISMaxIt       ....    12
   Startup error        DIISStart       ....  0.200000
   # of expansion vecs  DIISMaxEq       ....     5
   Bias factor          DIISBfac        ....   1.050
   Max. coefficient     DIISMaxC        ....  10.000
 Trust-Rad. Augm. Hess. CNVTRAH         .... auto
   Auto Start mean grad. ratio tolernc. ....  1.125000
   Auto Start start iteration           ....    20
   Auto Start num. interpolation iter.  ....    10
   Max. Number of Micro iterations      ....    16
   Max. Number of Macro iterations      .... Maxiter - #DIIS iter
   Number of Davidson start vectors     ....     2
   Converg. threshold I  (grad. norm)   ....   1.000e-05
   Converg. threshold II (energy diff.) ....   1.000e-08
   Grad. Scal. Fac. for Micro threshold ....   0.100
   Minimum threshold for Micro iter.    ....   0.010
   NR start threshold (gradient norm)   ....   0.001
   Initial trust radius                 ....   0.400
   Minimum AH scaling param. (alpha)    ....   1.000
   Maximum AH scaling param. (alpha)    .... 1000.000
   Orbital update algorithm             .... Taylor
   White noise on init. David. guess    .... on
   Maximum white noise                  ....   0.010
   Quad. conv. algorithm                .... NR
 SOSCF                  CNVSOSCF        .... off
 Level Shifting         CNVShift        .... on
   Level shift para.    LevelShift      ....    0.2500
   Turn off err/grad.   ShiftErr        ....    0.0010
 Zerner damping         CNVZerner       .... off
 Static damping         CNVDamp         .... on
   Fraction old density DampFac         ....    0.7000
   Max. Damping (<1)    DampMax         ....    0.9800
   Min. Damping (>=0)   DampMin         ....    0.0000
   Turn off err/grad.   DampErr         ....    0.1000
 Fernandez-Rico         CNVRico         .... off

SCF Procedure:
 Maximum # iterations   MaxIter         ....   125
 SCF integral mode      SCFMode         .... Direct
   Integral package                     .... SHARK and LIBINT hybrid scheme
 Reset frequency        DirectResetFreq ....    20
 Integral Threshold     Thresh          ....  2.500e-11 Eh
 Primitive CutOff       TCut            ....  2.500e-12 Eh

Convergence Tolerance:
 Convergence Check Mode ConvCheckMode   .... Total+1el-Energy
 Convergence forced     ConvForced      .... 0
 Energy Change          TolE            ....  1.000e-08 Eh
 1-El. energy change                    ....  1.000e-05 Eh
 DIIS Error             TolErr          ....  5.000e-07


Diagonalization of the overlap matrix:
Smallest eigenvalue                        ... 6.650e-05
Time for diagonalization                   ...    0.043 sec
Threshold for overlap eigenvalues          ... 1.000e-08
Number of eigenvalues below threshold      ... 0
Time for construction of square roots      ...    0.022 sec
Total time needed                          ...    0.067 sec

Time for model grid setup =    0.114 sec

------------------------------
INITIAL GUESS: MODEL POTENTIAL
------------------------------
Loading Hartree-Fock densities                     ... done
Calculating cut-offs                               ... done
Initializing the effective Hamiltonian             ... done
Setting up the integral package (SHARK)            ... done
Starting the Coulomb interaction                   ... done (   0.1 sec)
Reading the grid                                   ... done
Mapping shells                                     ... done
Starting the XC term evaluation                    ... done (   0.1 sec)
  promolecular density results
     # of electrons  =    106.990853592
     EX              =    -90.409810355
     EC              =     -3.577423772
     EX+EC           =    -93.987234127
Transforming the Hamiltonian                       ... done (   0.0 sec)
Diagonalizing the Hamiltonian                      ... done (   0.0 sec)
Back transforming the eigenvectors                 ... done (   0.0 sec)
Now organizing SCF variables                       ... done
                      ------------------
                      INITIAL GUESS DONE (   0.4 sec)
                      ------------------
-------------------
DFT GRID GENERATION
-------------------

General Integration Accuracy     IntAcc      ... 4.388
Radial Grid Type                 RadialGrid  ... OptM3 with GC (2021)
Angular Grid (max. ang.)         AngularGrid ... 4 (Lebedev-302)
Angular grid pruning method      GridPruning ... 4 (adaptive)
Weight generation scheme         WeightScheme... Becke
Basis function cutoff            BFCut       ... 1.0000e-11
Integration weight cutoff        WCut        ... 1.0000e-14
Angular grids for H and He will be reduced by one unit
Partially contracted basis set               ... off
Rotationally invariant grid construction     ... off

Total number of grid points                  ...   125937
Total number of batches                      ...     1982
Average number of points per batch           ...       63
Average number of grid points per atom       ...     4664
Time for grid setup =    0.549 sec

--------------------
COSX GRID GENERATION
--------------------

GRIDX 1
-------
General Integration Accuracy     IntAcc      ... 3.816
Radial Grid Type                 RadialGrid  ... OptM3 with GC (2021)
Angular Grid (max. ang.)         AngularGrid ... 1 (Lebedev-50)
Angular grid pruning method      GridPruning ... 4 (adaptive)
Weight generation scheme         WeightScheme... Becke
Basis function cutoff            BFCut       ... 1.0000e-11
Integration weight cutoff        WCut        ... 1.0000e-14
Angular grids for H and He will be reduced by one unit
Partially contracted basis set               ... on
Rotationally invariant grid construction     ... off

Total number of grid points                  ...    16042
Total number of batches                      ...      265
Average number of points per batch           ...       60
Average number of grid points per atom       ...      594
UseSFitting                                  ... on

GRIDX 2
-------
General Integration Accuracy     IntAcc      ... 4.020
Radial Grid Type                 RadialGrid  ... OptM3 with GC (2021)
Angular Grid (max. ang.)         AngularGrid ... 2 (Lebedev-110)
Angular grid pruning method      GridPruning ... 4 (adaptive)
Weight generation scheme         WeightScheme... Becke
Basis function cutoff            BFCut       ... 1.0000e-11
Integration weight cutoff        WCut        ... 1.0000e-14
Angular grids for H and He will be reduced by one unit
Partially contracted basis set               ... on
Rotationally invariant grid construction     ... off

Total number of grid points                  ...    34688
Total number of batches                      ...      555
Average number of points per batch           ...       62
Average number of grid points per atom       ...     1285
UseSFitting                                  ... on

GRIDX 3
-------
General Integration Accuracy     IntAcc      ... 4.338
Radial Grid Type                 RadialGrid  ... OptM3 with GC (2021)
Angular Grid (max. ang.)         AngularGrid ... 3 (Lebedev-194)
Angular grid pruning method      GridPruning ... 4 (adaptive)
Weight generation scheme         WeightScheme... Becke
Basis function cutoff            BFCut       ... 1.0000e-11
Integration weight cutoff        WCut        ... 1.0000e-14
Angular grids for H and He will be reduced by one unit
Partially contracted basis set               ... on
Rotationally invariant grid construction     ... off

Total number of grid points                  ...    76050
Total number of batches                      ...     1201
Average number of points per batch           ...       63
Average number of grid points per atom       ...     2817
UseSFitting                                  ... on

Time for X-Grid setup             =    0.718 sec

--------------
SCF ITERATIONS
--------------
ITER       Energy         Delta-E        Max-DP      RMS-DP      [F,P]     Damp
               ***  Starting incremental Fock matrix formation  ***
  0   -722.5764086559   0.000000000000 0.06730856  0.00051869  0.1502678 0.7000
  1   -722.7992183175  -0.222809661572 0.06170837  0.00042508  0.0723070 0.7000
                               ***Turning on DIIS***
  2   -722.8938680115  -0.094649694018 0.10025859  0.00074606  0.0273801 0.0000
  3   -723.0499519899  -0.156083978382 0.05980460  0.00032317  0.0377481 0.0000
  4   -723.0774324263  -0.027480436371 0.01444967  0.00008836  0.0076732 0.0000
  5   -723.0788208846  -0.001388458332 0.00639624  0.00004219  0.0029962 0.0000
  6   -723.0791114179  -0.000290533314 0.00221251  0.00002119  0.0017269 0.0000
  7   -723.0792181468  -0.000106728852 0.00231660  0.00002312  0.0009901 0.0000
               *** Restarting incremental Fock matrix formation ***
                                   *** Resetting DIIS ***
  8   -723.0792292867  -0.000011139942 0.00068156  0.00000734  0.0006315 0.0000
  9   -723.0792353669  -0.000006080185 0.00025057  0.00000268  0.0006593 0.0000
 10   -723.0792386066  -0.000003239745 0.00037636  0.00000270  0.0002663 0.0000
 11   -723.0792404157  -0.000001809070 0.00023244  0.00000157  0.0001701 0.0000
 12   -723.0792408588  -0.000000443124 0.00010809  0.00000057  0.0001069 0.0000
 13   -723.0792409805  -0.000000121713 0.00004328  0.00000031  0.0000410 0.0000
 14   -723.0792410230  -0.000000042501 0.00002974  0.00000020  0.0000209 0.0000
 15   -723.0792410257  -0.000000002634 0.00001331  0.00000010  0.0000073 0.0000
 16   -723.0792410274  -0.000000001777 0.00000487  0.00000005  0.0000057 0.0000
 17   -723.0792410293  -0.000000001816 0.00000452  0.00000002  0.0000026 0.0000
 18   -723.0792410580  -0.000000028693 0.00000283  0.00000002  0.0000013 0.0000
 19   -723.0792410541   0.000000003886 0.00000219  0.00000002  0.0000010 0.0000
                 **** Energy Check signals convergence ****

               *****************************************************
               *                     SUCCESS                       *
               *           SCF CONVERGED AFTER  20 CYCLES          *
               *****************************************************

Old exchange energy                            =    -49.794594545 Eh
New exchange energy                            =    -49.794582843 Eh
Exchange energy change after final integration =      0.000011702 Eh
Total energy after final integration           =   -723.079229360 Eh
Final COS-X integration done in                =     4.053 sec

----------------
TOTAL SCF ENERGY
----------------

Total Energy       :         -723.07922936 Eh          -19675.98614 eV

Components:
Nuclear Repulsion  :          915.87096246 Eh           24922.11590 eV
Electronic Energy  :        -1638.95019182 Eh          -44598.10204 eV
One Electron Energy:        -2803.35307924 Eh          -76283.11544 eV
Two Electron Energy:         1164.40288742 Eh           31685.01340 eV
Max COSX asymmetry :            0.00000096 Eh               0.00003 eV

Virial components:
Potential Energy   :        -1442.39578467 Eh          -39249.58471 eV
Kinetic Energy     :          719.31655531 Eh           19573.59857 eV
Virial Ratio       :            2.00523090


DFT components:
N(Alpha)           :       54.000016077965 electrons
N(Beta)            :       53.000023460642 electrons
N(Total)           :      107.000039538607 electrons
E(XC)              :      -46.398444967922 Eh       
DFET-embed. en.    :        0.000000000000 Eh       

---------------
SCF CONVERGENCE
---------------

  Last Energy change         ...   -7.9526e-09  Tolerance :   1.0000e-08
  Last MAX-Density change    ...    0.0000e+00  Tolerance :   1.0000e-07
  Last RMS-Density change    ...    0.0000e+00  Tolerance :   5.0000e-09
  Last DIIS Error            ...    6.0125e-07  Tolerance :   5.0000e-07

             **** THE GBW FILE WAS UPDATED (freq.gbw) ****
             **** DENSITY freq.scfp WAS UPDATED ****
             **** ENERGY FILE WAS UPDATED (freq.en.tmp) ****
----------------------
UHF SPIN CONTAMINATION
----------------------

Warning: in a DFT calculation there is little theoretical justification to 
         calculate <S**2> as in Hartree-Fock theory. We will do it anyways
         but you should keep in mind that the values have only limited relevance

Expectation value of <S**2>     :     0.760786
Ideal value S*(S+1) for S=0.5   :     0.750000
Deviation                       :     0.010786

             **** THE GBW FILE WAS UPDATED (freq.gbw) ****
             **** DENSITY freq.scfp WAS UPDATED ****
----------------
ORBITAL ENERGIES
----------------
                 SPIN UP ORBITALS
  NO   OCC          E(Eh)            E(eV) 
   0   1.0000     -19.676196      -535.4165 
   1   1.0000     -19.623635      -533.9863 
   2   1.0000     -19.617974      -533.8322 
   3   1.0000     -19.597185      -533.2665 
   4   1.0000     -14.797029      -402.6476 
   5   1.0000     -14.780056      -402.1858 
   6   1.0000     -10.681507      -290.6586 
   7   1.0000     -10.667235      -290.2702 
   8   1.0000     -10.653345      -289.8923 
   9   1.0000     -10.612017      -288.7677 
  10   1.0000     -10.592090      -288.2254 
  11   1.0000     -10.586850      -288.0828 
  12   1.0000     -10.569781      -287.6184 
  13   1.0000     -10.547504      -287.0122 
  14   1.0000      -1.231997       -33.5243 
  15   1.0000      -1.181311       -32.1451 
  16   1.0000      -1.159645       -31.5555 
  17   1.0000      -1.138912       -30.9914 
  18   1.0000      -1.051148       -28.6032 
  19   1.0000      -1.042408       -28.3654 
  20   1.0000      -0.924808       -25.1653 
  21   1.0000      -0.864542       -23.5254 
  22   1.0000      -0.831785       -22.6340 
  23   1.0000      -0.802544       -21.8383 
  24   1.0000      -0.749565       -20.3967 
  25   1.0000      -0.693123       -18.8608 
  26   1.0000      -0.691191       -18.8083 
  27   1.0000      -0.664660       -18.0863 
  28   1.0000      -0.628895       -17.1131 
  29   1.0000      -0.592751       -16.1296 
  30   1.0000      -0.584272       -15.8989 
  31   1.0000      -0.562517       -15.3069 
  32   1.0000      -0.559657       -15.2290 
  33   1.0000      -0.555160       -15.1067 
  34   1.0000      -0.544269       -14.8103 
  35   1.0000      -0.537459       -14.6250 
  36   1.0000      -0.534940       -14.5564 
  37   1.0000      -0.515703       -14.0330 
  38   1.0000      -0.506719       -13.7885 
  39   1.0000      -0.489261       -13.3135 
  40   1.0000      -0.484638       -13.1877 
  41   1.0000      -0.480449       -13.0737 
  42   1.0000      -0.479248       -13.0410 
  43   1.0000      -0.467630       -12.7249 
  44   1.0000      -0.455218       -12.3871 
  45   1.0000      -0.448252       -12.1976 
  46   1.0000      -0.427614       -11.6360 
  47   1.0000      -0.415010       -11.2930 
  48   1.0000      -0.369447       -10.0532 
  49   1.0000      -0.359359        -9.7787 
  50   1.0000      -0.348311        -9.4780 
  51   1.0000      -0.339078        -9.2268 
  52   1.0000      -0.332336        -9.0433 
  53   1.0000      -0.297907        -8.1065 
  54   0.0000       0.031259         0.8506 
  55   0.0000       0.039476         1.0742 
  56   0.0000       0.054821         1.4918 
  57   0.0000       0.061282         1.6676 
  58   0.0000       0.068752         1.8708 
  59   0.0000       0.072600         1.9755 
  60   0.0000       0.079419         2.1611 
  61   0.0000       0.104121         2.8333 
  62   0.0000       0.108272         2.9462 
  63   0.0000       0.115864         3.1528 
  64   0.0000       0.120698         3.2844 
  65   0.0000       0.129163         3.5147 
  66   0.0000       0.144218         3.9244 
  67   0.0000       0.148490         4.0406 
  68   0.0000       0.153353         4.1729 
  69   0.0000       0.158211         4.3051 
  70   0.0000       0.165117         4.4931 
  71   0.0000       0.177514         4.8304 
  72   0.0000       0.180547         4.9129 
  73   0.0000       0.193400         5.2627 
  74   0.0000       0.200779         5.4635 
  75   0.0000       0.207079         5.6349 
  76   0.0000       0.215721         5.8701 
  77   0.0000       0.222650         6.0586 
  78   0.0000       0.227122         6.1803 
  79   0.0000       0.235167         6.3992 
  80   0.0000       0.236761         6.4426 
  81   0.0000       0.251508         6.8439 
  82   0.0000       0.255801         6.9607 
  83   0.0000       0.259846         7.0708 
  84   0.0000       0.269523         7.3341 
  85   0.0000       0.277811         7.5596 
  86   0.0000       0.296156         8.0588 
  87   0.0000       0.298465         8.1216 
  88   0.0000       0.300893         8.1877 
  89   0.0000       0.313560         8.5324 
  90   0.0000       0.325316         8.8523 
  91   0.0000       0.334163         9.0930 
  92   0.0000       0.349891         9.5210 
  93   0.0000       0.355170         9.6647 
  94   0.0000       0.360834         9.8188 
  95   0.0000       0.375402        10.2152 
  96   0.0000       0.383998        10.4491 
  97   0.0000       0.387656        10.5487 
  98   0.0000       0.393989        10.7210 
  99   0.0000       0.396457        10.7881 
 100   0.0000       0.410251        11.1635 
 101   0.0000       0.416255        11.3269 
 102   0.0000       0.419872        11.4253 
 103   0.0000       0.425339        11.5741 
 104   0.0000       0.430582        11.7167 
 105   0.0000       0.437888        11.9156 
 106   0.0000       0.447179        12.1684 
 107   0.0000       0.452411        12.3107 
 108   0.0000       0.454829        12.3765 
 109   0.0000       0.462484        12.5848 
 110   0.0000       0.466493        12.6939 
 111   0.0000       0.481130        13.0922 
 112   0.0000       0.487835        13.2747 
 113   0.0000       0.493670        13.4334 
 114   0.0000       0.495315        13.4782 
 115   0.0000       0.499482        13.5916 
 116   0.0000       0.511631        13.9222 
 117   0.0000       0.512914        13.9571 
 118   0.0000       0.518995        14.1226 
 119   0.0000       0.524559        14.2740 
 120   0.0000       0.529841        14.4177 
 121   0.0000       0.540818        14.7164 
 122   0.0000       0.548895        14.9362 
 123   0.0000       0.556042        15.1307 
 124   0.0000       0.561768        15.2865 
 125   0.0000       0.565823        15.3968 
 126   0.0000       0.570685        15.5291 
 127   0.0000       0.580117        15.7858 
 128   0.0000       0.589807        16.0495 
 129   0.0000       0.598266        16.2797 
 130   0.0000       0.601665        16.3721 
 131   0.0000       0.607038        16.5183 
 132   0.0000       0.614307        16.7162 
 133   0.0000       0.617409        16.8006 
 134   0.0000       0.628609        17.1053 
 135   0.0000       0.638240        17.3674 
 136   0.0000       0.655221        17.8295 
 137   0.0000       0.657142        17.8817 
 138   0.0000       0.673421        18.3247 
 139   0.0000       0.686661        18.6850 
 140   0.0000       0.690170        18.7805 
 141   0.0000       0.715311        19.4646 
 142   0.0000       0.738073        20.0840 
 143   0.0000       0.759347        20.6629 
 144   0.0000       0.768870        20.9220 
 145   0.0000       0.779045        21.1989 
 146   0.0000       0.782236        21.2857 
 147   0.0000       0.791371        21.5343 
 148   0.0000       0.808404        21.9978 
 149   0.0000       0.819166        22.2906 
 150   0.0000       0.832776        22.6610 
 151   0.0000       0.835995        22.7486 
 152   0.0000       0.853164        23.2158 
 153   0.0000       0.861672        23.4473 
 154   0.0000       0.882490        24.0138 
 155   0.0000       0.898131        24.4394 
 156   0.0000       0.903009        24.5721 
 157   0.0000       0.912066        24.8186 
 158   0.0000       0.915785        24.9198 
 159   0.0000       0.934061        25.4171 
 160   0.0000       0.946476        25.7549 
 161   0.0000       0.952679        25.9237 
 162   0.0000       0.966891        26.3105 
 163   0.0000       0.981338        26.7036 
 164   0.0000       0.991911        26.9913 
 165   0.0000       0.996588        27.1185 
 166   0.0000       1.020146        27.7596 
 167   0.0000       1.025617        27.9084 
 168   0.0000       1.036429        28.2027 
 169   0.0000       1.052274        28.6338 
 170   0.0000       1.066979        29.0340 
 171   0.0000       1.082546        29.4576 
 172   0.0000       1.088133        29.6096 
 173   0.0000       1.095864        29.8200 
 174   0.0000       1.102148        29.9910 
 175   0.0000       1.137006        30.9395 
 176   0.0000       1.146466        31.1969 
 177   0.0000       1.161458        31.6049 
 178   0.0000       1.183190        32.1962 
 179   0.0000       1.191399        32.4196 
 180   0.0000       1.204302        32.7707 
 181   0.0000       1.223691        33.2983 
 182   0.0000       1.248883        33.9838 
 183   0.0000       1.260224        34.2925 
 184   0.0000       1.275175        34.6993 
 185   0.0000       1.299540        35.3623 
 186   0.0000       1.307980        35.5920 
 187   0.0000       1.316614        35.8269 
 188   0.0000       1.335728        36.3470 
 189   0.0000       1.352105        36.7926 
 190   0.0000       1.369933        37.2778 
 191   0.0000       1.383674        37.6517 
 192   0.0000       1.386610        37.7316 
 193   0.0000       1.413961        38.4758 
 194   0.0000       1.415027        38.5048 
 195   0.0000       1.442198        39.2442 
 196   0.0000       1.460382        39.7390 
 197   0.0000       1.473569        40.0979 
 198   0.0000       1.484141        40.3855 
 199   0.0000       1.489954        40.5437 
 200   0.0000       1.498711        40.7820 
 201   0.0000       1.516297        41.2605 
 202   0.0000       1.528975        41.6055 
 203   0.0000       1.541567        41.9482 
 204   0.0000       1.544778        42.0355 
 205   0.0000       1.551431        42.2166 
 206   0.0000       1.558894        42.4197 
 207   0.0000       1.567369        42.6503 
 208   0.0000       1.573672        42.8218 
 209   0.0000       1.578801        42.9614 
 210   0.0000       1.581765        43.0420 
 211   0.0000       1.586134        43.1609 
 212   0.0000       1.602729        43.6125 
 213   0.0000       1.607991        43.7557 
 214   0.0000       1.617128        44.0043 
 215   0.0000       1.620937        44.1079 
 216   0.0000       1.638209        44.5779 
 217   0.0000       1.660571        45.1864 
 218   0.0000       1.672973        45.5239 
 219   0.0000       1.686815        45.9006 
 220   0.0000       1.701433        46.2984 
 221   0.0000       1.717348        46.7314 
 222   0.0000       1.720756        46.8241 
 223   0.0000       1.745235        47.4902 
 224   0.0000       1.758045        47.8388 
 225   0.0000       1.764700        48.0199 
 226   0.0000       1.773846        48.2688 
 227   0.0000       1.776992        48.3544 
 228   0.0000       1.782335        48.4998 
 229   0.0000       1.810280        49.2602 
 230   0.0000       1.827459        49.7277 
 231   0.0000       1.843170        50.1552 
 232   0.0000       1.846855        50.2555 
 233   0.0000       1.869281        50.8657 
 234   0.0000       1.876053        51.0500 
 235   0.0000       1.887411        51.3591 
 236   0.0000       1.909274        51.9540 
 237   0.0000       1.923045        52.3287 
 238   0.0000       1.936519        52.6954 
 239   0.0000       1.942087        52.8469 
 240   0.0000       1.961761        53.3822 
 241   0.0000       1.975501        53.7561 
 242   0.0000       1.978137        53.8279 
 243   0.0000       1.991062        54.1796 
 244   0.0000       1.995618        54.3035 
 245   0.0000       2.007846        54.6363 
 246   0.0000       2.020829        54.9895 
 247   0.0000       2.022468        55.0342 
 248   0.0000       2.037373        55.4397 
 249   0.0000       2.063617        56.1539 
 250   0.0000       2.069212        56.3061 
 251   0.0000       2.083620        56.6982 
 252   0.0000       2.092690        56.9450 
 253   0.0000       2.119742        57.6811 
 254   0.0000       2.132882        58.0387 
 255   0.0000       2.143339        58.3232 
 256   0.0000       2.154641        58.6308 
 257   0.0000       2.165913        58.9375 
 258   0.0000       2.182145        59.3792 
 259   0.0000       2.203996        59.9738 
 260   0.0000       2.220076        60.4113 
 261   0.0000       2.227239        60.6063 
 262   0.0000       2.240826        60.9760 
 263   0.0000       2.243604        61.0516 
 264   0.0000       2.261100        61.5277 
 265   0.0000       2.283907        62.1483 
 266   0.0000       2.291585        62.3572 
 267   0.0000       2.302698        62.6596 
 268   0.0000       2.312603        62.9291 
 269   0.0000       2.321210        63.1633 
 270   0.0000       2.333130        63.4877 
 271   0.0000       2.338193        63.6255 
 272   0.0000       2.342789        63.7505 
 273   0.0000       2.347533        63.8796 
 274   0.0000       2.357388        64.1478 
 275   0.0000       2.377032        64.6823 
 276   0.0000       2.382832        64.8402 
 277   0.0000       2.392573        65.1052 
 278   0.0000       2.400455        65.3197 
 279   0.0000       2.434067        66.2343 
 280   0.0000       2.446704        66.5782 
 281   0.0000       2.463022        67.0222 
 282   0.0000       2.479695        67.4759 
 283   0.0000       2.499961        68.0274 
 284   0.0000       2.520318        68.5814 
 285   0.0000       2.528441        68.8024 
 286   0.0000       2.546369        69.2902 
 287   0.0000       2.552157        69.4477 
 288   0.0000       2.566073        69.8264 
 289   0.0000       2.571604        69.9769 
 290   0.0000       2.587558        70.4110 
 291   0.0000       2.599788        70.7438 
 292   0.0000       2.619379        71.2769 
 293   0.0000       2.623527        71.3898 
 294   0.0000       2.627335        71.4934 
 295   0.0000       2.647338        72.0377 
 296   0.0000       2.667676        72.5911 
 297   0.0000       2.671761        72.7023 
 298   0.0000       2.699642        73.4610 
 299   0.0000       2.702309        73.5336 
 300   0.0000       2.715790        73.9004 
 301   0.0000       2.736253        74.4572 
 302   0.0000       2.742861        74.6370 
 303   0.0000       2.769914        75.3732 
 304   0.0000       2.773318        75.4658 
 305   0.0000       2.791131        75.9505 
 306   0.0000       2.805165        76.3324 
 307   0.0000       2.816162        76.6317 
 308   0.0000       2.828788        76.9752 
 309   0.0000       2.831415        77.0467 
 310   0.0000       2.835835        77.1670 
 311   0.0000       2.867706        78.0342 
 312   0.0000       2.874806        78.2274 
 313   0.0000       2.886774        78.5531 
 314   0.0000       2.896828        78.8267 
 315   0.0000       2.921348        79.4939 
 316   0.0000       2.933494        79.8244 
 317   0.0000       2.949682        80.2649 
 318   0.0000       2.955542        80.4244 
 319   0.0000       2.979059        81.0643 
 320   0.0000       2.985247        81.2327 
 321   0.0000       2.992686        81.4351 
 322   0.0000       2.996122        81.5286 
 323   0.0000       3.003529        81.7302 
 324   0.0000       3.008748        81.8722 
 325   0.0000       3.030470        82.4633 
 326   0.0000       3.036779        82.6349 
 327   0.0000       3.058557        83.2276 
 328   0.0000       3.066415        83.4414 
 329   0.0000       3.075357        83.6847 
 330   0.0000       3.084242        83.9265 
 331   0.0000       3.094585        84.2079 
 332   0.0000       3.110626        84.6444 
 333   0.0000       3.122959        84.9800 
 334   0.0000       3.134468        85.2932 
 335   0.0000       3.137055        85.3636 
 336   0.0000       3.146324        85.6158 
 337   0.0000       3.159257        85.9677 
 338   0.0000       3.163471        86.0824 
 339   0.0000       3.179379        86.5153 
 340   0.0000       3.186789        86.7169 
 341   0.0000       3.197175        86.9995 
 342   0.0000       3.206780        87.2609 
 343   0.0000       3.214437        87.4693 
 344   0.0000       3.223588        87.7183 
 345   0.0000       3.232636        87.9645 
 346   0.0000       3.248147        88.3866 
 347   0.0000       3.259181        88.6868 
 348   0.0000       3.278747        89.2192 
 349   0.0000       3.283122        89.3383 
 350   0.0000       3.292770        89.6008 
 351   0.0000       3.299422        89.7818 
 352   0.0000       3.309013        90.0428 
 353   0.0000       3.314961        90.2047 
 354   0.0000       3.318322        90.2961 
 355   0.0000       3.331384        90.6516 
 356   0.0000       3.332433        90.6801 
 357   0.0000       3.344620        91.0117 
 358   0.0000       3.353022        91.2404 
 359   0.0000       3.358462        91.3884 
 360   0.0000       3.389242        92.2260 
 361   0.0000       3.391716        92.2933 
 362   0.0000       3.403614        92.6170 
 363   0.0000       3.418822        93.0309 
 364   0.0000       3.430140        93.3389 
 365   0.0000       3.437148        93.5296 
 366   0.0000       3.451922        93.9316 
 367   0.0000       3.459424        94.1357 
 368   0.0000       3.488354        94.9229 
 369   0.0000       3.510364        95.5218 
 370   0.0000       3.513430        95.6053 
 371   0.0000       3.532343        96.1199 
 372   0.0000       3.542212        96.3885 
 373   0.0000       3.549980        96.5999 
 374   0.0000       3.569482        97.1306 
 375   0.0000       3.580263        97.4239 
 376   0.0000       3.591630        97.7332 
 377   0.0000       3.628749        98.7433 
 378   0.0000       3.670766        99.8866 
 379   0.0000       3.691807       100.4592 
 380   0.0000       3.706097       100.8480 
 381   0.0000       3.734885       101.6314 
 382   0.0000       3.742452       101.8373 
 383   0.0000       3.758177       102.2652 
 384   0.0000       3.785825       103.0175 
 385   0.0000       3.792303       103.1938 
 386   0.0000       3.802049       103.4590 
 387   0.0000       3.829954       104.2183 
 388   0.0000       3.856287       104.9349 
 389   0.0000       3.858416       104.9928 
 390   0.0000       3.879594       105.5691 
 391   0.0000       3.889953       105.8510 
 392   0.0000       3.907935       106.3403 
 393   0.0000       3.922838       106.7458 
 394   0.0000       3.971722       108.0760 
 395   0.0000       3.976630       108.2096 
 396   0.0000       4.000710       108.8648 
 397   0.0000       4.011755       109.1654 
 398   0.0000       4.047372       110.1346 
 399   0.0000       4.076648       110.9312 
 400   0.0000       4.100290       111.5746 
 401   0.0000       4.117095       112.0319 
 402   0.0000       4.136403       112.5573 
 403   0.0000       4.161415       113.2379 
 404   0.0000       4.187087       113.9364 
 405   0.0000       4.212816       114.6366 
 406   0.0000       4.220780       114.8533 
 407   0.0000       4.284869       116.5972 
 408   0.0000       4.305075       117.1470 
 409   0.0000       4.318443       117.5108 
 410   0.0000       4.343163       118.1835 
 411   0.0000       4.366645       118.8224 
 412   0.0000       4.382235       119.2467 
 413   0.0000       4.386949       119.3749 
 414   0.0000       4.409294       119.9830 
 415   0.0000       4.456782       121.2752 
 416   0.0000       4.481082       121.9364 
 417   0.0000       4.503898       122.5573 
 418   0.0000       4.518137       122.9447 
 419   0.0000       4.529300       123.2485 
 420   0.0000       4.581816       124.6776 
 421   0.0000       4.634840       126.1204 
 422   0.0000       4.667160       126.9999 
 423   0.0000       4.685760       127.5060 
 424   0.0000       4.699539       127.8810 
 425   0.0000       4.734902       128.8432 
 426   0.0000       4.753581       129.3515 
 427   0.0000       4.782462       130.1374 
 428   0.0000       4.790994       130.3696 
 429   0.0000       4.829307       131.4121 
 430   0.0000       4.853267       132.0641 
 431   0.0000       4.906626       133.5161 
 432   0.0000       4.949856       134.6924 
 433   0.0000       4.966620       135.1486 
 434   0.0000       5.011715       136.3757 
 435   0.0000       5.061805       137.7387 
 436   0.0000       5.082718       138.3078 
 437   0.0000       5.094723       138.6345 
 438   0.0000       5.160484       140.4239 
 439   0.0000       5.172842       140.7602 
 440   0.0000       5.192405       141.2925 
 441   0.0000       5.203188       141.5860 
 442   0.0000       5.213914       141.8778 
 443   0.0000       5.219023       142.0168 
 444   0.0000       5.223838       142.1478 
 445   0.0000       5.256288       143.0309 
 446   0.0000       5.262107       143.1892 
 447   0.0000       5.276688       143.5860 
 448   0.0000       5.294305       144.0654 
 449   0.0000       5.374243       146.2406 
 450   0.0000       5.377370       146.3257 
 451   0.0000       5.416536       147.3914 
 452   0.0000       5.424036       147.5955 
 453   0.0000       5.442897       148.1088 
 454   0.0000       5.472387       148.9112 
 455   0.0000       5.485585       149.2704 
 456   0.0000       5.537735       150.6894 
 457   0.0000       5.573711       151.6684 
 458   0.0000       5.583557       151.9363 
 459   0.0000       5.637180       153.3955 
 460   0.0000       5.661483       154.0568 
 461   0.0000       5.714843       155.5088 
 462   0.0000       5.738358       156.1487 
 463   0.0000       5.754545       156.5891 
 464   0.0000       5.824934       158.5045 
 465   0.0000       5.867141       159.6530 
 466   0.0000       5.883100       160.0873 
 467   0.0000       5.901471       160.5872 
 468   0.0000       6.074322       165.2907 
 469   0.0000       6.086248       165.6152 
 470   0.0000       6.097504       165.9215 
 471   0.0000       6.199214       168.6892 
 472   0.0000       6.284040       170.9974 
 473   0.0000       6.291456       171.1992 
 474   0.0000       6.305732       171.5877 
 475   0.0000       6.308744       171.6696 
 476   0.0000       6.394102       173.9924 
 477   0.0000       6.421211       174.7300 
 478   0.0000       6.436204       175.1380 
 479   0.0000       6.477622       176.2650 
 480   0.0000       6.540411       177.9736 
 481   0.0000       6.553283       178.3239 
 482   0.0000       6.645327       180.8285 
 483   0.0000       6.648304       180.9096 
 484   0.0000       6.653681       181.0559 
 485   0.0000       6.675369       181.6460 
 486   0.0000       6.741746       183.4522 
 487   0.0000       6.790012       184.7656 
 488   0.0000       6.814294       185.4264 
 489   0.0000       6.825472       185.7305 
 490   0.0000       6.897616       187.6937 
 491   0.0000       7.037790       191.5080 
 492   0.0000       7.046493       191.7448 
 493   0.0000       7.060972       192.1388 
 494   0.0000       7.070690       192.4033 
 495   0.0000       7.090946       192.9544 
 496   0.0000       7.106382       193.3745 
 497   0.0000       7.285370       198.2450 
 498   0.0000      22.397999       609.4805 
 499   0.0000      22.455511       611.0455 
 500   0.0000      22.517251       612.7255 
 501   0.0000      22.595000       614.8412 
 502   0.0000      22.746963       618.9763 
 503   0.0000      23.250468       632.6774 
 504   0.0000      23.351830       635.4356 
 505   0.0000      23.398847       636.7150 
 506   0.0000      32.504367       884.4888 
 507   0.0000      32.668239       888.9480 
 508   0.0000      43.925983      1195.2868 
 509   0.0000      43.994138      1197.1413 
 510   0.0000      44.054762      1198.7910 
 511   0.0000      44.086022      1199.6416 

                 SPIN DOWN ORBITALS
  NO   OCC          E(Eh)            E(eV) 
   0   1.0000     -19.675995      -535.4111 
   1   1.0000     -19.619879      -533.8841 
   2   1.0000     -19.617939      -533.8313 
   3   1.0000     -19.597100      -533.2642 
   4   1.0000     -14.797039      -402.6479 
   5   1.0000     -14.780059      -402.1858 
   6   1.0000     -10.682389      -290.6826 
   7   1.0000     -10.667245      -290.2705 
   8   1.0000     -10.653350      -289.8924 
   9   1.0000     -10.611581      -288.7558 
  10   1.0000     -10.586847      -288.0828 
  11   1.0000     -10.586638      -288.0771 
  12   1.0000     -10.570321      -287.6330 
  13   1.0000     -10.547503      -287.0122 
  14   1.0000      -1.229025       -33.4435 
  15   1.0000      -1.181201       -32.1421 
  16   1.0000      -1.159483       -31.5511 
  17   1.0000      -1.131136       -30.7798 
  18   1.0000      -1.051127       -28.6026 
  19   1.0000      -1.041965       -28.3533 
  20   1.0000      -0.912842       -24.8397 
  21   1.0000      -0.854385       -23.2490 
  22   1.0000      -0.831088       -22.6151 
  23   1.0000      -0.796987       -21.6871 
  24   1.0000      -0.746924       -20.3248 
  25   1.0000      -0.691557       -18.8182 
  26   1.0000      -0.685452       -18.6521 
  27   1.0000      -0.660981       -17.9862 
  28   1.0000      -0.628173       -17.0935 
  29   1.0000      -0.589664       -16.0456 
  30   1.0000      -0.579403       -15.7664 
  31   1.0000      -0.561844       -15.2885 
  32   1.0000      -0.554034       -15.0760 
  33   1.0000      -0.552641       -15.0381 
  34   1.0000      -0.538322       -14.6485 
  35   1.0000      -0.533500       -14.5173 
  36   1.0000      -0.527054       -14.3419 
  37   1.0000      -0.510032       -13.8787 
  38   1.0000      -0.504149       -13.7186 
  39   1.0000      -0.486398       -13.2356 
  40   1.0000      -0.481758       -13.1093 
  41   1.0000      -0.479982       -13.0610 
  42   1.0000      -0.475030       -12.9262 
  43   1.0000      -0.465796       -12.6750 
  44   1.0000      -0.453830       -12.3493 
  45   1.0000      -0.445630       -12.1262 
  46   1.0000      -0.426259       -11.5991 
  47   1.0000      -0.391069       -10.6415 
  48   1.0000      -0.362870        -9.8742 
  49   1.0000      -0.356623        -9.7042 
  50   1.0000      -0.347342        -9.4516 
  51   1.0000      -0.337854        -9.1935 
  52   1.0000      -0.328877        -8.9492 
  53   0.0000      -0.079545        -2.1645 
  54   0.0000       0.031294         0.8516 
  55   0.0000       0.039677         1.0797 
  56   0.0000       0.054878         1.4933 
  57   0.0000       0.061303         1.6681 
  58   0.0000       0.070340         1.9140 
  59   0.0000       0.077204         2.1008 
  60   0.0000       0.095354         2.5947 
  61   0.0000       0.104567         2.8454 
  62   0.0000       0.105919         2.8822 
  63   0.0000       0.117612         3.2004 
  64   0.0000       0.120989         3.2923 
  65   0.0000       0.125981         3.4281 
  66   0.0000       0.143346         3.9006 
  67   0.0000       0.148235         4.0337 
  68   0.0000       0.152466         4.1488 
  69   0.0000       0.158447         4.3116 
  70   0.0000       0.164107         4.4656 
  71   0.0000       0.178445         4.8557 
  72   0.0000       0.180021         4.8986 
  73   0.0000       0.192100         5.2273 
  74   0.0000       0.200161         5.4467 
  75   0.0000       0.209334         5.6963 
  76   0.0000       0.215361         5.8603 
  77   0.0000       0.224842         6.1183 
  78   0.0000       0.226224         6.1559 
  79   0.0000       0.236776         6.4430 
  80   0.0000       0.239146         6.5075 
  81   0.0000       0.248480         6.7615 
  82   0.0000       0.253185         6.8895 
  83   0.0000       0.260424         7.0865 
  84   0.0000       0.268353         7.3023 
  85   0.0000       0.278227         7.5710 
  86   0.0000       0.292736         7.9658 
  87   0.0000       0.298727         8.1288 
  88   0.0000       0.300669         8.1816 
  89   0.0000       0.320020         8.7082 
  90   0.0000       0.324426         8.8281 
  91   0.0000       0.334753         9.1091 
  92   0.0000       0.344598         9.3770 
  93   0.0000       0.354808         9.6548 
  94   0.0000       0.362045         9.8518 
  95   0.0000       0.379714        10.3326 
  96   0.0000       0.385027        10.4771 
  97   0.0000       0.388254        10.5649 
  98   0.0000       0.394080        10.7235 
  99   0.0000       0.394596        10.7375 
 100   0.0000       0.410541        11.1714 
 101   0.0000       0.414331        11.2745 
 102   0.0000       0.420210        11.4345 
 103   0.0000       0.426386        11.6026 
 104   0.0000       0.432151        11.7594 
 105   0.0000       0.440885        11.9971 
 106   0.0000       0.446564        12.1516 
 107   0.0000       0.453422        12.3382 
 108   0.0000       0.458299        12.4709 
 109   0.0000       0.463214        12.6047 
 110   0.0000       0.469858        12.7855 
 111   0.0000       0.478954        13.0330 
 112   0.0000       0.486893        13.2490 
 113   0.0000       0.494582        13.4583 
 114   0.0000       0.495853        13.4929 
 115   0.0000       0.498661        13.5693 
 116   0.0000       0.512237        13.9387 
 117   0.0000       0.512903        13.9568 
 118   0.0000       0.519273        14.1301 
 119   0.0000       0.527614        14.3571 
 120   0.0000       0.530944        14.4477 
 121   0.0000       0.542767        14.7694 
 122   0.0000       0.549681        14.9576 
 123   0.0000       0.556540        15.1442 
 124   0.0000       0.561485        15.2788 
 125   0.0000       0.565790        15.3959 
 126   0.0000       0.571233        15.5440 
 127   0.0000       0.581009        15.8100 
 128   0.0000       0.590021        16.0553 
 129   0.0000       0.596917        16.2429 
 130   0.0000       0.600986        16.3536 
 131   0.0000       0.608036        16.5455 
 132   0.0000       0.614268        16.7151 
 133   0.0000       0.617588        16.8054 
 134   0.0000       0.628973        17.1152 
 135   0.0000       0.639683        17.4066 
 136   0.0000       0.656519        17.8648 
 137   0.0000       0.657977        17.9045 
 138   0.0000       0.675031        18.3685 
 139   0.0000       0.687976        18.7208 
 140   0.0000       0.690522        18.7901 
 141   0.0000       0.715681        19.4747 
 142   0.0000       0.737158        20.0591 
 143   0.0000       0.758111        20.6292 
 144   0.0000       0.770214        20.9586 
 145   0.0000       0.778138        21.1742 
 146   0.0000       0.780756        21.2455 
 147   0.0000       0.794942        21.6315 
 148   0.0000       0.808818        22.0090 
[...]
     71      -0.000128  -0.040595   0.000011   0.000075  -0.076198  -0.000019
     72      -0.000609   0.203004  -0.000049   0.000030   0.022360   0.000186
     73       0.001713  -0.473649   0.000144  -0.000009  -0.099612  -0.000563
     74       0.000975  -0.233566   0.000068  -0.000017  -0.034241  -0.000408
     75      -0.890196   0.002656  -0.001758   0.000245  -0.002529   0.053190
     76       0.172925  -0.000493   0.000374   0.000044   0.000427  -0.014122
     77       0.181645  -0.000516   0.000343  -0.000181   0.000426  -0.011528
     78      -0.174761   0.000927  -0.000016   0.000807  -0.000473   0.007343
     79      -0.044182   0.000278  -0.000048   0.000354  -0.000081   0.004866
     80      -0.314683   0.001431  -0.000144   0.001020  -0.000848   0.014422
                 78         79         80    
      0       0.028374   0.000580  -0.000048
      1      -0.005289  -0.000085  -0.000022
      2      -0.067316  -0.001535   0.000007
      3       0.000233   0.000312   0.000055
      4       0.000008  -0.000131   0.000025
      5       0.000070   0.000036  -0.000024
      6      -0.000495  -0.000304   0.000076
      7      -0.000141   0.000176   0.000021
      8       0.000509  -0.000987  -0.000042
      9       0.000166  -0.001229  -0.000031
     10      -0.000065  -0.000229  -0.000006
     11      -0.000700   0.000921   0.000049
     12      -0.000307   0.000023  -0.000012
     13      -0.000279  -0.000040  -0.000115
     14       0.000027  -0.000097  -0.000058
     15       0.000003   0.000168  -0.000737
     16      -0.000005   0.000069  -0.000331
     17      -0.000020  -0.000015  -0.000093
     18      -0.000323   0.000573   0.000333
     19       0.000528  -0.000321  -0.000451
     20       0.000239   0.000095  -0.000107
     21       0.000130  -0.001013   0.002748
     22       0.000086   0.000205   0.001098
     23       0.000048   0.000142   0.000343
     24      -0.000047   0.000699   0.041777
     25       0.000022   0.000265   0.043310
     26      -0.000015  -0.000088   0.012525
     27      -0.000023   0.000187  -0.000449
     28      -0.000047  -0.000153   0.000479
     29      -0.000025  -0.000080   0.000157
     30      -0.396852  -0.007479   0.000159
     31       0.057397   0.001253   0.000041
     32       0.912838   0.019985  -0.000370
     33      -0.005177  -0.000497  -0.000087
     34       0.005424   0.001087  -0.000151
     35       0.000630   0.000001   0.000082
     36       0.000685   0.000052   0.000056
     37       0.000387   0.000050   0.000034
     38      -0.000016   0.000142   0.000048
     39      -0.000388   0.038923  -0.000216
     40      -0.000322   0.020213  -0.000169
     41       0.001158  -0.058895   0.000328
     42      -0.000225  -0.002795  -0.679293
     43      -0.000238  -0.004281  -0.702310
     44       0.000033  -0.000918  -0.203720
     45       0.012173  -0.520800   0.002686
     46       0.006463  -0.283035   0.002407
     47      -0.016876   0.801556  -0.003963
     48      -0.000216   0.000018  -0.000007
     49       0.000585   0.000016  -0.000015
     50       0.001587  -0.000041  -0.000020
     51       0.000062   0.000006  -0.000004
     52      -0.000254  -0.000017   0.000005
     53      -0.000271   0.000004  -0.000009
     54       0.000571  -0.000032   0.000004
     55       0.000237   0.000028   0.000015
     56       0.000150  -0.000036   0.000003
     57       0.000237  -0.000013  -0.000016
     58       0.000757   0.000010  -0.000024
     59       0.000069   0.000012  -0.000006
     60       0.000369   0.000102   0.000010
     61       0.001378  -0.000018   0.000020
     62       0.005562   0.000049   0.000005
     63      -0.000087   0.000864  -0.000035
     64      -0.000011   0.000543  -0.000006
     65      -0.000069   0.000861  -0.000057
     66      -0.000210  -0.000559  -0.000032
     67       0.000181  -0.006303  -0.000125
     68      -0.000149   0.009446   0.000171
     69       0.000587  -0.006367   0.000144
     70       0.000053  -0.001270  -0.000016
     71      -0.000138  -0.000335  -0.000042
     72      -0.000119  -0.000149  -0.000089
     73      -0.000102   0.003825   0.000159
     74       0.000163   0.003390   0.000035
     75      -0.001125  -0.007623  -0.001214
     76      -0.000366   0.000447  -0.000197
     77       0.000618  -0.004587   0.000068
     78       0.000458   0.000572   0.000099
     79       0.000891   0.000273  -0.000117
     80      -0.000572  -0.001247   0.000162


-----------
IR SPECTRUM
-----------

 Mode   freq       eps      Int      T**2         TX        TY        TZ
       cm**-1   L/(mol*cm) km/mol    a.u.
----------------------------------------------------------------------------
  6:     42.09   0.000204    1.03  0.001512  (-0.013564 -0.017835 -0.031779)
  7:     57.93   0.000102    0.52  0.000549  ( 0.017957  0.004237 -0.014459)
  8:     66.29   0.000285    1.44  0.001344  (-0.009527  0.034639 -0.007280)
  9:     74.88   0.000146    0.74  0.000609  (-0.013542 -0.006846 -0.019456)
 10:     85.56   0.001131    5.71  0.004124  ( 0.016213 -0.060979  0.011960)
 11:     91.98   0.001593    8.05  0.005403  ( 0.001671 -0.070080  0.022114)
 12:    111.89   0.001361    6.88  0.003795  ( 0.043647 -0.035363  0.025287)
 13:    131.51   0.000801    4.05  0.001902  (-0.027920 -0.022679 -0.024656)
 14:    147.34   0.000020    0.10  0.000042  (-0.004770 -0.000629 -0.004376)
 15:    174.04   0.001532    7.74  0.002747  ( 0.034570  0.022386  0.032409)
 16:    195.63   0.001111    5.62  0.001773  (-0.038371  0.014722 -0.009160)
 17:    242.19   0.000273    1.38  0.000352  (-0.005786  0.017440 -0.003755)
 18:    271.17   0.001296    6.55  0.001491  ( 0.036072  0.009505  0.009983)
 19:    301.43   0.000566    2.86  0.000586  (-0.016054  0.014246 -0.011176)
 20:    361.46   0.001071    5.41  0.000924  (-0.018463 -0.005055 -0.023617)
 21:    383.48   0.003604   18.21  0.002932  ( 0.047590 -0.016858  0.019583)
 22:    488.50   0.014521   73.38  0.009276  ( 0.036908 -0.088797 -0.005413)
 23:    502.53   0.000822    4.15  0.000511  ( 0.020747 -0.003806 -0.008099)
 24:    513.87   0.004705   23.78  0.002857  (-0.050658 -0.013346  0.010629)
 25:    543.15   0.005633   28.47  0.003237  ( 0.007260 -0.044261 -0.035000)
 26:    553.27   0.018149   91.72  0.010236  (-0.005044 -0.053469  0.085744)
 27:    578.65   0.010135   51.22  0.005466  (-0.012049  0.072932  0.001323)
 28:    602.02   0.007337   37.08  0.003803  ( 0.056730 -0.024028  0.002723)
 29:    620.36   0.004457   22.52  0.002242  ( 0.040370  0.010971  0.022179)
 30:    640.11   0.002184   11.04  0.001065  ( 0.009845 -0.002803 -0.030982)
 31:    664.99   0.002224   11.24  0.001044  (-0.010470  0.030309  0.003903)
 32:    692.11   0.001547    7.82  0.000698  ( 0.003767  0.024699  0.008564)
 33:    766.39   0.009644   48.74  0.003927  ( 0.002603  0.032831 -0.053312)
 34:    804.35   0.002508   12.68  0.000973  (-0.011807 -0.016214 -0.023893)
 35:    855.49   0.002863   14.47  0.001044  (-0.025098 -0.019416 -0.006108)
 36:    913.93   0.001244    6.28  0.000425  ( 0.002365  0.013774 -0.015143)
 37:    933.84   0.002657   13.43  0.000888  ( 0.027201 -0.003200  0.011738)
 38:    977.65   0.011893   60.10  0.003796  (-0.061547 -0.000267 -0.002852)
 39:   1017.92   0.000673    3.40  0.000206  ( 0.004643 -0.003560 -0.013117)
 40:   1030.97   0.000971    4.91  0.000294  ( 0.002438 -0.013350 -0.010480)
 41:   1061.19   0.001555    7.86  0.000457  ( 0.001342 -0.021016  0.003700)
 42:   1085.70   0.000100    0.51  0.000029  (-0.001813 -0.000653 -0.005004)
 43:   1135.35   0.004958   25.06  0.001363  ( 0.034299  0.011982 -0.006544)
 44:   1155.27   0.000413    2.09  0.000111  ( 0.009310  0.002876  0.004065)
 45:   1170.84   0.005210   26.33  0.001389  ( 0.034551 -0.013620 -0.003066)
 46:   1193.73   0.000518    2.62  0.000135  ( 0.005548  0.008638 -0.005484)
 47:   1209.35   0.032549  164.49  0.008399  (-0.091240  0.003362  0.007936)
 48:   1221.15   0.003921   19.81  0.001002  ( 0.025856  0.018159  0.001924)
 49:   1265.12   0.005713   28.87  0.001409  (-0.033661 -0.014382 -0.008322)
 50:   1279.30   0.011628   58.76  0.002836  (-0.039704 -0.024649 -0.025544)
 51:   1294.25   0.001583    8.00  0.000382  ( 0.000690 -0.010083  0.016718)
 52:   1338.90   0.012126   61.28  0.002826  (-0.042651 -0.025286 -0.019176)
 53:   1366.54   0.003661   18.50  0.000836  (-0.015900 -0.000420 -0.024145)
 54:   1387.45   0.003515   17.76  0.000791  (-0.017779  0.003851  0.021441)
 55:   1401.93   0.007492   37.86  0.001668  ( 0.038844  0.007257  0.010299)
 56:   1448.50   0.006260   31.64  0.001349  (-0.033553  0.014912 -0.000672)
 57:   1460.33   0.003150   15.92  0.000673  ( 0.024608  0.007834  0.002482)
 58:   1473.78   0.001494    7.55  0.000316  (-0.000086  0.017709 -0.001646)
 59:   1485.88   0.013477   68.10  0.002830  ( 0.028015  0.006025  0.044824)
 60:   1489.04   0.002556   12.91  0.000536  ( 0.013355 -0.018865  0.001155)
 61:   1503.49   0.004686   23.68  0.000973  (-0.004300 -0.003819 -0.030651)
 62:   1514.03   0.002847   14.39  0.000587  (-0.013550 -0.006964 -0.018834)
 63:   1540.39   0.107722  544.38  0.021823  (-0.126713 -0.040443 -0.064276)
 64:   1587.67   0.026023  131.51  0.005115  ( 0.065556  0.006250  0.027899)
 65:   1773.27   0.061189  309.22  0.010768  ( 0.011027  0.103149  0.002627)
 66:   1779.38   0.092006  464.96  0.016136  (-0.060528  0.030349  0.107476)
 67:   1789.99   0.014681   74.19  0.002559  (-0.044471 -0.021171 -0.011557)
 68:   3059.37   0.002187   11.05  0.000223  ( 0.010989 -0.007169  0.007138)
 69:   3076.44   0.005287   26.72  0.000536  ( 0.011915  0.008667  0.017867)
 70:   3079.68   0.001432    7.24  0.000145  (-0.010713 -0.004631 -0.002988)
 71:   3089.61   0.000425    2.15  0.000043  ( 0.005134 -0.000590 -0.004024)
 72:   3146.73   0.000831    4.20  0.000082  ( 0.004789 -0.007525 -0.001692)
 73:   3152.87   0.002017   10.20  0.000200  (-0.009036  0.010715 -0.001796)
 74:   3171.72   0.000213    1.08  0.000021  (-0.000974 -0.003355  0.002954)
 75:   3182.27   0.001328    6.71  0.000130  (-0.002984  0.003319  0.010502)
 76:   3190.17   0.000964    4.87  0.000094  (-0.008688 -0.002925  0.003198)
 77:   3238.18   0.000421    2.13  0.000041  ( 0.004169  0.004819 -0.000014)
 78:   3601.91   0.021596  109.14  0.001871  ( 0.005126  0.005123  0.042644)
 79:   3656.69   0.015759   79.64  0.001345  (-0.020576 -0.017556  0.024765)
 80:   3817.99   0.024806  125.36  0.002027  (-0.037812 -0.024120 -0.003994)

* The epsilon (eps) is given for a Dirac delta lineshape.
** The dipole moment derivative (T) already includes vibrational overlap.

The first frequency considered to be a vibration is 6
The total number of vibrations considered is 75


--------------------------
THERMOCHEMISTRY AT 298.15K
--------------------------

Temperature         ... 298.15 K
Pressure            ... 1.00 atm
Total Mass          ... 201.20 AMU

Throughout the following assumptions are being made:
  (1) The electronic state is orbitally nondegenerate
      but the spin degeneracy is treated
  (2) There are no thermally accessible electronically excited states
  (3) Hindered rotations indicated by low frequency modes are not
      treated as such but are treated as vibrations and this may
      cause some error
  (4) All equations used are the standard statistical mechanics
      equations for an ideal gas
  (5) All vibrations are strictly harmonic

freq.      42.09  E(vib)   ...       0.53 
freq.      57.93  E(vib)   ...       0.51 
freq.      66.29  E(vib)   ...       0.50 
freq.      74.88  E(vib)   ...       0.49 
freq.      85.56  E(vib)   ...       0.48 
freq.      91.98  E(vib)   ...       0.47 
freq.     111.89  E(vib)   ...       0.45 
freq.     131.51  E(vib)   ...       0.42 
freq.     147.34  E(vib)   ...       0.41 
freq.     174.04  E(vib)   ...       0.38 
freq.     195.63  E(vib)   ...       0.36 
freq.     242.19  E(vib)   ...       0.31 
freq.     271.17  E(vib)   ...       0.29 
freq.     301.43  E(vib)   ...       0.26 
freq.     361.46  E(vib)   ...       0.22 
freq.     383.48  E(vib)   ...       0.20 
freq.     488.50  E(vib)   ...       0.15 
freq.     502.53  E(vib)   ...       0.14 
freq.     513.87  E(vib)   ...       0.13 
freq.     543.15  E(vib)   ...       0.12 
freq.     553.27  E(vib)   ...       0.12 
freq.     578.65  E(vib)   ...       0.11 
freq.     602.02  E(vib)   ...       0.10 
freq.     620.36  E(vib)   ...       0.09 
freq.     640.11  E(vib)   ...       0.09 
freq.     664.99  E(vib)   ...       0.08 
freq.     692.11  E(vib)   ...       0.07 
freq.     766.39  E(vib)   ...       0.06 
freq.     804.35  E(vib)   ...       0.05 
freq.     855.49  E(vib)   ...       0.04 
freq.     913.93  E(vib)   ...       0.03 
freq.     933.84  E(vib)   ...       0.03 
freq.     977.65  E(vib)   ...       0.03 
freq.    1017.92  E(vib)   ...       0.02 
freq.    1030.97  E(vib)   ...       0.02 
freq.    1061.19  E(vib)   ...       0.02 
freq.    1085.70  E(vib)   ...       0.02 
freq.    1135.35  E(vib)   ...       0.01 
freq.    1155.27  E(vib)   ...       0.01 
freq.    1170.84  E(vib)   ...       0.01 
freq.    1193.73  E(vib)   ...       0.01 
freq.    1209.35  E(vib)   ...       0.01 
freq.    1221.15  E(vib)   ...       0.01 
freq.    1265.12  E(vib)   ...       0.01 
freq.    1279.30  E(vib)   ...       0.01 
freq.    1294.25  E(vib)   ...       0.01 
freq.    1338.90  E(vib)   ...       0.01 
freq.    1366.54  E(vib)   ...       0.01 
freq.    1387.45  E(vib)   ...       0.00 
freq.    1401.93  E(vib)   ...       0.00 
freq.    1448.50  E(vib)   ...       0.00 
freq.    1460.33  E(vib)   ...       0.00 
freq.    1473.78  E(vib)   ...       0.00 
freq.    1485.88  E(vib)   ...       0.00 
freq.    1489.04  E(vib)   ...       0.00 
freq.    1503.49  E(vib)   ...       0.00 
freq.    1514.03  E(vib)   ...       0.00 
freq.    1540.39  E(vib)   ...       0.00 
freq.    1587.67  E(vib)   ...       0.00 
freq.    1773.27  E(vib)   ...       0.00 
freq.    1779.38  E(vib)   ...       0.00 
freq.    1789.99  E(vib)   ...       0.00 
freq.    3059.37  E(vib)   ...       0.00 
freq.    3076.44  E(vib)   ...       0.00 
freq.    3079.68  E(vib)   ...       0.00 
freq.    3089.61  E(vib)   ...       0.00 
freq.    3146.73  E(vib)   ...       0.00 
freq.    3152.87  E(vib)   ...       0.00 
freq.    3171.72  E(vib)   ...       0.00 
freq.    3182.27  E(vib)   ...       0.00 
freq.    3190.17  E(vib)   ...       0.00 
freq.    3238.18  E(vib)   ...       0.00 
freq.    3601.91  E(vib)   ...       0.00 
freq.    3656.69  E(vib)   ...       0.00 
freq.    3817.99  E(vib)   ...       0.00 

------------
INNER ENERGY
------------

The inner energy is: U= E(el) + E(ZPE) + E(vib) + E(rot) + E(trans)
    E(el)   - is the total energy from the electronic structure calculation
              = E(kin-el) + E(nuc-el) + E(el-el) + E(nuc-nuc)
    E(ZPE)  - the the zero temperature vibrational energy from the frequency calculation
    E(vib)  - the the finite temperature correction to E(ZPE) due to population
              of excited vibrational states
    E(rot)  - is the rotational thermal energy
    E(trans)- is the translational thermal energy

Summary of contributions to the inner energy U:
Electronic energy                ...   -723.08398628 Eh
Zero point energy                ...      0.21942041 Eh     137.69 kcal/mol
Thermal vibrational correction   ...      0.01265521 Eh       7.94 kcal/mol
Thermal rotational correction    ...      0.00141627 Eh       0.89 kcal/mol
Thermal translational correction ...      0.00141627 Eh       0.89 kcal/mol
-----------------------------------------------------------------------
Total thermal energy                   -722.84907811 Eh


Summary of corrections to the electronic energy:
(perhaps to be used in another calculation)
Total thermal correction                  0.01548775 Eh       9.72 kcal/mol
Non-thermal (ZPE) correction              0.21942041 Eh     137.69 kcal/mol
-----------------------------------------------------------------------
Total correction                          0.23490816 Eh     147.41 kcal/mol


--------
ENTHALPY
--------

The enthalpy is H = U + kB*T
                kB is Boltzmann's constant
Total free energy                 ...   -722.84907811 Eh 
Thermal Enthalpy correction       ...      0.00094421 Eh       0.59 kcal/mol
-----------------------------------------------------------------------
Total Enthalpy                    ...   -722.84813390 Eh


Note: Only C1 symmetry has been detected, increase convergence thresholds 
      if your molecule has a higher symmetry. Symmetry factor of 1.0 is   
      used for the rotational entropy correction. 
 

Note: Rotational entropy computed according to Herzberg 
Infrared and Raman Spectra, Chapter V,1, Van Nostrand Reinhold, 1945 
Point Group:  C1, Symmetry Number:   1  
Rotational constants in cm-1:     0.030529     0.014604     0.011488 

Vibrational entropy computed according to the QRRHO of S. Grimme
Chem.Eur.J. 2012 18 9955


-------
ENTROPY
-------

The entropy contributions are T*S = T*(S(el)+S(vib)+S(rot)+S(trans))
     S(el)   - electronic entropy
     S(vib)  - vibrational entropy
     S(rot)  - rotational entropy
     S(trans)- translational entropy
The entropies will be listed as multiplied by the temperature to get
units of energy

Electronic entropy                ...      0.00065446 Eh      0.41 kcal/mol
Vibrational entropy               ...      0.02275494 Eh     14.28 kcal/mol
Rotational entropy                ...      0.01526182 Eh      9.58 kcal/mol
Translational entropy             ...      0.01986141 Eh     12.46 kcal/mol
-----------------------------------------------------------------------
Final entropy term                ...      0.05853263 Eh     36.73 kcal/mol

In case the symmetry of your molecule has not been determined correctly
or in case you have a reason to use a different symmetry number we print 
out the resulting rotational entropy values for sn=1,12 :
 --------------------------------------------------------
|  sn= 1 | S(rot)=       0.01526182 Eh      9.58 kcal/mol|
|  sn= 2 | S(rot)=       0.01460736 Eh      9.17 kcal/mol|
|  sn= 3 | S(rot)=       0.01422453 Eh      8.93 kcal/mol|
|  sn= 4 | S(rot)=       0.01395291 Eh      8.76 kcal/mol|
|  sn= 5 | S(rot)=       0.01374222 Eh      8.62 kcal/mol|
|  sn= 6 | S(rot)=       0.01357007 Eh      8.52 kcal/mol|
|  sn= 7 | S(rot)=       0.01342453 Eh      8.42 kcal/mol|
|  sn= 8 | S(rot)=       0.01329845 Eh      8.34 kcal/mol|
|  sn= 9 | S(rot)=       0.01318724 Eh      8.28 kcal/mol|
|  sn=10 | S(rot)=       0.01308776 Eh      8.21 kcal/mol|
|  sn=11 | S(rot)=       0.01299777 Eh      8.16 kcal/mol|
|  sn=12 | S(rot)=       0.01291562 Eh      8.10 kcal/mol|
 --------------------------------------------------------


-------------------
GIBBS FREE ENERGY
-------------------

The Gibbs free energy is G = H - T*S

Total enthalpy                    ...   -722.84813390 Eh 
Total entropy correction          ...     -0.05853263 Eh    -36.73 kcal/mol
-----------------------------------------------------------------------
Final Gibbs free energy         ...   -722.90666653 Eh

For completeness - the Gibbs free energy minus the electronic energy
G-E(el)                           ...      0.17731974 Eh    111.27 kcal/mol


Timings for individual modules:

Sum of individual times         ...     1708.533 sec (=  28.476 min)
GTO integral calculation        ...       50.830 sec (=   0.847 min)   3.0 %
SCF iterations                  ...      792.776 sec (=  13.213 min)  46.4 %
SCF Gradient evaluation         ...      200.182 sec (=   3.336 min)  11.7 %
Geometry relaxation             ...        0.620 sec (=   0.010 min)   0.0 %
Analytical frequency calculation...      664.126 sec (=  11.069 min)  38.9 %
                             ****ORCA TERMINATED NORMALLY****
TOTAL RUN TIME: 0 days 0 hours 29 minutes 12 seconds 2 msec
