
                                 *****************
                                 * O   R   C   A *
                                 *****************

                                            #,                                       
                                            ###                                      
                                            ####                                     
                                            #####                                    
                                            ######                                   
                                           ########,                                 
                                     ,,################,,,,,                         
                               ,,#################################,,                 
                          ,,##########################################,,             
                       ,#########################################, ''#####,          
                    ,#############################################,,   '####,        
                  ,##################################################,,,,####,       
                ,###########''''           ''''###############################       
              ,#####''   ,,,,##########,,,,          '''####'''          '####       
            ,##' ,,,,###########################,,,                        '##       
           ' ,,###''''                  '''############,,,                           
         ,,##''                                '''############,,,,        ,,,,,,###''
      ,#''                                            '''#######################'''  
     '                                                          ''''####''''         
             ,#######,   #######,   ,#######,      ##                                
            ,#'     '#,  ##    ##  ,#'     '#,    #''#        ######   ,####,        
            ##       ##  ##   ,#'  ##            #'  '#       #        #'  '#        
            ##       ##  #######   ##           ,######,      #####,   #    #        
            '#,     ,#'  ##    ##  '#,     ,#' ,#      #,         ##   #,  ,#        
             '#######'   ##     ##  '#######'  #'      '#     #####' # '####'        



                  #######################################################
                  #                        -***-                        #
                  #          Department of theory and spectroscopy      #
                  #    Directorship and core code : Frank Neese         #
                  #        Max Planck Institute fuer Kohlenforschung    #
                  #                Kaiser Wilhelm Platz 1               #
                  #                 D-45470 Muelheim/Ruhr               #
                  #                      Germany                        #
                  #                                                     #
                  #                  All rights reserved                #
                  #                        -***-                        #
                  #######################################################


                         Program Version 5.0.4 -  RELEASE  -


 With contributions from (in alphabetic order):
   Daniel Aravena         : Magnetic Suceptibility
   Michael Atanasov       : Ab Initio Ligand Field Theory (pilot matlab implementation)
   Alexander A. Auer      : GIAO ZORA, VPT2 properties, NMR spectrum
   Ute Becker             : Parallelization
   Giovanni Bistoni       : ED, misc. LED, open-shell LED, HFLD
   Martin Brehm           : Molecular dynamics
   Dmytro Bykov           : SCF Hessian
   Vijay G. Chilkuri      : MRCI spin determinant printing, contributions to CSF-ICE
   Dipayan Datta          : RHF DLPNO-CCSD density
   Achintya Kumar Dutta   : EOM-CC, STEOM-CC
   Dmitry Ganyushin       : Spin-Orbit,Spin-Spin,Magnetic field MRCI
   Miquel Garcia          : C-PCM and meta-GGA Hessian, CC/C-PCM, Gaussian charge scheme
   Yang Guo               : DLPNO-NEVPT2, F12-NEVPT2, CIM, IAO-localization
   Andreas Hansen         : Spin unrestricted coupled pair/coupled cluster methods
   Benjamin Helmich-Paris : MC-RPA, TRAH-SCF, COSX integrals
   Lee Huntington         : MR-EOM, pCC
   Robert Izsak           : Overlap fitted RIJCOSX, COSX-SCS-MP3, EOM
   Marcus Kettner         : VPT2
   Christian Kollmar      : KDIIS, OOCD, Brueckner-CCSD(T), CCSD density, CASPT2, CASPT2-K
   Simone Kossmann        : Meta GGA functionals, TD-DFT gradient, OOMP2, MP2 Hessian
   Martin Krupicka        : Initial AUTO-CI
   Lucas Lang             : DCDCAS
   Marvin Lechner         : AUTO-CI (C++ implementation), FIC-MRCC
   Dagmar Lenk            : GEPOL surface, SMD
   Dimitrios Liakos       : Extrapolation schemes; Compound Job, initial MDCI parallelization
   Dimitrios Manganas     : Further ROCIS development; embedding schemes
   Dimitrios Pantazis     : SARC Basis sets
   Anastasios Papadopoulos: AUTO-CI, single reference methods and gradients
   Taras Petrenko         : DFT Hessian,TD-DFT gradient, ASA, ECA, R-Raman, ABS, FL, XAS/XES, NRVS
   Peter Pinski           : DLPNO-MP2, DLPNO-MP2 Gradient
   Christoph Reimann      : Effective Core Potentials
   Marius Retegan         : Local ZFS, SOC
   Christoph Riplinger    : Optimizer, TS searches, QM/MM, DLPNO-CCSD(T), (RO)-DLPNO pert. Triples
   Tobias Risthaus        : Range-separated hybrids, TD-DFT gradient, RPA, STAB
   Michael Roemelt        : Original ROCIS implementation
   Masaaki Saitow         : Open-shell DLPNO-CCSD energy and density
   Barbara Sandhoefer     : DKH picture change effects
   Avijit Sen             : IP-ROCIS
   Kantharuban Sivalingam : CASSCF convergence, NEVPT2, FIC-MRCI
   Bernardo de Souza      : ESD, SOC TD-DFT
   Georgi Stoychev        : AutoAux, RI-MP2 NMR, DLPNO-MP2 response
   Willem Van den Heuvel  : Paramagnetic NMR
   Boris Wezisla          : Elementary symmetry handling
   Frank Wennmohs         : Technical directorship


 We gratefully acknowledge several colleagues who have allowed us to
 interface, adapt or use parts of their codes:
   Stefan Grimme, W. Hujo, H. Kruse, P. Pracht,  : VdW corrections, initial TS optimization,
                  C. Bannwarth, S. Ehlert          DFT functionals, gCP, sTDA/sTD-DF
   Ed Valeev, F. Pavosevic, A. Kumar             : LibInt (2-el integral package), F12 methods
   Garnet Chan, S. Sharma, J. Yang, R. Olivares  : DMRG
   Ulf Ekstrom                                   : XCFun DFT Library
   Mihaly Kallay                                 : mrcc  (arbitrary order and MRCC methods)
   Jiri Pittner, Ondrej Demel                    : Mk-CCSD
   Frank Weinhold                                : gennbo (NPA and NBO analysis)
   Christopher J. Cramer and Donald G. Truhlar   : smd solvation model
   Lars Goerigk                                  : TD-DFT with DH, B97 family of functionals
   V. Asgeirsson, H. Jonsson                     : NEB implementation
   FAccTs GmbH                                   : IRC, NEB, NEB-TS, DLPNO-Multilevel, CI-OPT
                                                   MM, QMMM, 2- and 3-layer-ONIOM, Crystal-QMMM,
                                                   LR-CPCM, SF, NACMEs, symmetry and pop. for TD-DFT,
                                                   nearIR, NL-DFT gradient (VV10), updates on ESD,
                                                   ML-optimized integration grids
   S Lehtola, MJT Oliveira, MAL Marques          : LibXC Library
   Liviu Ungur et al                             : ANISO software


 Your calculation uses the libint2 library for the computation of 2-el integrals
 For citations please refer to: http://libint.valeyev.net

 Your ORCA version has been built with support for libXC version: 5.1.0
 For citations please refer to: https://tddft.org/programs/libxc/

 This ORCA versions uses:
   CBLAS   interface :  Fast vector & matrix operations
   LAPACKE interface :  Fast linear algebra routines
   SCALAPACK package :  Parallel linear algebra routines
   Shared memory     :  Shared parallel matrices
   BLAS/LAPACK       :  OpenBLAS 0.3.15  USE64BITINT DYNAMIC_ARCH NO_AFFINITY Zen SINGLE_THREADED
        Core in use  :  Zen
   Copyright (c) 2011-2014, The OpenBLAS Project




***************************************
The coordinates will be read from file: model.xyz
***************************************


================================================================================

----- Orbital basis set information -----
Your calculation utilizes the basis: EPR-II
   V. Barone, in Recent Advances in Density Functional Methods, Part 1 (ed. D. P. Chong), World Scientific, Singapore, 1995, p. 287.

----- AuxJ basis set information -----
Your calculation utilizes the auxiliary basis: def2/J
   F. Weigend, Phys. Chem. Chem. Phys. 8, 1057 (2006).

================================================================================
                                        WARNINGS
                       Please study these warnings very carefully!
================================================================================


WARNING: your system is open-shell and RHF/RKS was chosen
  ===> : WILL SWITCH to UHF/UKS


WARNING: Geometry Optimization
  ===> : Switching off AutoStart
         For restart on a previous wavefunction, please use MOREAD

INFO   : the flag for use of the SHARK integral package has been found!

================================================================================
                                       INPUT FILE
================================================================================
NAME = opt.inp
|  1> ! B3LYP EPR-II OPT
|  2> %pal nprocs 16 end
|  3> *XYZFile 0 2 model.xyz
|  4> 
|  5>                          ****END OF INPUT****
================================================================================

                       *****************************
                       * Geometry Optimization Run *
                       *****************************

Geometry optimization settings:
Update method            Update   .... BFGS
Choice of coordinates    CoordSys .... Z-matrix Internals
Initial Hessian          InHess   .... Almoef's Model

Convergence Tolerances:
Energy Change            TolE     ....  5.0000e-06 Eh
Max. Gradient            TolMAXG  ....  3.0000e-04 Eh/bohr
RMS Gradient             TolRMSG  ....  1.0000e-04 Eh/bohr
Max. Displacement        TolMAXD  ....  4.0000e-03 bohr
RMS Displacement         TolRMSD  ....  2.0000e-03 bohr
Strict Convergence                ....  False
------------------------------------------------------------------------------
                        ORCA OPTIMIZATION COORDINATE SETUP
------------------------------------------------------------------------------

The optimization will be done in new redundant internal coordinates
Making redundant internal coordinates   ...  (new redundants) done
Evaluating the initial hessian          ...  (Almloef) done
Evaluating the coordinates              ...  done
Calculating the B-matrix                .... done
Calculating the G-matrix                .... done
Diagonalizing the G-matrix              .... done
Small eigenvalue found = 9.209e-03
Small eigenvalue found = 1.137e-02
Small eigenvalue found = 1.286e-02
The first mode is                       ....   47
The number of degrees of freedom        ....   75

    -----------------------------------------------------------------
                    Redundant Internal Coordinates


    -----------------------------------------------------------------
         Definition                    Initial Value    Approx d2E/dq
    -----------------------------------------------------------------
      1. B(C   1,N   0)                  1.4408         0.464299   
      2. B(C   2,C   1)                  1.5405         0.359403   
      3. B(O   3,C   2)                  1.2166         1.058114   
      4. B(C   4,C   1)                  1.5551         0.340699   
      5. B(C   5,C   4)                  1.4917         0.430019   
      6. B(H   6,C   5)                  1.0870         0.364058   
      7. B(C   7,C   5)                  1.4545         0.493008   
      8. B(O   8,C   7)                  1.3510         0.645895   
      9. B(O   9,C   7)                  1.2113         1.078703   
     10. B(H  10,N   0)                  1.0119         0.429620   
     11. B(H  11,C   1)                  1.0987         0.348826   
     12. B(C  12,N   0)                  1.3594         0.626127   
     13. B(N  13,C   2)                  1.3488         0.650965   
     14. B(H  14,O   8)                  0.9644         0.511647   
     15. B(H  15,N  13)                  1.0072         0.437127   
     16. B(O  16,C  12)                  1.2166         1.057978   
     17. B(C  17,C  12)                  1.5211         0.385964   
     18. B(H  18,C  17)                  1.0953         0.353205   
     19. B(H  19,C  17)                  1.0963         0.351833   
     20. B(H  20,C  17)                  1.0948         0.353826   
     21. B(C  21,N  13)                  1.4521         0.445419   
     22. B(H  22,C  21)                  1.0961         0.352165   
     23. B(H  23,C  21)                  1.0935         0.355439   
     24. B(H  24,C  21)                  1.0967         0.351298   
     25. B(H  25,C   4)                  1.0966         0.351512   
     26. B(H  26,C   4)                  1.1034         0.342816   
     27. A(C   1,N   0,C  12)          121.3815         0.407614   
     28. A(H  10,N   0,C  12)          121.9171         0.358832   
     29. A(C   1,N   0,H  10)          115.7225         0.341174   
     30. A(C   2,C   1,C   4)          111.4109         0.355349   
     31. A(N   0,C   1,C   4)          112.1893         0.368921   
     32. A(N   0,C   1,H  11)          108.8600         0.332395   
     33. A(N   0,C   1,C   2)          107.3367         0.372327   
     34. A(C   4,C   1,H  11)          107.2025         0.317810   
     35. A(C   2,C   1,H  11)          109.8179         0.320595   
     36. A(C   1,C   2,N  13)          115.6285         0.394848   
     37. A(O   3,C   2,N  13)          122.7391         0.476310   
     38. A(C   1,C   2,O   3)          121.6244         0.430395   
     39. A(H  25,C   4,H  26)          106.1803         0.287517   
     40. A(C   1,C   4,C   5)          113.2201         0.366386   
     41. A(C   1,C   4,H  26)          105.9397         0.316912   
     42. A(C   1,C   4,H  25)          110.7302         0.318208   
     43. A(C   5,C   4,H  25)          110.3709         0.330610   
     44. A(C   5,C   4,H  26)          110.0742         0.329244   
     45. A(C   4,C   5,C   7)          124.2304         0.390583   
     46. A(C   4,C   5,H   6)          120.6165         0.332536   
     47. A(H   6,C   5,C   7)          115.1123         0.340188   
     48. A(O   8,C   7,O   9)          121.7931         0.477315   
     49. A(C   5,C   7,O   9)          124.3978         0.457316   
     50. A(C   5,C   7,O   8)          113.8091         0.416949   
     51. A(C   7,O   8,H  14)          106.9723         0.371699   
     52. A(O  16,C  12,C  17)          122.1417         0.435939   
     53. A(N   0,C  12,C  17)          116.0115         0.397099   
     54. A(N   0,C  12,O  16)          121.8468         0.472903   
     55. A(C   2,N  13,C  21)          121.2687         0.407426   
     56. A(C   2,N  13,H  15)          119.4219         0.362287   
     57. A(H  15,N  13,C  21)          119.2846         0.339797   
     58. A(H  19,C  17,H  20)          109.3934         0.288984   
     59. A(H  18,C  17,H  20)          109.6914         0.289160   
     60. A(C  12,C  17,H  20)          113.1609         0.325122   
     61. A(H  18,C  17,H  19)          107.7518         0.288905   
     62. A(C  12,C  17,H  19)          108.2755         0.324820   
     63. A(C  12,C  17,H  18)          108.4163         0.325028   
     64. A(H  23,C  21,H  24)          109.3803         0.289121   
     65. A(H  22,C  21,H  24)          108.2328         0.288702   
     66. A(N  13,C  21,H  24)          110.7130         0.330505   
     67. A(H  22,C  21,H  23)          109.3176         0.289233   
     68. A(N  13,C  21,H  23)          108.7827         0.331146   
     69. A(N  13,C  21,H  22)          110.3946         0.330640   
     70. D(C   4,C   1,N   0,C  12)     77.2262         0.018409   
     71. D(C   2,C   1,N   0,C  12)   -160.0669         0.018409   
     72. D(C   2,C   1,N   0,H  10)      8.8190         0.018409   
     73. D(H  11,C   1,N   0,C  12)    -41.2539         0.018409   
     74. D(C   4,C   1,N   0,H  10)   -113.8879         0.018409   
     75. D(H  11,C   1,N   0,H  10)    127.6320         0.018409   
     76. D(N  13,C   2,C   1,H  11)     51.8657         0.009716   
     77. D(O   3,C   2,C   1,N   0)    -10.9402         0.009716   
     78. D(O   3,C   2,C   1,H  11)   -129.1341         0.009716   
     79. D(N  13,C   2,C   1,C   4)    -66.7531         0.009716   
     80. D(N  13,C   2,C   1,N   0)    170.0596         0.009716   
     81. D(O   3,C   2,C   1,C   4)    112.2471         0.009716   
     82. D(C   5,C   4,C   1,H  11)   -176.5368         0.009395   
     83. D(C   5,C   4,C   1,C   2)    -56.3637         0.009395   
     84. D(C   5,C   4,C   1,N   0)     64.0083         0.009395   
     85. D(H  26,C   4,C   1,H  11)     62.7357         0.009395   
     86. D(H  26,C   4,C   1,C   2)   -177.0911         0.009395   
     87. D(H  26,C   4,C   1,N   0)    -56.7191         0.009395   
     88. D(H  25,C   4,C   1,H  11)    -51.9700         0.009395   
     89. D(H  25,C   4,C   1,C   2)     68.2032         0.009395   
     90. D(H  25,C   4,C   1,N   0)   -171.4248         0.009395   
     91. D(C   7,C   5,C   4,H  25)     24.7525         0.013657   
     92. D(C   7,C   5,C   4,C   1)    149.5142         0.013657   
     93. D(H   6,C   5,C   4,H  26)     85.4321         0.013657   
     94. D(H   6,C   5,C   4,H  25)   -157.6849         0.013657   
     95. D(C   7,C   5,C   4,H  26)    -92.1305         0.013657   
     96. D(H   6,C   5,C   4,C   1)    -32.9232         0.013657   
     97. D(O   9,C   7,C   5,H   6)     -0.0932         0.016551   
     98. D(O   9,C   7,C   5,C   4)    177.5903         0.016551   
     99. D(O   8,C   7,C   5,H   6)    179.8704         0.016551   
    100. D(O   8,C   7,C   5,C   4)     -2.4461         0.016551   
    101. D(H  14,O   8,C   7,O   9)     -0.6402         0.030800   
    102. D(H  14,O   8,C   7,C   5)    179.3951         0.030800   
    103. D(C  17,C  12,N   0,H  10)      7.2530         0.031794   
    104. D(C  17,C  12,N   0,C   1)    175.4473         0.031794   
    105. D(O  16,C  12,N   0,H  10)   -172.8129         0.031794   
    106. D(O  16,C  12,N   0,C   1)     -4.6186         0.031794   
    107. D(C  21,N  13,C   2,O   3)     -1.7137         0.034592   
    108. D(C  21,N  13,C   2,C   1)    177.2742         0.034592   
    109. D(H  15,N  13,C   2,O   3)   -179.8902         0.034592   
    110. D(H  15,N  13,C   2,C   1)     -0.9023         0.034592   
    111. D(H  20,C  17,C  12,N   0)      5.4788         0.011096   
    112. D(H  19,C  17,C  12,O  16)     64.1039         0.011096   
    113. D(H  19,C  17,C  12,N   0)   -115.9622         0.011096   
    114. D(H  18,C  17,C  12,O  16)    -52.5362         0.011096   
    115. D(H  20,C  17,C  12,O  16)   -174.4551         0.011096   
    116. D(H  18,C  17,C  12,N   0)    127.3977         0.011096   
    117. D(H  24,C  21,N  13,H  15)    115.8242         0.016921   
    118. D(H  24,C  21,N  13,C   2)    -62.3547         0.016921   
    119. D(H  23,C  21,N  13,H  15)     -4.3956         0.016921   
    120. D(H  23,C  21,N  13,C   2)    177.4254         0.016921   
    121. D(H  22,C  21,N  13,H  15)   -124.3441         0.016921   
    122. D(H  22,C  21,N  13,C   2)     57.4769         0.016921   
    -----------------------------------------------------------------

Number of atoms                         .... 27
Number of degrees of freedom            .... 122

         *************************************************************
         *                GEOMETRY OPTIMIZATION CYCLE   1            *
         *************************************************************
---------------------------------
CARTESIAN COORDINATES (ANGSTROEM)
---------------------------------
  N     -4.509479   -4.704327   -0.778492
  C     -3.068796   -4.724073   -0.778146
  C     -2.608014   -4.575762    0.684354
  O     -3.384968   -4.273682    1.570465
  C     -2.465941   -3.609143   -1.679122
  C     -2.781372   -2.231838   -1.200902
  H     -3.724060   -2.021272   -0.702280
  C     -1.915506   -1.079593   -1.396195
  O     -0.750744   -1.371372   -2.015296
  O     -2.187223    0.047772   -1.046076
  H     -4.945645   -4.464611    0.102608
  H     -2.726721   -5.687443   -1.180579
  C     -5.224022   -5.202762   -1.822051
  N     -1.293460   -4.781542    0.905595
  H     -0.262939   -0.543966   -2.101801
  H     -0.694582   -5.028324    0.134255
  O     -4.684163   -5.610242   -2.833337
  C     -6.735179   -5.218259   -1.648936
  H     -7.187607   -4.720634   -2.513389
  H     -7.070727   -6.261966   -1.650622
  H     -7.067975   -4.730905   -0.726826
  C     -0.716730   -4.616053    2.227958
  H     -1.221349   -5.269132    2.949212
  H      0.344371   -4.876854    2.184461
  H     -0.823018   -3.579642    2.570575
  H     -1.381982   -3.738112   -1.783370
  H     -2.892558   -3.768043   -2.684217

----------------------------
CARTESIAN COORDINATES (A.U.)
----------------------------
  NO LB      ZA    FRAG     MASS         X           Y           Z
   0 N     7.0000    0    14.007   -8.521680   -8.889890   -1.471137
   1 C     6.0000    0    12.011   -5.799184   -8.927204   -1.470483
   2 C     6.0000    0    12.011   -4.928433   -8.646937    1.293243
   3 O     8.0000    0    15.999   -6.396663   -8.076088    2.967749
   4 C     6.0000    0    12.011   -4.659953   -6.820292   -3.173080
   5 C     6.0000    0    12.011   -5.256031   -4.217563   -2.269375
   6 H     1.0000    0     1.008   -7.037453   -3.819651   -1.327117
   7 C     6.0000    0    12.011   -3.619782   -2.040135   -2.638426
   8 O     8.0000    0    15.999   -1.418701   -2.591518   -3.808357
   9 O     8.0000    0    15.999   -4.133253    0.090277   -1.976797
  10 H     1.0000    0     1.008   -9.345915   -8.436893    0.193901
  11 H     1.0000    0     1.008   -5.152756  -10.747710   -2.230972
  12 C     6.0000    0    12.011   -9.871971   -9.831795   -3.443178
  13 N     7.0000    0    14.007   -2.444285   -9.035805    1.711326
  14 H     1.0000    0     1.008   -0.496883   -1.027947   -3.971829
  15 H     1.0000    0     1.008   -1.312571   -9.502156    0.253705
  16 O     8.0000    0    15.999   -8.851784  -10.601821   -5.354232
  17 C     6.0000    0    12.011  -12.727643   -9.861080   -3.116037
  18 H     1.0000    0     1.008  -13.582609   -8.920705   -4.749616
  19 H     1.0000    0     1.008  -13.361737  -11.833402   -3.119224
  20 H     1.0000    0     1.008  -13.356537   -8.940114   -1.373503
  21 C     6.0000    0    12.011   -1.354423   -8.723076    4.210231
  22 H     1.0000    0     1.008   -2.308016   -9.957217    5.573203
  23 H     1.0000    0     1.008    0.650767   -9.215918    4.128033
  24 H     1.0000    0     1.008   -1.555279   -6.764544    4.857683
  25 H     1.0000    0     1.008   -2.611568   -7.064009   -3.370080
  26 H     1.0000    0     1.008   -5.466143   -7.120569   -5.072435

--------------------------------
INTERNAL COORDINATES (ANGSTROEM)
--------------------------------
 N      0   0   0     0.000000000000     0.00000000     0.00000000
 C      1   0   0     1.440818414302     0.00000000     0.00000000
 C      2   1   0     1.540527238138   107.33673783     0.00000000
 O      3   2   1     1.216594744562   121.62441230   349.05976804
 C      2   1   3     1.555075350736   112.18934253   237.29311497
 C      5   2   1     1.491696983881   113.22005531    64.00830361
 H      6   5   2     1.087024560504   120.61649010   327.07681673
 C      6   5   2     1.454486844790   124.23042296   149.51418369
 O      8   6   5     1.350959736135   113.80907040   357.55394660
 O      8   6   5     1.211348809631   124.39783901   177.59033412
 H      1   2   3     1.011949615253   115.72247262     8.81898214
 H      2   1   3     1.098658716548   108.85997714   118.81299524
 C      1   2   3     1.359420842725   121.38145774   199.93310159
 N      3   2   1     1.348831151716   115.62849452   170.05959078
 H      9   8   6     0.964384960655   106.97229552   179.39511715
 H     14   3   2     1.007234347258   119.42187099   359.09767954
 O     13   1   2     1.216629809225   121.84679397   355.38137934
 C     13   1   2     1.521118893483   116.01147548   175.44727024
 H     18  13   1     1.095263055903   108.41626339   127.39770450
 H     18  13   1     1.096321866040   108.27548581   244.03776101
 H     18  13   1     1.094784147387   113.16093023     5.47884108
 C     14   3   2     1.452118842389   121.26870984   177.27420584
 H     22  14   3     1.096065708525   110.39458035    57.47690308
 H     22  14   3     1.093546702556   108.78265280   177.42537057
 H     22  14   3     1.096736279197   110.71299724   297.64525062
 H      5   2   1     1.096570366944   110.73019136   188.57518076
 H      5   2   1     1.103389532312   105.93965275   303.28088179

---------------------------
INTERNAL COORDINATES (A.U.)
---------------------------
 N      0   0   0     0.000000000000     0.00000000     0.00000000
 C      1   0   0     2.722752211741     0.00000000     0.00000000
 C      2   1   0     2.911174581926   107.33673783     0.00000000
 O      3   2   1     2.299030883189   121.62441230   349.05976804
 C      2   1   3     2.938666530503   112.18934253   237.29311497
 C      5   2   1     2.818898774331   113.22005531    64.00830361
 H      6   5   2     2.054178720199   120.61649010   327.07681673
 C      6   5   2     2.748581802045   124.23042296   149.51418369
 O      8   6   5     2.552943919250   113.80907040   357.55394660
 O      8   6   5     2.289117502854   124.39783901   177.59033412
 H      1   2   3     1.912307634155   115.72247262     8.81898214
 H      2   1   3     2.076164088922   108.85997714   118.81299524
 C      1   2   3     2.568933093494   121.38145774   199.93310159
 N      3   2   1     2.548921477645   115.62849452   170.05959078
 H      9   8   6     1.822423463310   106.97229552   179.39511715
 H     14   3   2     1.903397068997   119.42187099   359.09767954
 O     13   1   2     2.299097145800   121.84679397   355.38137934
 C     13   1   2     2.874498125816   116.01147548   175.44727024
 H     18  13   1     2.069747220258   108.41626339   127.39770450
 H     18  13   1     2.071748081446   108.27548581   244.03776101
 H     18  13   1     2.068842214319   113.16093023     5.47884108
 C     14   3   2     2.744106926022   121.26870984   177.27420584
 H     22  14   3     2.071264013895   110.39458035    57.47690308
 H     22  14   3     2.066503782483   108.78265280   177.42537057
 H     22  14   3     2.072531208817   110.71299724   297.64525062
 H      5   2   1     2.072217680098   110.73019136   188.57518076
 H      5   2   1     2.085104035104   105.93965275   303.28088179

---------------------
BASIS SET INFORMATION
---------------------
There are 4 groups of distinct atoms

 Group   1 Type N   : 10s5p1d contracted to 6s2p1d pattern {511111/41/1}
 Group   2 Type C   : 10s5p1d contracted to 6s2p1d pattern {511111/41/1}
 Group   3 Type O   : 10s5p1d contracted to 6s2p1d pattern {511111/41/1}
 Group   4 Type H   : 6s1p contracted to 4s1p pattern {3111/1}

Atom   0N    basis set group =>   1
Atom   1C    basis set group =>   2
Atom   2C    basis set group =>   2
Atom   3O    basis set group =>   3
Atom   4C    basis set group =>   2
Atom   5C    basis set group =>   2
Atom   6H    basis set group =>   4
Atom   7C    basis set group =>   2
Atom   8O    basis set group =>   3
Atom   9O    basis set group =>   3
Atom  10H    basis set group =>   4
Atom  11H    basis set group =>   4
Atom  12C    basis set group =>   2
Atom  13N    basis set group =>   1
Atom  14H    basis set group =>   4
Atom  15H    basis set group =>   4
Atom  16O    basis set group =>   3
Atom  17C    basis set group =>   2
Atom  18H    basis set group =>   4
Atom  19H    basis set group =>   4
Atom  20H    basis set group =>   4
Atom  21C    basis set group =>   2
Atom  22H    basis set group =>   4
Atom  23H    basis set group =>   4
Atom  24H    basis set group =>   4
Atom  25H    basis set group =>   4
Atom  26H    basis set group =>   4
---------------------------------
AUXILIARY/J BASIS SET INFORMATION
---------------------------------
There are 4 groups of distinct atoms

 Group   1 Type N   : 12s5p4d2f1g contracted to 6s4p3d1f1g pattern {711111/2111/211/2/1}
 Group   2 Type C   : 12s5p4d2f1g contracted to 6s4p3d1f1g pattern {711111/2111/211/2/1}
 Group   3 Type O   : 12s5p4d2f1g contracted to 6s4p3d1f1g pattern {711111/2111/211/2/1}
 Group   4 Type H   : 5s2p1d contracted to 3s1p1d pattern {311/2/1}

Atom   0N    basis set group =>   1
Atom   1C    basis set group =>   2
Atom   2C    basis set group =>   2
Atom   3O    basis set group =>   3
Atom   4C    basis set group =>   2
Atom   5C    basis set group =>   2
Atom   6H    basis set group =>   4
Atom   7C    basis set group =>   2
Atom   8O    basis set group =>   3
Atom   9O    basis set group =>   3
Atom  10H    basis set group =>   4
Atom  11H    basis set group =>   4
Atom  12C    basis set group =>   2
Atom  13N    basis set group =>   1
Atom  14H    basis set group =>   4
Atom  15H    basis set group =>   4
Atom  16O    basis set group =>   3
Atom  17C    basis set group =>   2
Atom  18H    basis set group =>   4
Atom  19H    basis set group =>   4
Atom  20H    basis set group =>   4
Atom  21C    basis set group =>   2
Atom  22H    basis set group =>   4
Atom  23H    basis set group =>   4
Atom  24H    basis set group =>   4
Atom  25H    basis set group =>   4
Atom  26H    basis set group =>   4


           ************************************************************
           *        Program running with 16 parallel MPI-processes    *
           *              working on a common directory               *
           ************************************************************
------------------------------------------------------------------------------
                           ORCA GTO INTEGRAL CALCULATION
                           -- RI-GTO INTEGRALS CHOSEN --
------------------------------------------------------------------------------
------------------------------------------------------------------------------
                   ___                                                        
                  /   \      - P O W E R E D   B Y -                         
                 /     \                                                     
                 |  |  |   _    _      __       _____    __    __             
                 |  |  |  | |  | |    /  \     |  _  \  |  |  /  |          
                  \  \/   | |  | |   /    \    | | | |  |  | /  /          
                 / \  \   | |__| |  /  /\  \   | |_| |  |  |/  /          
                |  |  |   |  __  | /  /__\  \  |    /   |      \           
                |  |  |   | |  | | |   __   |  |    \   |  |\   \          
                \     /   | |  | | |  |  |  |  | |\  \  |  | \   \       
                 \___/    |_|  |_| |__|  |__|  |_| \__\ |__|  \__/        
                                                                              
                      - O R C A' S   B I G   F R I E N D -                    
                                      &                                       
                       - I N T E G R A L  F E E D E R -                       
                                                                              
 v1 FN, 2020, v2 2021                                                         
------------------------------------------------------------------------------


Reading SHARK input file opt.SHARKINP.tmp ... ok
----------------------
SHARK INTEGRAL PACKAGE
----------------------

Number of atoms                             ...     27
Number of basis functions                   ...    329
Number of shells                            ...    191
Maximum angular momentum                    ...      2
Integral batch strategy                     ... SHARK/LIBINT Hybrid
RI-J (if used) integral strategy            ... SPLIT-RIJ (Revised 2003 algorithm where possible)
Printlevel                                  ...      1
Contraction scheme used                     ... SEGMENTED contraction
Coulomb Range Separation                    ... NOT USED
Exchange Range Separation                   ... NOT USED
Finite Nucleus Model                        ... NOT USED
Auxiliary Coulomb fitting basis             ... AVAILABLE
   # of basis functions in Aux-J            ...    829
   # of shells in Aux-J                     ...    275
   Maximum angular momentum in Aux-J        ...      4
Auxiliary J/K fitting basis                 ... NOT available
Auxiliary Correlation fitting basis         ... NOT available
Auxiliary 'external' fitting basis          ... NOT available
Integral threshold                          ...     2.500000e-11
Primitive cut-off                           ...     2.500000e-12
Primitive pair pre-selection threshold      ...     2.500000e-12

Calculating pre-screening integrals         ... done (  0.0 sec) Dimension = 191
Organizing shell pair data                  ... done (  0.0 sec)
Shell pair information
Total number of shell pairs                 ...     18336
Shell pairs after pre-screening             ...     12793
Total number of primitive shell pairs       ...     50033
Primitive shell pairs kept                  ...     25323
          la=0 lb=0:   5812 shell pairs
          la=1 lb=0:   4355 shell pairs
          la=1 lb=1:    760 shell pairs
          la=2 lb=0:   1305 shell pairs
          la=2 lb=1:    478 shell pairs
          la=2 lb=2:     83 shell pairs

Calculating one electron integrals          ... done (  0.0 sec)
Calculating RI/J V-Matrix + Cholesky decomp.... done (  0.0 sec)
Calculating Nuclear repulsion               ... done (  0.0 sec) ENN=    918.898118517941 Eh

SHARK setup successfully completed in   0.2 seconds

Maximum memory used throughout the entire GTOINT-calculation: 19.6 MB


           ************************************************************
           *        Program running with 16 parallel MPI-processes    *
           *              working on a common directory               *
           ************************************************************
-------------------------------------------------------------------------------
                                 ORCA SCF
-------------------------------------------------------------------------------

------------
SCF SETTINGS
------------
Hamiltonian:
 Density Functional     Method          .... DFT(GTOs)
 Exchange Functional    Exchange        .... B88
   X-Alpha parameter    XAlpha          ....  0.666667
   Becke's b parameter  XBeta           ....  0.004200
 Correlation Functional Correlation     .... LYP
 LDA part of GGA corr.  LDAOpt          .... VWN-5
 Gradients option       PostSCFGGA      .... off
 Hybrid DFT is turned on
   Fraction HF Exchange ScalHFX         ....  0.200000
   Scaling of DF-GGA-X  ScalDFX         ....  0.720000
   Scaling of DF-GGA-C  ScalDFC         ....  0.810000
   Scaling of DF-LDA-C  ScalLDAC        ....  1.000000
   Perturbative correction              ....  0.000000
   Density functional embedding theory  .... OFF
   NL short-range parameter             ....  4.800000
 RI-approximation to the Coulomb term is turned on
   Number of AuxJ basis functions       .... 829
   RIJ-COSX (HFX calculated with COS-X)).... on


General Settings:
 Integral files         IntName         .... opt
 Hartree-Fock type      HFTyp           .... UHF
 Total Charge           Charge          ....    0
 Multiplicity           Mult            ....    2
 Number of Electrons    NEL             ....  107
 Basis Dimension        Dim             ....  329
 Nuclear Repulsion      ENuc            ....    918.8981185179 Eh

Convergence Acceleration:
 DIIS                   CNVDIIS         .... on
   Start iteration      DIISMaxIt       ....    12
   Startup error        DIISStart       ....  0.200000
   # of expansion vecs  DIISMaxEq       ....     5
   Bias factor          DIISBfac        ....   1.050
   Max. coefficient     DIISMaxC        ....  10.000
 Trust-Rad. Augm. Hess. CNVTRAH         .... auto
   Auto Start mean grad. ratio tolernc. ....  1.125000
   Auto Start start iteration           ....    20
   Auto Start num. interpolation iter.  ....    10
   Max. Number of Micro iterations      ....    16
   Max. Number of Macro iterations      .... Maxiter - #DIIS iter
   Number of Davidson start vectors     ....     2
   Converg. threshold I  (grad. norm)   ....   1.000e-05
   Converg. threshold II (energy diff.) ....   1.000e-08
   Grad. Scal. Fac. for Micro threshold ....   0.100
   Minimum threshold for Micro iter.    ....   0.010
   NR start threshold (gradient norm)   ....   0.001
   Initial trust radius                 ....   0.400
   Minimum AH scaling param. (alpha)    ....   1.000
   Maximum AH scaling param. (alpha)    .... 1000.000
   Orbital update algorithm             .... Taylor
   White noise on init. David. guess    .... on
   Maximum white noise                  ....   0.010
   Quad. conv. algorithm                .... NR
 SOSCF                  CNVSOSCF        .... off
 Level Shifting         CNVShift        .... on
   Level shift para.    LevelShift      ....    0.2500
   Turn off err/grad.   ShiftErr        ....    0.0010
 Zerner damping         CNVZerner       .... off
 Static damping         CNVDamp         .... on
   Fraction old density DampFac         ....    0.7000
   Max. Damping (<1)    DampMax         ....    0.9800
   Min. Damping (>=0)   DampMin         ....    0.0000
   Turn off err/grad.   DampErr         ....    0.1000
 Fernandez-Rico         CNVRico         .... off

SCF Procedure:
 Maximum # iterations   MaxIter         ....   125
 SCF integral mode      SCFMode         .... Direct
   Integral package                     .... SHARK and LIBINT hybrid scheme
 Reset frequency        DirectResetFreq ....    20
 Integral Threshold     Thresh          ....  2.500e-11 Eh
 Primitive CutOff       TCut            ....  2.500e-12 Eh

Convergence Tolerance:
 Convergence Check Mode ConvCheckMode   .... Total+1el-Energy
 Convergence forced     ConvForced      .... 0
 Energy Change          TolE            ....  1.000e-08 Eh
 1-El. energy change                    ....  1.000e-05 Eh
 DIIS Error             TolErr          ....  5.000e-07


Diagonalization of the overlap matrix:
Smallest eigenvalue                        ... 8.086e-04
Time for diagonalization                   ...    0.013 sec
Threshold for overlap eigenvalues          ... 1.000e-08
Number of eigenvalues below threshold      ... 0
Time for construction of square roots      ...    0.009 sec
Total time needed                          ...    0.023 sec

Time for model grid setup =    0.104 sec

------------------------------
INITIAL GUESS: MODEL POTENTIAL
------------------------------
Loading Hartree-Fock densities                     ... done
Calculating cut-offs                               ... done
Initializing the effective Hamiltonian             ... done
Setting up the integral package (SHARK)            ... done
Starting the Coulomb interaction                   ... done (   0.0 sec)
Reading the grid                                   ... done
Mapping shells                                     ... done
Starting the XC term evaluation                    ... done (   0.0 sec)
  promolecular density results
     # of electrons  =    106.989643784
     EX              =    -90.951891037
     EC              =     -3.676641884
     EX+EC           =    -94.628532922
Transforming the Hamiltonian                       ... done (   0.0 sec)
Diagonalizing the Hamiltonian                      ... done (   0.0 sec)
Back transforming the eigenvectors                 ... done (   0.0 sec)
Now organizing SCF variables                       ... done
                      ------------------
                      INITIAL GUESS DONE (   0.3 sec)
                      ------------------
-------------------
DFT GRID GENERATION
-------------------

General Integration Accuracy     IntAcc      ... 4.388
Radial Grid Type                 RadialGrid  ... OptM3 with GC (2021)
Angular Grid (max. ang.)         AngularGrid ... 4 (Lebedev-302)
Angular grid pruning method      GridPruning ... 4 (adaptive)
Weight generation scheme         WeightScheme... Becke
Basis function cutoff            BFCut       ... 1.0000e-11
Integration weight cutoff        WCut        ... 1.0000e-14
Angular grids for H and He will be reduced by one unit
Partially contracted basis set               ... off
Rotationally invariant grid construction     ... off

Total number of grid points                  ...   125916
Total number of batches                      ...     1983
Average number of points per batch           ...       63
Average number of grid points per atom       ...     4664
Time for grid setup =    0.545 sec

--------------------
COSX GRID GENERATION
--------------------

GRIDX 1
-------
General Integration Accuracy     IntAcc      ... 3.816
Radial Grid Type                 RadialGrid  ... OptM3 with GC (2021)
Angular Grid (max. ang.)         AngularGrid ... 1 (Lebedev-50)
Angular grid pruning method      GridPruning ... 4 (adaptive)
Weight generation scheme         WeightScheme... Becke
Basis function cutoff            BFCut       ... 1.0000e-11
Integration weight cutoff        WCut        ... 1.0000e-14
Angular grids for H and He will be reduced by one unit
Partially contracted basis set               ... on
Rotationally invariant grid construction     ... off

Total number of grid points                  ...    16054
Total number of batches                      ...      265
Average number of points per batch           ...       60
Average number of grid points per atom       ...      595
UseSFitting                                  ... on

GRIDX 2
-------
General Integration Accuracy     IntAcc      ... 4.020
Radial Grid Type                 RadialGrid  ... OptM3 with GC (2021)
Angular Grid (max. ang.)         AngularGrid ... 2 (Lebedev-110)
Angular grid pruning method      GridPruning ... 4 (adaptive)
Weight generation scheme         WeightScheme... Becke
Basis function cutoff            BFCut       ... 1.0000e-11
Integration weight cutoff        WCut        ... 1.0000e-14
Angular grids for H and He will be reduced by one unit
Partially contracted basis set               ... on
Rotationally invariant grid construction     ... off

Total number of grid points                  ...    34720
Total number of batches                      ...      559
Average number of points per batch           ...       62
Average number of grid points per atom       ...     1286
UseSFitting                                  ... on

GRIDX 3
-------
General Integration Accuracy     IntAcc      ... 4.338
Radial Grid Type                 RadialGrid  ... OptM3 with GC (2021)
Angular Grid (max. ang.)         AngularGrid ... 3 (Lebedev-194)
Angular grid pruning method      GridPruning ... 4 (adaptive)
Weight generation scheme         WeightScheme... Becke
Basis function cutoff            BFCut       ... 1.0000e-11
Integration weight cutoff        WCut        ... 1.0000e-14
Angular grids for H and He will be reduced by one unit
Partially contracted basis set               ... on
Rotationally invariant grid construction     ... off

Total number of grid points                  ...    76049
Total number of batches                      ...     1204
Average number of points per batch           ...       63
Average number of grid points per atom       ...     2817
UseSFitting                                  ... on

Time for X-Grid setup             =    0.649 sec

--------------
SCF ITERATIONS
--------------
ITER       Energy         Delta-E        Max-DP      RMS-DP      [F,P]     Damp
               ***  Starting incremental Fock matrix formation  ***
  0   -722.3418743699   0.000000000000 0.06347487  0.00109705  0.1281306 0.7000
  1   -722.5874861911  -0.245611821211 0.04641173  0.00075808  0.0503054 0.7000
                               ***Turning on DIIS***
  2   -722.6709469392  -0.083460748097 0.07130947  0.00112278  0.0182831 0.0000
  3   -722.8186058777  -0.147658938497 0.04149777  0.00057165  0.0270470 0.0000
  4   -722.8456058351  -0.026999957332 0.01590248  0.00019599  0.0089389 0.0000
  5   -722.8479488304  -0.002342995367 0.00634666  0.00007066  0.0033489 0.0000
  6   -722.8481656336  -0.000216803147 0.00229989  0.00002864  0.0010601 0.0000
  7   -722.8482106933  -0.000045059758 0.00187547  0.00002708  0.0007798 0.0000
               *** Restarting incremental Fock matrix formation ***
                                   *** Resetting DIIS ***
  8   -722.8482223294  -0.000011636018 0.00107842  0.00001164  0.0004113 0.0000
  9   -722.8482254786  -0.000003149220 0.00050212  0.00000462  0.0005112 0.0000
 10   -722.8482278505  -0.000002371919 0.00063960  0.00000334  0.0002383 0.0000
 11   -722.8482284465  -0.000000596022 0.00038891  0.00000243  0.0001993 0.0000
 12   -722.8482288753  -0.000000428814 0.00016814  0.00000083  0.0000841 0.0000
 13   -722.8482289261  -0.000000050795 0.00006469  0.00000038  0.0000311 0.0000
 14   -722.8482289273  -0.000000001208 0.00002523  0.00000015  0.0000120 0.0000
 15   -722.8482289375  -0.000000010170 0.00001392  0.00000010  0.0000076 0.0000
 16   -722.8482289371   0.000000000439 0.00000561  0.00000005  0.0000030 0.0000
 17   -722.8482289439  -0.000000006815 0.00000282  0.00000004  0.0000015 0.0000
 18   -722.8482289483  -0.000000004429 0.00000346  0.00000002  0.0000023 0.0000
                            ***DIIS convergence achieved***

               *****************************************************
               *                     SUCCESS                       *
               *           SCF CONVERGED AFTER  19 CYCLES          *
               *****************************************************

Old exchange energy                            =    -18.446226918 Eh
New exchange energy                            =    -18.446236053 Eh
Exchange energy change after final integration =     -0.000009135 Eh
Total energy after final integration           =   -722.848238072 Eh
Final COS-X integration done in                =     1.831 sec

----------------
TOTAL SCF ENERGY
----------------

Total Energy       :         -722.84823807 Eh          -19669.70055 eV

Components:
Nuclear Repulsion  :          918.89811852 Eh           25004.48901 eV
Electronic Energy  :        -1641.74635659 Eh          -44674.18955 eV
One Electron Energy:        -2809.65655415 Eh          -76454.64172 eV
Two Electron Energy:         1167.91019756 Eh           31780.45216 eV
Max COSX asymmetry :            0.00000196 Eh               0.00005 eV

Virial components:
Potential Energy   :        -1441.24224541 Eh          -39218.19531 eV
Kinetic Energy     :          718.39400734 Eh           19548.49477 eV
Virial Ratio       :            2.00620026


DFT components:
N(Alpha)           :       54.000003139477 electrons
N(Beta)            :       53.000018988420 electrons
N(Total)           :      107.000022127897 electrons
E(X)               :      -73.350011197066 Eh       
E(C)               :       -4.328843238130 Eh       
E(XC)              :      -77.678854435196 Eh       
DFET-embed. en.    :        0.000000000000 Eh       

---------------
SCF CONVERGENCE
---------------

  Last Energy change         ...    1.0859e-08  Tolerance :   1.0000e-08
  Last MAX-Density change    ...    0.0000e+00  Tolerance :   1.0000e-07
  Last RMS-Density change    ...    0.0000e+00  Tolerance :   5.0000e-09
  Last DIIS Error            ...    7.8355e-07  Tolerance :   5.0000e-07

             **** THE GBW FILE WAS UPDATED (opt.gbw) ****
             **** DENSITY opt.scfp WAS UPDATED ****
             **** ENERGY FILE WAS UPDATED (opt.en.tmp) ****
----------------------
UHF SPIN CONTAMINATION
----------------------

Warning: in a DFT calculation there is little theoretical justification to 
         calculate <S**2> as in Hartree-Fock theory. We will do it anyways
         but you should keep in mind that the values have only limited relevance

Expectation value of <S**2>     :     0.757195
Ideal value S*(S+1) for S=0.5   :     0.750000
Deviation                       :     0.007195

             **** THE GBW FILE WAS UPDATED (opt.gbw) ****
             **** DENSITY opt.scfp WAS UPDATED ****
----------------
ORBITAL ENERGIES
----------------
                 SPIN UP ORBITALS
  NO   OCC          E(Eh)            E(eV) 
   0   1.0000     -19.189379      -522.1696 
   1   1.0000     -19.136205      -520.7226 
   2   1.0000     -19.129898      -520.5510 
   3   1.0000     -19.109558      -519.9975 
   4   1.0000     -14.377574      -391.2337 
   5   1.0000     -14.358791      -390.7226 
   6   1.0000     -10.323398      -280.9139 
   7   1.0000     -10.308137      -280.4987 
   8   1.0000     -10.294901      -280.1385 
   9   1.0000     -10.251644      -278.9614 
  10   1.0000     -10.232171      -278.4315 
  11   1.0000     -10.230699      -278.3915 
  12   1.0000     -10.213135      -277.9135 
  13   1.0000     -10.191876      -277.3350 
  14   1.0000      -1.111688       -30.2506 
  15   1.0000      -1.062927       -28.9237 
  16   1.0000      -1.041441       -28.3391 
  17   1.0000      -1.019582       -27.7442 
  18   1.0000      -0.942360       -25.6429 
  19   1.0000      -0.931834       -25.3565 
  20   1.0000      -0.819044       -22.2873 
  21   1.0000      -0.763784       -20.7836 
  22   1.0000      -0.734225       -19.9793 
  23   1.0000      -0.706708       -19.2305 
  24   1.0000      -0.656396       -17.8614 
  25   1.0000      -0.610936       -16.6244 
  26   1.0000      -0.607887       -16.5414 
  27   1.0000      -0.581321       -15.8185 
  28   1.0000      -0.548750       -14.9323 
  29   1.0000      -0.510899       -13.9023 
  30   1.0000      -0.490791       -13.3551 
  31   1.0000      -0.483533       -13.1576 
  32   1.0000      -0.477062       -12.9815 
  33   1.0000      -0.472093       -12.8463 
  34   1.0000      -0.464327       -12.6350 
  35   1.0000      -0.459201       -12.4955 
  36   1.0000      -0.455714       -12.4006 
  37   1.0000      -0.437223       -11.8974 
  38   1.0000      -0.430742       -11.7211 
  39   1.0000      -0.413118       -11.2415 
  40   1.0000      -0.411519       -11.1980 
  41   1.0000      -0.409246       -11.1362 
  42   1.0000      -0.401093       -10.9143 
  43   1.0000      -0.396458       -10.7882 
  44   1.0000      -0.382354       -10.4044 
  45   1.0000      -0.379488       -10.3264 
  46   1.0000      -0.355653        -9.6778 
  47   1.0000      -0.333631        -9.0785 
  48   1.0000      -0.285151        -7.7594 
  49   1.0000      -0.279767        -7.6129 
  50   1.0000      -0.278909        -7.5895 
  51   1.0000      -0.265950        -7.2369 
  52   1.0000      -0.256609        -6.9827 
  53   1.0000      -0.235052        -6.3961 
  54   0.0000      -0.000574        -0.0156 
  55   0.0000       0.007512         0.2044 
  56   0.0000       0.020094         0.5468 
  57   0.0000       0.022729         0.6185 
  58   0.0000       0.029261         0.7962 
  59   0.0000       0.030375         0.8265 
  60   0.0000       0.040652         1.1062 
  61   0.0000       0.057382         1.5615 
  62   0.0000       0.064463         1.7541 
  63   0.0000       0.070110         1.9078 
  64   0.0000       0.084120         2.2890 
  65   0.0000       0.101874         2.7721 
  66   0.0000       0.107118         2.9148 
  67   0.0000       0.128090         3.4855 
  68   0.0000       0.144675         3.9368 
  69   0.0000       0.151310         4.1174 
  70   0.0000       0.161561         4.3963 
  71   0.0000       0.172074         4.6824 
  72   0.0000       0.177400         4.8273 
  73   0.0000       0.180772         4.9191 
  74   0.0000       0.186650         5.0790 
  75   0.0000       0.191953         5.2233 
  76   0.0000       0.195484         5.3194 
  77   0.0000       0.203375         5.5341 
  78   0.0000       0.212644         5.7863 
  79   0.0000       0.221634         6.0310 
  80   0.0000       0.226938         6.1753 
  81   0.0000       0.231428         6.2975 
  82   0.0000       0.239479         6.5166 
  83   0.0000       0.246959         6.7201 
  84   0.0000       0.256387         6.9766 
  85   0.0000       0.263526         7.1709 
  86   0.0000       0.271921         7.3994 
  87   0.0000       0.275802         7.5050 
  88   0.0000       0.285593         7.7714 
  89   0.0000       0.288126         7.8403 
  90   0.0000       0.299249         8.1430 
  91   0.0000       0.301373         8.2008 
  92   0.0000       0.310436         8.4474 
  93   0.0000       0.312117         8.4931 
  94   0.0000       0.323185         8.7943 
  95   0.0000       0.325565         8.8591 
  96   0.0000       0.337836         9.1930 
  97   0.0000       0.344505         9.3745 
  98   0.0000       0.354605         9.6493 
  99   0.0000       0.367994        10.0136 
 100   0.0000       0.369495        10.0545 
 101   0.0000       0.388786        10.5794 
 102   0.0000       0.396486        10.7889 
 103   0.0000       0.407686        11.0937 
 104   0.0000       0.412153        11.2153 
 105   0.0000       0.429780        11.6949 
 106   0.0000       0.438082        11.9208 
 107   0.0000       0.453343        12.3361 
 108   0.0000       0.456088        12.4108 
 109   0.0000       0.473471        12.8838 
 110   0.0000       0.477088        12.9822 
 111   0.0000       0.504359        13.7243 
 112   0.0000       0.511980        13.9317 
 113   0.0000       0.526636        14.3305 
 114   0.0000       0.536786        14.6067 
 115   0.0000       0.554854        15.0984 
 116   0.0000       0.562663        15.3109 
 117   0.0000       0.579537        15.7700 
 118   0.0000       0.592103        16.1119 
 119   0.0000       0.598900        16.2969 
 120   0.0000       0.621268        16.9056 
 121   0.0000       0.630975        17.1697 
 122   0.0000       0.657521        17.8921 
 123   0.0000       0.670070        18.2335 
 124   0.0000       0.684969        18.6390 
 125   0.0000       0.697937        18.9918 
 126   0.0000       0.705958        19.2101 
 127   0.0000       0.739865        20.1327 
 128   0.0000       0.767573        20.8867 
 129   0.0000       0.777337        21.1524 
 130   0.0000       0.780716        21.2444 
 131   0.0000       0.788076        21.4446 
 132   0.0000       0.814125        22.1535 
 133   0.0000       0.816679        22.2230 
 134   0.0000       0.822221        22.3738 
 135   0.0000       0.832421        22.6513 
 136   0.0000       0.838898        22.8276 
 137   0.0000       0.844659        22.9843 
 138   0.0000       0.851752        23.1773 
 139   0.0000       0.855759        23.2864 
 140   0.0000       0.866574        23.5807 
 141   0.0000       0.876418        23.8486 
 142   0.0000       0.892755        24.2931 
 143   0.0000       0.898002        24.4359 
 144   0.0000       0.909318        24.7438 
 145   0.0000       0.913193        24.8492 
 146   0.0000       0.922796        25.1106 
 147   0.0000       0.930944        25.3323 
 148   0.0000       0.933497        25.4017 
 149   0.0000       0.950846        25.8738 
 150   0.0000       0.962043        26.1785 
 151   0.0000       0.973653        26.4944 
 152   0.0000       0.976320        26.5670 
 153   0.0000       0.983164        26.7533 
 154   0.0000       0.991453        26.9788 
 155   0.0000       1.007378        27.4122 
 156   0.0000       1.017440        27.6860 
 157   0.0000       1.038373        28.2556 
 158   0.0000       1.042678        28.3727 
 159   0.0000       1.051616        28.6159 
 160   0.0000       1.075952        29.2781 
 161   0.0000       1.112866        30.2826 
 162   0.0000       1.133899        30.8550 
 163   0.0000       1.139159        30.9981 
 164   0.0000       1.150166        31.2976 
 165   0.0000       1.158222        31.5168 
 166   0.0000       1.166552        31.7435 
 167   0.0000       1.185552        32.2605 
 168   0.0000       1.196377        32.5551 
 169   0.0000       1.208639        32.8887 
 170   0.0000       1.267515        34.4908 
 171   0.0000       1.295058        35.2403 
 172   0.0000       1.300351        35.3844 
 173   0.0000       1.328657        36.1546 
 174   0.0000       1.343055        36.5464 
 175   0.0000       1.369291        37.2603 
 176   0.0000       1.377093        37.4726 
 177   0.0000       1.389857        37.8199 
 178   0.0000       1.393000        37.9055 
 179   0.0000       1.399155        38.0729 
 180   0.0000       1.405561        38.2473 
 181   0.0000       1.424036        38.7500 
 182   0.0000       1.440291        39.1923 
 183   0.0000       1.467799        39.9408 
 184   0.0000       1.479144        40.2496 
 185   0.0000       1.486506        40.4499 
 186   0.0000       1.491814        40.5943 
 187   0.0000       1.498004        40.7628 
 188   0.0000       1.526923        41.5497 
 189   0.0000       1.548085        42.1255 
 190   0.0000       1.551579        42.2206 
 191   0.0000       1.562122        42.5075 
 192   0.0000       1.585266        43.1373 
 193   0.0000       1.593336        43.3569 
 194   0.0000       1.603866        43.6434 
 195   0.0000       1.610027        43.8111 
 196   0.0000       1.614583        43.9350 
 197   0.0000       1.635532        44.5051 
 198   0.0000       1.658254        45.1234 
 199   0.0000       1.677083        45.6358 
 200   0.0000       1.689645        45.9776 
 201   0.0000       1.693833        46.0915 
 202   0.0000       1.708016        46.4775 
 203   0.0000       1.723463        46.8978 
 204   0.0000       1.727658        47.0120 
 205   0.0000       1.735628        47.2288 
 206   0.0000       1.764411        48.0121 
 207   0.0000       1.769399        48.1478 
 208   0.0000       1.806994        49.1708 
 209   0.0000       1.820117        49.5279 
 210   0.0000       1.834235        49.9121 
 211   0.0000       1.846128        50.2357 
 212   0.0000       1.859682        50.6045 
 213   0.0000       1.870606        50.9018 
 214   0.0000       1.877544        51.0906 
 215   0.0000       1.897715        51.6395 
 216   0.0000       1.936055        52.6827 
 217   0.0000       1.954290        53.1789 
 218   0.0000       1.977696        53.8158 
 219   0.0000       2.007341        54.6225 
 220   0.0000       2.034364        55.3579 
 221   0.0000       2.045408        55.6584 
 222   0.0000       2.055512        55.9333 
 223   0.0000       2.081189        56.6320 
 224   0.0000       2.096381        57.0454 
 225   0.0000       2.126675        57.8698 
 226   0.0000       2.140138        58.2361 
 227   0.0000       2.151708        58.5510 
 228   0.0000       2.167007        58.9673 
 229   0.0000       2.188905        59.5631 
 230   0.0000       2.210931        60.1625 
 231   0.0000       2.237234        60.8782 
 232   0.0000       2.250543        61.2404 
 233   0.0000       2.283672        62.1419 
 234   0.0000       2.297645        62.5221 
 235   0.0000       2.336718        63.5853 
 236   0.0000       2.339105        63.6503 
 237   0.0000       2.383456        64.8571 
 238   0.0000       2.389504        65.0217 
 239   0.0000       2.396247        65.2052 
 240   0.0000       2.409445        65.5643 
 241   0.0000       2.418114        65.8002 
 242   0.0000       2.440673        66.4141 
 243   0.0000       2.461035        66.9682 
 244   0.0000       2.487698        67.6937 
 245   0.0000       2.496576        67.9353 
 246   0.0000       2.539847        69.1128 
 247   0.0000       2.554980        69.5245 
 248   0.0000       2.601223        70.7829 
 249   0.0000       2.609637        71.0118 
 250   0.0000       2.615415        71.1690 
 251   0.0000       2.647566        72.0439 
 252   0.0000       2.691524        73.2401 
 253   0.0000       2.694583        73.3233 
 254   0.0000       2.714400        73.8626 
 255   0.0000       2.749181        74.8090 
 256   0.0000       2.767356        75.3036 
 257   0.0000       2.777292        75.5740 
 258   0.0000       2.816454        76.6396 
 259   0.0000       2.842649        77.3524 
 260   0.0000       2.898067        78.8604 
 261   0.0000       2.994039        81.4720 
 262   0.0000       3.033477        82.5451 
 263   0.0000       3.071228        83.5723 
 264   0.0000       3.093018        84.1653 
 265   0.0000       3.116536        84.8053 
 266   0.0000       3.121549        84.9417 
 267   0.0000       3.127943        85.1157 
 268   0.0000       3.381647        92.0193 
 269   0.0000       3.384272        92.0907 
 270   0.0000       3.432264        93.3966 
 271   0.0000       3.447268        93.8049 
 272   0.0000       3.454891        94.0124 
 273   0.0000       3.460849        94.1745 
 274   0.0000       3.634397        98.8970 
 275   0.0000       4.923994       133.9887 
 276   0.0000       4.969672       135.2317 
 277   0.0000       4.981578       135.5556 
 278   0.0000       4.984401       135.6324 
 279   0.0000       5.006154       136.2244 
 280   0.0000       5.015127       136.4685 
 281   0.0000       5.051182       137.4496 
 282   0.0000       5.097463       138.7090 
 283   0.0000       5.113641       139.1492 
 284   0.0000       5.152098       140.1957 
 285   0.0000       5.207310       141.6981 
 286   0.0000       5.251375       142.8972 
 287   0.0000       5.274322       143.5216 
 288   0.0000       5.291470       143.9882 
 289   0.0000       5.340289       145.3167 
 290   0.0000       5.350175       145.5857 
 291   0.0000       5.521361       150.2439 
 292   0.0000       5.582682       151.9125 
 293   0.0000       5.654645       153.8707 
 294   0.0000       5.717301       155.5757 
 295   0.0000       5.804510       157.9488 
 296   0.0000       7.298796       198.6103 
 297   0.0000       7.330778       199.4806 
 298   0.0000       8.891393       241.9471 
 299   0.0000       9.082640       247.1512 
 300   0.0000       9.106027       247.7876 
 301   0.0000       9.132403       248.5053 
 302   0.0000      29.496835       802.6497 
 303   0.0000      29.616031       805.8932 
 304   0.0000      29.688028       807.8523 
 305   0.0000      29.887416       813.2779 
 306   0.0000      29.963634       815.3519 
 307   0.0000      30.046350       817.6027 
 308   0.0000      30.084853       818.6505 
 309   0.0000      30.209447       822.0408 
 310   0.0000      36.544604       994.4292 
 311   0.0000      36.599618       995.9262 
 312   0.0000      36.601314       995.9724 
 313   0.0000      36.606401       996.1108 
 314   0.0000      36.629201       996.7312 
 315   0.0000      36.662028       997.6245 
 316   0.0000      36.697672       998.5944 
 317   0.0000      36.717984       999.1471 
 318   0.0000      36.771103      1000.5926 
 319   0.0000      36.799915      1001.3766 
 320   0.0000      36.881972      1003.6095 
 321   0.0000      36.891385      1003.8656 
 322   0.0000      36.915284      1004.5159 
 323   0.0000      41.238892      1122.1673 
 324   0.0000      41.271220      1123.0470 
 325   0.0000      53.440869      1454.2000 
 326   0.0000      53.619996      1459.0743 
 327   0.0000      53.643476      1459.7132 
 328   0.0000      53.671519      1460.4763 

                 SPIN DOWN ORBITALS
  NO   OCC          E(Eh)            E(eV) 
   0   1.0000     -19.189032      -522.1601 
   1   1.0000     -19.131292      -520.5889 
   2   1.0000     -19.129830      -520.5491 
   3   1.0000     -19.109408      -519.9934 
   4   1.0000     -14.377571      -391.2336 
   5   1.0000     -14.358730      -390.7209 
   6   1.0000     -10.324504      -280.9440 
   7   1.0000     -10.308130      -280.4985 
   8   1.0000     -10.294918      -280.1390 
   9   1.0000     -10.251230      -278.9501 
  10   1.0000     -10.230698      -278.3914 
  11   1.0000     -10.220199      -278.1058 
  12   1.0000     -10.213742      -277.9301 
  13   1.0000     -10.191872      -277.3349 
  14   1.0000      -1.108990       -30.1772 
  15   1.0000      -1.062777       -28.9196 
  16   1.0000      -1.041224       -28.3332 
  17   1.0000      -1.012610       -27.5545 
  18   1.0000      -0.942316       -25.6417 
  19   1.0000      -0.931430       -25.3455 
  20   1.0000      -0.809082       -22.0163 
  21   1.0000      -0.754535       -20.5319 
  22   1.0000      -0.733868       -19.9696 
  23   1.0000      -0.701885       -19.0993 
  24   1.0000      -0.654240       -17.8028 
  25   1.0000      -0.608266       -16.5517 
  26   1.0000      -0.603680       -16.4270 
  27   1.0000      -0.578465       -15.7408 
  28   1.0000      -0.548194       -14.9171 
  29   1.0000      -0.508169       -13.8280 
  30   1.0000      -0.487238       -13.2584 
  31   1.0000      -0.483048       -13.1444 
  32   1.0000      -0.473277       -12.8785 
  33   1.0000      -0.469397       -12.7729 
  34   1.0000      -0.462251       -12.5785 
  35   1.0000      -0.454837       -12.3768 
  36   1.0000      -0.448351       -12.2002 
  37   1.0000      -0.432897       -11.7797 
  38   1.0000      -0.429049       -11.6750 
  39   1.0000      -0.412045       -11.2123 
  40   1.0000      -0.409287       -11.1373 
  41   1.0000      -0.406961       -11.0740 
  42   1.0000      -0.398614       -10.8468 
  43   1.0000      -0.393769       -10.7150 
  44   1.0000      -0.380811       -10.3624 
  45   1.0000      -0.377194       -10.2640 
  46   1.0000      -0.354788        -9.6543 
  47   1.0000      -0.316366        -8.6088 
  48   1.0000      -0.281368        -7.6564 
  49   1.0000      -0.278426        -7.5764 
  50   1.0000      -0.276645        -7.5279 
  51   1.0000      -0.261651        -7.1199 
  52   1.0000      -0.256027        -6.9669 
  53   0.0000      -0.114187        -3.1072 
  54   0.0000      -0.000053        -0.0014 
  55   0.0000       0.007783         0.2118 
  56   0.0000       0.020288         0.5521 
  57   0.0000       0.023027         0.6266 
  58   0.0000       0.029553         0.8042 
  59   0.0000       0.030914         0.8412 
  60   0.0000       0.053601         1.4586 
  61   0.0000       0.064325         1.7504 
  62   0.0000       0.069615         1.8943 
  63   0.0000       0.070519         1.9189 
  64   0.0000       0.085846         2.3360 
  65   0.0000       0.104886         2.8541 
  66   0.0000       0.108157         2.9431 
  67   0.0000       0.128670         3.5013 
  68   0.0000       0.145399         3.9565 
  69   0.0000       0.151405         4.1200 
  70   0.0000       0.162758         4.4289 
  71   0.0000       0.173393         4.7183 
  72   0.0000       0.177951         4.8423 
  73   0.0000       0.181779         4.9465 
  74   0.0000       0.187780         5.1098 
  75   0.0000       0.192172         5.2293 
  76   0.0000       0.196257         5.3404 
  77   0.0000       0.207285         5.6405 
  78   0.0000       0.214991         5.8502 
  79   0.0000       0.222626         6.0580 
  80   0.0000       0.229491         6.2448 
  81   0.0000       0.233564         6.3556 
  82   0.0000       0.242789         6.6066 
  83   0.0000       0.251157         6.8343 
  84   0.0000       0.257729         7.0132 
  85   0.0000       0.264419         7.1952 
  86   0.0000       0.273214         7.4345 
  87   0.0000       0.276597         7.5266 
  88   0.0000       0.286993         7.8095 
  89   0.0000       0.290398         7.9021 
  90   0.0000       0.301241         8.1972 
  91   0.0000       0.302936         8.2433 
  92   0.0000       0.311075         8.4648 
  93   0.0000       0.314497         8.5579 
  94   0.0000       0.325413         8.8549 
  95   0.0000       0.330719         8.9993 
  96   0.0000       0.338266         9.2047 
  97   0.0000       0.346325         9.4240 
  98   0.0000       0.357223         9.7205 
  99   0.0000       0.370455        10.0806 
 100   0.0000       0.375238        10.2108 
 101   0.0000       0.390231        10.6187 
 102   0.0000       0.399830        10.8799 
 103   0.0000       0.408806        11.1242 
 104   0.0000       0.414250        11.2723 
 105   0.0000       0.430369        11.7109 
 106   0.0000       0.440099        11.9757 
 107   0.0000       0.454476        12.3669 
 108   0.0000       0.458054        12.4643 
 109   0.0000       0.478008        13.0073 
 110   0.0000       0.481019        13.0892 
 111   0.0000       0.505304        13.7500 
 112   0.0000       0.515726        14.0336 
 113   0.0000       0.529653        14.4126 
 114   0.0000       0.546824        14.8798 
 115   0.0000       0.555713        15.1217 
 116   0.0000       0.567478        15.4419 
 117   0.0000       0.581553        15.8249 
 118   0.0000       0.593217        16.1423 
 119   0.0000       0.600526        16.3411 
 120   0.0000       0.622812        16.9476 
 121   0.0000       0.635164        17.2837 
 122   0.0000       0.658772        17.9261 
 123   0.0000       0.671384        18.2693 
 124   0.0000       0.688014        18.7218 
 125   0.0000       0.699435        19.0326 
 126   0.0000       0.710137        19.3238 
 127   0.0000       0.743380        20.2284 
 128   0.0000       0.770444        20.9649 
 129   0.0000       0.778700        21.1895 
 130   0.0000       0.785799        21.3827 
 131   0.0000       0.790879        21.5209 
 132   0.0000       0.814494        22.1635 
 133   0.0000       0.818705        22.2781 
 134   0.0000       0.823986        22.4218 
 135   0.0000       0.833942        22.6927 
 136   0.0000       0.840254        22.8645 
 137   0.0000       0.846693        23.0397 
 138   0.0000       0.852984        23.2109 
 139   0.0000       0.857700        23.3392 
 140   0.0000       0.866966        23.5913 
 141   0.0000       0.879138        23.9226 
 142   0.0000       0.894897        24.3514 
 143   0.0000       0.899150        24.4671 
 144   0.0000       0.910792        24.7839 
 145   0.0000       0.913848        24.8671 
 146   0.0000       0.923147        25.1201 
 147   0.0000       0.931814        25.3559 
 148   0.0000       0.935520        25.4568 
 149   0.0000       0.952196        25.9106 
 150   0.0000       0.964305        26.2401 
 151   0.0000       0.977128        26.5890 
 152   0.0000       0.981166        26.6989 
 153   0.0000       0.986015        26.8308 
 154   0.0000       0.992966        27.0200 
 155   0.0000       1.009418        27.4677 
 156   0.0000       1.020605        27.7721 
 157   0.0000       1.041950        28.3529 
 158   0.0000       1.046269        28.4704 
 159   0.0000       1.056305        28.7435 
 160   0.0000       1.080619        29.4051 
 161   0.0000       1.117327        30.4040 
 162   0.0000       1.135147        30.8889 
 163   0.0000       1.143306        31.1109 
 164   0.0000       1.153444        31.3868 
 165   0.0000       1.158764        31.5316 
 166   0.0000       1.167146        31.7597 
 167   0.0000       1.187208        32.3056 
 168   0.0000       1.199735        32.6465 
 169   0.0000       1.210269        32.9331 
 170   0.0000       1.269958        34.5573 
 171   0.0000       1.298749        35.3407 
 172   0.0000       1.303373        35.4666 
 173   0.0000       1.330880        36.2151 
 174   0.0000       1.344235        36.5785 
 175   0.0000       1.372802        37.3558 
 176   0.0000       1.380889        37.5759 
 177   0.0000       1.392931        37.9036 
 178   0.0000       1.393707        37.9247 
 179   0.0000       1.399996        38.0958 
 180   0.0000       1.405738        38.2521 
 181   0.0000       1.428008        38.8581 
 182   0.0000       1.448014        39.4025 
 183   0.0000       1.470603        40.0171 
 184   0.0000       1.479863        40.2691 
 185   0.0000       1.487235        40.4697 
 186   0.0000       1.495802        40.7028 
 187   0.0000       1.498321        40.7714 
 188   0.0000       1.527739        41.5719 
 189   0.0000       1.549950        42.1763 
 190   0.0000       1.555255        42.3206 
 191   0.0000       1.563504        42.5451 
 192   0.0000       1.585828        43.1526 
 193   0.0000       1.595024        43.4028 
 194   0.0000       1.605800        43.6960 
 195   0.0000       1.613972        43.9184 
 196   0.0000       1.617087        44.0032 
 197   0.0000       1.636809        44.5398 
 198   0.0000       1.659831        45.1663 
 199   0.0000       1.680115        45.7182 
 200   0.0000       1.691535        46.0290 
 201   0.0000       1.697033        46.1786 
 202   0.0000       1.715650        46.6852 
 203   0.0000       1.724394        46.9231 
 204   0.0000       1.729252        47.0553 
 205   0.0000       1.736049        47.2403 
 206   0.0000       1.767474        48.0954 
 207   0.0000       1.775979        48.3269 
 208   0.0000       1.809879        49.2493 
 209   0.0000       1.820666        49.5428 
 210   0.0000       1.838744        50.0348 
 211   0.0000       1.850717        50.3606 
 212   0.0000       1.863102        50.6976 
 213   0.0000       1.873157        50.9712 
 214   0.0000       1.882432        51.2236 
 215   0.0000       1.901298        51.7370 
 216   0.0000       1.941322        52.8260 
 217   0.0000       1.957536        53.2673 
 218   0.0000       1.978792        53.8457 
 219   0.0000       2.010482        54.7080 
 220   0.0000       2.040366        55.5212 
 221   0.0000       2.047162        55.7061 
 222   0.0000       2.057244        55.9805 
 223   0.0000       2.082809        56.6761 
 224   0.0000       2.098094        57.0920 
 225   0.0000       2.130201        57.9657 
 226   0.0000       2.142202        58.2923 
 227   0.0000       2.152417        58.5702 
 228   0.0000       2.168383        59.0047 
 229   0.0000       2.189523        59.5800 
 230   0.0000       2.213001        60.2188 
 231   0.0000       2.240924        60.9786 
 232   0.0000       2.250943        61.2513 
 233   0.0000       2.284551        62.1658 
 234   0.0000       2.300933        62.6116 
 235   0.0000       2.338438        63.6321 
 236   0.0000       2.340374        63.6848 
 237   0.0000       2.384006        64.8721 
 238   0.0000       2.390214        65.0410 
 239   0.0000       2.396394        65.2092 
 240   0.0000       2.410211        65.5852 
 241   0.0000       2.418516        65.8112 
 242   0.0000       2.442285        66.4579 
 243   0.0000       2.463978        67.0482 
 244   0.0000       2.487983        67.7015 
 245   0.0000       2.497921        67.9719 
 246   0.0000       2.541210        69.1498 
 247   0.0000       2.556331        69.5613 
 248   0.0000       2.603978        70.8578 
 249   0.0000       2.616191        71.1902 
 250   0.0000       2.621477        71.3340 
 251   0.0000       2.649001        72.0830 
 252   0.0000       2.692466        73.2657 
 253   0.0000       2.705608        73.6233 
 254   0.0000       2.716553        73.9212 
 255   0.0000       2.749676        74.8225 
 256   0.0000       2.768006        75.3213 
 257   0.0000       2.777449        75.5782 
 258   0.0000       2.816596        76.6435 
 259   0.0000       2.846417        77.4549 
 260   0.0000       2.903099        78.9973 
 261   0.0000       2.994254        81.4778 
 262   0.0000       3.033663        82.5502 
 263   0.0000       3.072504        83.6071 
 264   0.0000       3.093205        84.1704 
 265   0.0000       3.117596        84.8341 
 266   0.0000       3.126349        85.0723 
 267   0.0000       3.135226        85.3138 
 268   0.0000       3.381772        92.0227 
 269   0.0000       3.389590        92.2354 
 270   0.0000       3.432433        93.4012 
 271   0.0000       3.447399        93.8085 
 272   0.0000       3.455192        94.0206 
 273   0.0000       3.462696        94.2247 
 274   0.0000       3.635411        98.9246 
 275   0.0000       4.928055       134.0992 
 276   0.0000       4.971824       135.2902 
 277   0.0000       4.981588       135.5559 
 278   0.0000       4.984579       135.6373 
 279   0.0000       5.007087       136.2498 
 280   0.0000       5.017340       136.5288 
 281   0.0000       5.053431       137.5108 
 282   0.0000       5.103342       138.8690 
 283   0.0000       5.113697       139.1508 
 284   0.0000       5.152179       140.1979 
 285   0.0000       5.207493       141.7031 
 286   0.0000       5.251371       142.8971 
 287   0.0000       5.275412       143.5512 
 288   0.0000       5.294236       144.0635 
 289   0.0000       5.343344       145.3998 
 290   0.0000       5.350911       145.6057 
 291   0.0000       5.522421       150.2727 
 292   0.0000       5.586276       152.0103 
 293   0.0000       5.659572       154.0048 
 294   0.0000       5.718252       155.6016 
 295   0.0000       5.811316       158.1340 
 296   0.0000       7.298851       198.6118 
 297   0.0000       7.330891       199.4837 
 298   0.0000       8.894698       242.0370 
 299   0.0000       9.082965       247.1600 
 300   0.0000       9.106176       247.7916 
 301   0.0000       9.140852       248.7352 
 302   0.0000      29.501388       802.7736 
 303   0.0000      29.616101       805.8951 
 304   0.0000      29.688040       807.8526 
 305   0.0000      29.887458       813.2791 
 306   0.0000      29.968577       815.4864 
 307   0.0000      30.048904       817.6722 
 308   0.0000      30.086589       818.6977 
 309   0.0000      30.211778       822.1043 
 310   0.0000      36.545842       994.4629 
 311   0.0000      36.599737       995.9295 
 312   0.0000      36.601384       995.9743 
 313   0.0000      36.606428       996.1116 
 314   0.0000      36.629125       996.7292 
 315   0.0000      36.668752       997.8075 
 316   0.0000      36.703272       998.7468 
 317   0.0000      36.718136       999.1513 
 318   0.0000      36.764544      1000.4141 
 319   0.0000      36.801889      1001.4303 
 320   0.0000      36.885969      1003.7182 
 321   0.0000      36.895867      1003.9876 
 322   0.0000      36.915417      1004.5196 
 323   0.0000      41.238926      1122.1682 
 324   0.0000      41.271264      1123.0482 
 325   0.0000      53.442570      1454.2463 
 326   0.0000      53.620175      1459.0791 
 327   0.0000      53.643579      1459.7160 
 328   0.0000      53.676005      1460.5984 

                    ********************************
                    * MULLIKEN POPULATION ANALYSIS *
                    ********************************

--------------------------------------------
MULLIKEN ATOMIC CHARGES AND SPIN POPULATIONS
--------------------------------------------
   0 N :   -0.107467    0.001704
   1 C :   -0.144115    0.015108
   2 C :    0.108170    0.000494
   3 O :   -0.318326    0.002909
   4 C :   -0.271213   -0.049341
   5 C :   -0.038868    0.865405
   6 H :    0.165869   -0.040732
   7 C :    0.051643   -0.049656
   8 O :   -0.274166    0.013185
   9 O :   -0.266982    0.178441
  10 H :    0.254781   -0.000071
  11 H :    0.163738    0.001406
  12 C :    0.175640   -0.001057
  13 N :   -0.093396   -0.000892
  14 H :    0.289515   -0.001815
  15 H :    0.234817    0.000134
  16 O :   -0.315474    0.004437
  17 C :   -0.554867    0.000167
[...]
LOEWDIN REDUCED ORBITAL CHARGES AND SPIN POPULATIONS
----------------------------------------------------
CHARGE
  0 N s       :     3.058637  s :     3.058637
      pz      :     1.171310  p :     3.799051
      px      :     1.132406
      py      :     1.495334
      dz2     :     0.019096  d :     0.080694
      dxz     :     0.026482
      dyz     :     0.007182
      dx2y2   :     0.015086
      dxy     :     0.012849
  1 C s       :     2.847350  s :     2.847350
      pz      :     1.010136  p :     2.937890
      px      :     0.904076
      py      :     1.023678
      dz2     :     0.059914  d :     0.255712
      dxz     :     0.043979
      dyz     :     0.033679
      dx2y2   :     0.060154
      dxy     :     0.057986
  2 C s       :     2.840109  s :     2.840109
      pz      :     1.007277  p :     2.766119
      px      :     0.959097
      py      :     0.799745
      dz2     :     0.151931  d :     0.484536
      dxz     :     0.107053
      dyz     :     0.047678
      dx2y2   :     0.083130
      dxy     :     0.094744
  3 O s       :     3.581613  s :     3.581613
      pz      :     1.555184  p :     4.567538
      px      :     1.585819
      py      :     1.426535
      dz2     :     0.007107  d :     0.032176
      dxz     :     0.013280
      dyz     :     0.004396
      dx2y2   :     0.004067
      dxy     :     0.003326
  4 C s       :     2.858046  s :     2.858046
      pz      :     1.010600  p :     3.021975
      px      :     1.017202
      py      :     0.994172
      dz2     :     0.033936  d :     0.170504
      dxz     :     0.016515
      dyz     :     0.043285
      dx2y2   :     0.049234
      dxy     :     0.027535
  5 C s       :     2.914915  s :     2.914915
      pz      :     0.883717  p :     2.892116
      px      :     1.007274
      py      :     1.001125
      dz2     :     0.013074  d :     0.147856
      dxz     :     0.011036
      dyz     :     0.025732
      dx2y2   :     0.045203
      dxy     :     0.052810
  6 H s       :     0.846779  s :     0.846779
      pz      :     0.023844  p :     0.089222
      px      :     0.048215
      py      :     0.017163
  7 C s       :     2.836849  s :     2.836849
      pz      :     0.829088  p :     2.757294
      px      :     0.910587
      py      :     1.017620
      dz2     :     0.046597  d :     0.525786
      dxz     :     0.072599
      dyz     :     0.082460
      dx2y2   :     0.147310
      dxy     :     0.176820
  8 O s       :     3.467723  s :     3.467723
      pz      :     1.701813  p :     4.518785
      px      :     1.313731
      py      :     1.503241
      dz2     :     0.003443  d :     0.024055
      dxz     :     0.004575
      dyz     :     0.001033
      dx2y2   :     0.007030
      dxy     :     0.007973
  9 O s       :     3.588622  s :     3.588622
      pz      :     1.393550  p :     4.522254
      px      :     1.680822
      py      :     1.447882
      dz2     :     0.004283  d :     0.032473
      dxz     :     0.000890
      dyz     :     0.008252
      dx2y2   :     0.011430
      dxy     :     0.007617
 10 H s       :     0.752467  s :     0.752467
      pz      :     0.079985  p :     0.155321
      px      :     0.028969
      py      :     0.046367
 11 H s       :     0.847005  s :     0.847005
      pz      :     0.022344  p :     0.082793
      px      :     0.016019
      py      :     0.044430
 12 C s       :     2.843262  s :     2.843262
      pz      :     0.944631  p :     2.770368
      px      :     1.015539
      py      :     0.810199
      dz2     :     0.136858  d :     0.487591
      dxz     :     0.142124
      dyz     :     0.095873
      dx2y2   :     0.063769
      dxy     :     0.048968
 13 N s       :     3.062324  s :     3.062324
      pz      :     1.136548  p :     3.812735
      px      :     1.146299
      py      :     1.529889
      dz2     :     0.019343  d :     0.080444
      dxz     :     0.030270
      dyz     :     0.007145
      dx2y2   :     0.014279
      dxy     :     0.009406
 14 H s       :     0.705986  s :     0.705986
      pz      :     0.049586  p :     0.194528
      px      :     0.051239
      py      :     0.093704
 15 H s       :     0.772380  s :     0.772380
      pz      :     0.057079  p :     0.146895
      px      :     0.040754
      py      :     0.049062
 16 O s       :     3.585188  s :     3.585188
      pz      :     1.465443  p :     4.577348
      px      :     1.674072
      py      :     1.437833
      dz2     :     0.010603  d :     0.031941
      dxz     :     0.009822
      dyz     :     0.007459
      dx2y2   :     0.001849
      dxy     :     0.002207
 17 C s       :     2.870503  s :     2.870503
      pz      :     1.028840  p :     3.063570
      px      :     0.991013
      py      :     1.043716
      dz2     :     0.023083  d :     0.105559
      dxz     :     0.018978
      dyz     :     0.013136
      dx2y2   :     0.032745
      dxy     :     0.017618
 18 H s       :     0.862673  s :     0.862673
      pz      :     0.031578  p :     0.081720
      px      :     0.022150
      py      :     0.027992
 19 H s       :     0.862722  s :     0.862722
      pz      :     0.017626  p :     0.081621
      px      :     0.019767
      py      :     0.044229
 20 H s       :     0.883490  s :     0.883490
      pz      :     0.042203  p :     0.081507
      px      :     0.019462
      py      :     0.019842
 21 C s       :     2.856954  s :     2.856954
      pz      :     0.902788  p :     2.968613
      px      :     1.009297
      py      :     1.056527
      dz2     :     0.043885  d :     0.159036
      dxz     :     0.031786
      dyz     :     0.048855
      dx2y2   :     0.025706
      dxy     :     0.008804
 22 H s       :     0.877791  s :     0.877791
      pz      :     0.028307  p :     0.080052
      px      :     0.021707
      py      :     0.030039
 23 H s       :     0.887650  s :     0.887650
      pz      :     0.013288  p :     0.078711
      px      :     0.046767
      py      :     0.018656
 24 H s       :     0.879594  s :     0.879594
      pz      :     0.017013  p :     0.079780
      px      :     0.016341
      py      :     0.046427
 25 H s       :     0.862036  s :     0.862036
      pz      :     0.018156  p :     0.082889
      px      :     0.048633
      py      :     0.016100
 26 H s       :     0.833334  s :     0.833334
      pz      :     0.044641  p :     0.084940
      px      :     0.022705
      py      :     0.017594

SPIN
  0 N s       :    -0.000121  s :    -0.000121
      pz      :     0.000420  p :     0.001926
      px      :    -0.000211
      py      :     0.001716
      dz2     :    -0.000004  d :     0.000207
      dxz     :     0.000042
      dyz     :    -0.000003
      dx2y2   :     0.000013
      dxy     :     0.000160
  1 C s       :     0.005630  s :     0.005630
      pz      :     0.003481  p :     0.018046
      px      :     0.003182
      py      :     0.011382
      dz2     :    -0.000234  d :     0.000155
      dxz     :     0.000036
      dyz     :    -0.000048
      dx2y2   :     0.000135
      dxy     :     0.000265
  2 C s       :     0.001384  s :     0.001384
      pz      :    -0.000412  p :     0.001457
      px      :    -0.000014
      py      :     0.001883
      dz2     :     0.000144  d :     0.000700
      dxz     :     0.000059
      dyz     :    -0.000078
      dx2y2   :     0.000498
      dxy     :     0.000076
  3 O s       :     0.000471  s :     0.000471
      pz      :     0.001100  p :     0.001224
      px      :     0.000087
      py      :     0.000037
      dz2     :    -0.000003  d :     0.000011
      dxz     :     0.000000
      dyz     :     0.000003
      dx2y2   :     0.000007
      dxy     :     0.000003
  4 C s       :    -0.003195  s :    -0.003195
      pz      :    -0.000673  p :    -0.014704
      px      :    -0.002363
      py      :    -0.011668
      dz2     :     0.007583  d :     0.028954
      dxz     :     0.000995
      dyz     :     0.017359
      dx2y2   :     0.001573
      dxy     :     0.001445
  5 C s       :     0.020655  s :     0.020655
      pz      :     0.566035  p :     0.677614
      px      :     0.069265
      py      :     0.042313
      dz2     :    -0.001343  d :    -0.002916
      dxz     :    -0.000462
      dyz     :     0.000485
      dx2y2   :    -0.000916
      dxy     :    -0.000680
  6 H s       :    -0.017210  s :    -0.017210
      pz      :     0.016122  p :     0.021090
      px      :     0.003847
      py      :     0.001122
  7 C s       :    -0.005660  s :    -0.005660
      pz      :    -0.011508  p :    -0.024912
      px      :    -0.005546
      py      :    -0.007858
      dz2     :     0.000405  d :     0.041320
      dxz     :     0.007733
      dyz     :     0.026438
      dx2y2   :     0.004419
      dxy     :     0.002326
  8 O s       :    -0.000758  s :    -0.000758
      pz      :     0.013208  p :     0.014334
      px      :     0.000769
      py      :     0.000357
      dz2     :    -0.000056  d :    -0.000217
      dxz     :    -0.000053
      dyz     :    -0.000001
      dx2y2   :    -0.000025
      dxy     :    -0.000082
  9 O s       :     0.001853  s :     0.001853
      pz      :     0.159906  p :     0.184305
      px      :     0.016930
      py      :     0.007469
      dz2     :    -0.000065  d :    -0.000585
      dxz     :    -0.000005
      dyz     :    -0.000315
      dx2y2   :    -0.000080
      dxy     :    -0.000120
 10 H s       :     0.000083  s :     0.000083
      pz      :     0.000017  p :     0.000133
      px      :    -0.000003
      py      :     0.000120
 11 H s       :     0.000984  s :     0.000984
      pz      :     0.000125  p :     0.000600
      px      :     0.000107
      py      :     0.000368
 12 C s       :    -0.000015  s :    -0.000015
      pz      :     0.000034  p :    -0.000604
      px      :    -0.000049
      py      :    -0.000589
      dz2     :    -0.000010  d :     0.000516
      dxz     :     0.000068
      dyz     :     0.000263
      dx2y2   :     0.000177
      dxy     :     0.000018
 13 N s       :     0.000265  s :     0.000265
      pz      :     0.000026  p :    -0.000088
      px      :     0.000189
      py      :    -0.000304
      dz2     :     0.000005  d :     0.000008
      dxz     :    -0.000013
      dyz     :    -0.000002
      dx2y2   :    -0.000001
      dxy     :     0.000018
 14 H s       :    -0.001115  s :    -0.001115
      pz      :     0.000870  p :     0.000900
      px      :    -0.000005
      py      :     0.000034
 15 H s       :     0.000186  s :     0.000186
      pz      :     0.000060  p :     0.000067
      px      :     0.000013
      py      :    -0.000006
 16 O s       :     0.000502  s :     0.000502
      pz      :     0.000080  p :     0.003999
      px      :     0.001527
      py      :     0.002392
      dz2     :    -0.000002  d :    -0.000008
      dxz     :    -0.000003
      dyz     :    -0.000002
      dx2y2   :    -0.000001
      dxy     :    -0.000000
 17 C s       :    -0.000001  s :    -0.000001
      pz      :     0.000014  p :     0.000141
      px      :     0.000126
      py      :     0.000001
      dz2     :    -0.000001  d :    -0.000009
      dxz     :     0.000005
      dyz     :     0.000007
      dx2y2   :    -0.000003
      dxy     :    -0.000016
 18 H s       :     0.000001  s :     0.000001
      pz      :     0.000001  p :     0.000001
      px      :    -0.000000
      py      :     0.000000
 19 H s       :    -0.000021  s :    -0.000021
      pz      :    -0.000001  p :     0.000004
      px      :     0.000004
      py      :     0.000001
 20 H s       :     0.000022  s :     0.000022
      pz      :    -0.000001  p :     0.000002
      px      :     0.000003
      py      :    -0.000001
 21 C s       :     0.000114  s :     0.000114
      pz      :    -0.000002  p :     0.000016
      px      :    -0.000001
      py      :     0.000019
      dz2     :    -0.000003  d :    -0.000006
      dxz     :     0.000012
      dyz     :    -0.000017
      dx2y2   :     0.000004
      dxy     :    -0.000001
 22 H s       :    -0.000009  s :    -0.000009
      pz      :     0.000001  p :     0.000003
      px      :    -0.000000
      py      :     0.000003
 23 H s       :     0.000006  s :     0.000006
      pz      :    -0.000001  p :    -0.000000
      px      :    -0.000000
      py      :     0.000000
 24 H s       :    -0.000021  s :    -0.000021
      pz      :    -0.000001  p :     0.000008
      px      :    -0.000000
      py      :     0.000009
 25 H s       :     0.004337  s :     0.004337
      pz      :     0.000161  p :    -0.000292
      px      :    -0.000156
      py      :    -0.000297
 26 H s       :     0.039477  s :     0.039477
      pz      :    -0.000746  p :    -0.001247
      px      :    -0.000027
      py      :    -0.000475


                      *****************************
                      * MAYER POPULATION ANALYSIS *
                      *****************************

  NA   - Mulliken gross atomic population
  ZA   - Total nuclear charge
  QA   - Mulliken gross atomic charge
  VA   - Mayer's total valence
  BVA  - Mayer's bonded valence
  FA   - Mayer's free valence

  ATOM       NA         ZA         QA         VA         BVA        FA
  0 N      7.1181     7.0000    -0.1181     3.2616     3.2616     0.0000
  1 C      6.1335     6.0000    -0.1335     4.0956     4.0948     0.0007
  2 C      5.8894     6.0000     0.1106     4.0043     4.0043     0.0000
  3 O      8.3287     8.0000    -0.3287     2.1182     2.1182     0.0000
  4 C      6.2767     6.0000    -0.2767     3.9105     3.9085     0.0020
  5 C      6.0337     6.0000    -0.0337     3.9241     3.3599     0.5641
  6 H      0.8338     1.0000     0.1662     0.9646     0.9628     0.0019
  7 C      5.9312     6.0000     0.0688     4.1077     4.1048     0.0029
  8 O      8.2912     8.0000    -0.2912     2.0606     2.0604     0.0002
  9 O      8.2704     8.0000    -0.2704     2.0958     2.0596     0.0362
 10 H      0.7435     1.0000     0.2565     0.9689     0.9689     0.0000
 11 H      0.8288     1.0000     0.1712     0.9478     0.9477     0.0000
 12 C      5.8222     6.0000     0.1778     3.9764     3.9764     0.0000
 13 N      7.1045     7.0000    -0.1045     3.2185     3.2185    -0.0000
 14 H      0.7107     1.0000     0.2893     0.9582     0.9582     0.0000
 15 H      0.7642     1.0000     0.2358     0.9620     0.9620     0.0000
 16 O      8.3225     8.0000    -0.3225     2.1157     2.1157     0.0000
 17 C      6.5513     6.0000    -0.5513     3.8551     3.8551     0.0000
 18 H      0.8132     1.0000     0.1868     0.9586     0.9586     0.0000
 19 H      0.8121     1.0000     0.1879     0.9586     0.9586     0.0000
 20 H      0.8493     1.0000     0.1507     0.9708     0.9708     0.0000
 21 C      6.4353     6.0000    -0.4353     3.9389     3.9389    -0.0000
 22 H      0.8146     1.0000     0.1854     0.9504     0.9504     0.0000
 23 H      0.8555     1.0000     0.1445     0.9672     0.9672     0.0000
 24 H      0.8171     1.0000     0.1829     0.9509     0.9509     0.0000
 25 H      0.8485     1.0000     0.1515     0.9694     0.9694     0.0000
 26 H      0.8000     1.0000     0.2000     0.9590     0.9569     0.0021

  Mayer bond orders larger than 0.100000
B(  0-N ,  1-C ) :   1.0326 B(  0-N , 10-H ) :   0.8871 B(  0-N , 12-C ) :   1.2014 
B(  1-C ,  2-C ) :   0.9003 B(  1-C ,  4-C ) :   0.9360 B(  1-C , 11-H ) :   0.9635 
B(  1-C , 16-O ) :   0.1381 B(  2-C ,  3-O ) :   1.8403 B(  2-C , 13-N ) :   1.2161 
B(  4-C ,  5-C ) :   1.0112 B(  4-C , 25-H ) :   0.9556 B(  4-C , 26-H ) :   0.9276 
B(  5-C ,  6-H ) :   0.9832 B(  5-C ,  7-C ) :   1.1172 B(  5-C ,  9-O ) :   0.1154 
B(  7-C ,  8-O ) :   1.0838 B(  7-C ,  9-O ) :   1.8589 B(  8-O , 14-H ) :   0.8964 
B( 12-C , 16-O ) :   1.8540 B( 12-C , 17-C ) :   0.8978 B( 13-N , 15-H ) :   0.9313 
B( 13-N , 21-C ) :   0.9611 B( 17-C , 18-H ) :   0.9568 B( 17-C , 19-H ) :   0.9580 
B( 17-C , 20-H ) :   0.9745 B( 21-C , 22-H ) :   0.9518 B( 21-C , 23-H ) :   0.9673 
B( 21-C , 24-H ) :   0.9503 

-------
TIMINGS
-------

Total SCF time: 0 days 0 hours 0 min 16 sec 

Total time                  ....      16.018 sec
Sum of individual times     ....      15.287 sec  ( 95.4%)

Fock matrix formation       ....      13.282 sec  ( 82.9%)
  Split-RI-J                ....       1.190 sec  (  9.0% of F)
  Chain of spheres X        ....       8.727 sec  ( 65.7% of F)
  XC integration            ....       3.016 sec  ( 22.7% of F)
    Basis function eval.    ....       0.302 sec  ( 10.0% of XC)
    Density eval.           ....       0.420 sec  ( 13.9% of XC)
    XC-Functional eval.     ....       0.072 sec  (  2.4% of XC)
    XC-Potential eval.      ....       0.261 sec  (  8.7% of XC)
Diagonalization             ....       0.474 sec  (  3.0%)
Density matrix formation    ....       0.033 sec  (  0.2%)
Population analysis         ....       0.059 sec  (  0.4%)
Initial guess               ....       0.047 sec  (  0.3%)
Orbital Transformation      ....       0.000 sec  (  0.0%)
Orbital Orthonormalization  ....       0.030 sec  (  0.2%)
DIIS solution               ....       0.255 sec  (  1.6%)
Grid generation             ....       1.137 sec  (  7.1%)

Maximum memory used throughout the entire SCF-calculation: 77.6 MB

-------------------------   --------------------
FINAL SINGLE POINT ENERGY      -722.850349205139
-------------------------   --------------------

                                *** OPTIMIZATION RUN DONE ***

                            ***************************************
                            *     ORCA property calculations      *
                            ***************************************

                                    ---------------------
                                    Active property flags
                                    ---------------------
   (+) Dipole Moment


------------------------------------------------------------------------------
                       ORCA ELECTRIC PROPERTIES CALCULATION
------------------------------------------------------------------------------

Dipole Moment Calculation                       ... on
Quadrupole Moment Calculation                   ... off
Polarizability Calculation                      ... off
GBWName                                         ... opt.gbw
Electron density                                ... opt.scfp
The origin for moment calculation is the CENTER OF MASS  = (-5.665811, -7.005554 -1.304792)

-------------
DIPOLE MOMENT
-------------
                                X             Y             Z
Electronic contribution:      1.74891       5.20938      -2.76634
Nuclear contribution   :     -0.63441      -5.85175       3.29541
                        -----------------------------------------
Total Dipole Moment    :      1.11450      -0.64237       0.52907
                        -----------------------------------------
Magnitude (a.u.)       :      1.39093
Magnitude (Debye)      :      3.53545



--------------------
Rotational spectrum 
--------------------
 
Rotational constants in cm-1:     0.024094     0.014963     0.010912 
Rotational constants in MHz :   722.309000   448.576761   327.141162 

 Dipole components along the rotational axes: 
x,y,z [a.u.] :     0.527672    -1.077646    -0.703501 
x,y,z [Debye]:     1.341237    -2.739159    -1.788157 

 

Timings for individual modules:

Sum of individual times         ...      448.090 sec (=   7.468 min)
GTO integral calculation        ...       40.468 sec (=   0.674 min)   9.0 %
SCF iterations                  ...      306.289 sec (=   5.105 min)  68.4 %
SCF Gradient evaluation         ...      100.805 sec (=   1.680 min)  22.5 %
Geometry relaxation             ...        0.527 sec (=   0.009 min)   0.1 %
                             ****ORCA TERMINATED NORMALLY****
TOTAL RUN TIME: 0 days 0 hours 8 minutes 3 seconds 760 msec
