
                                 *****************
                                 * O   R   C   A *
                                 *****************

                                            #,                                       
                                            ###                                      
                                            ####                                     
                                            #####                                    
                                            ######                                   
                                           ########,                                 
                                     ,,################,,,,,                         
                               ,,#################################,,                 
                          ,,##########################################,,             
                       ,#########################################, ''#####,          
                    ,#############################################,,   '####,        
                  ,##################################################,,,,####,       
                ,###########''''           ''''###############################       
              ,#####''   ,,,,##########,,,,          '''####'''          '####       
            ,##' ,,,,###########################,,,                        '##       
           ' ,,###''''                  '''############,,,                           
         ,,##''                                '''############,,,,        ,,,,,,###''
      ,#''                                            '''#######################'''  
     '                                                          ''''####''''         
             ,#######,   #######,   ,#######,      ##                                
            ,#'     '#,  ##    ##  ,#'     '#,    #''#        ######   ,####,        
            ##       ##  ##   ,#'  ##            #'  '#       #        #'  '#        
            ##       ##  #######   ##           ,######,      #####,   #    #        
            '#,     ,#'  ##    ##  '#,     ,#' ,#      #,         ##   #,  ,#        
             '#######'   ##     ##  '#######'  #'      '#     #####' # '####'        



                  #######################################################
                  #                        -***-                        #
                  #          Department of theory and spectroscopy      #
                  #    Directorship and core code : Frank Neese         #
                  #        Max Planck Institute fuer Kohlenforschung    #
                  #                Kaiser Wilhelm Platz 1               #
                  #                 D-45470 Muelheim/Ruhr               #
                  #                      Germany                        #
                  #                                                     #
                  #                  All rights reserved                #
                  #                        -***-                        #
                  #######################################################


                         Program Version 5.0.4 -  RELEASE  -


 With contributions from (in alphabetic order):
   Daniel Aravena         : Magnetic Suceptibility
   Michael Atanasov       : Ab Initio Ligand Field Theory (pilot matlab implementation)
   Alexander A. Auer      : GIAO ZORA, VPT2 properties, NMR spectrum
   Ute Becker             : Parallelization
   Giovanni Bistoni       : ED, misc. LED, open-shell LED, HFLD
   Martin Brehm           : Molecular dynamics
   Dmytro Bykov           : SCF Hessian
   Vijay G. Chilkuri      : MRCI spin determinant printing, contributions to CSF-ICE
   Dipayan Datta          : RHF DLPNO-CCSD density
   Achintya Kumar Dutta   : EOM-CC, STEOM-CC
   Dmitry Ganyushin       : Spin-Orbit,Spin-Spin,Magnetic field MRCI
   Miquel Garcia          : C-PCM and meta-GGA Hessian, CC/C-PCM, Gaussian charge scheme
   Yang Guo               : DLPNO-NEVPT2, F12-NEVPT2, CIM, IAO-localization
   Andreas Hansen         : Spin unrestricted coupled pair/coupled cluster methods
   Benjamin Helmich-Paris : MC-RPA, TRAH-SCF, COSX integrals
   Lee Huntington         : MR-EOM, pCC
   Robert Izsak           : Overlap fitted RIJCOSX, COSX-SCS-MP3, EOM
   Marcus Kettner         : VPT2
   Christian Kollmar      : KDIIS, OOCD, Brueckner-CCSD(T), CCSD density, CASPT2, CASPT2-K
   Simone Kossmann        : Meta GGA functionals, TD-DFT gradient, OOMP2, MP2 Hessian
   Martin Krupicka        : Initial AUTO-CI
   Lucas Lang             : DCDCAS
   Marvin Lechner         : AUTO-CI (C++ implementation), FIC-MRCC
   Dagmar Lenk            : GEPOL surface, SMD
   Dimitrios Liakos       : Extrapolation schemes; Compound Job, initial MDCI parallelization
   Dimitrios Manganas     : Further ROCIS development; embedding schemes
   Dimitrios Pantazis     : SARC Basis sets
   Anastasios Papadopoulos: AUTO-CI, single reference methods and gradients
   Taras Petrenko         : DFT Hessian,TD-DFT gradient, ASA, ECA, R-Raman, ABS, FL, XAS/XES, NRVS
   Peter Pinski           : DLPNO-MP2, DLPNO-MP2 Gradient
   Christoph Reimann      : Effective Core Potentials
   Marius Retegan         : Local ZFS, SOC
   Christoph Riplinger    : Optimizer, TS searches, QM/MM, DLPNO-CCSD(T), (RO)-DLPNO pert. Triples
   Tobias Risthaus        : Range-separated hybrids, TD-DFT gradient, RPA, STAB
   Michael Roemelt        : Original ROCIS implementation
   Masaaki Saitow         : Open-shell DLPNO-CCSD energy and density
   Barbara Sandhoefer     : DKH picture change effects
   Avijit Sen             : IP-ROCIS
   Kantharuban Sivalingam : CASSCF convergence, NEVPT2, FIC-MRCI
   Bernardo de Souza      : ESD, SOC TD-DFT
   Georgi Stoychev        : AutoAux, RI-MP2 NMR, DLPNO-MP2 response
   Willem Van den Heuvel  : Paramagnetic NMR
   Boris Wezisla          : Elementary symmetry handling
   Frank Wennmohs         : Technical directorship


 We gratefully acknowledge several colleagues who have allowed us to
 interface, adapt or use parts of their codes:
   Stefan Grimme, W. Hujo, H. Kruse, P. Pracht,  : VdW corrections, initial TS optimization,
                  C. Bannwarth, S. Ehlert          DFT functionals, gCP, sTDA/sTD-DF
   Ed Valeev, F. Pavosevic, A. Kumar             : LibInt (2-el integral package), F12 methods
   Garnet Chan, S. Sharma, J. Yang, R. Olivares  : DMRG
   Ulf Ekstrom                                   : XCFun DFT Library
   Mihaly Kallay                                 : mrcc  (arbitrary order and MRCC methods)
   Jiri Pittner, Ondrej Demel                    : Mk-CCSD
   Frank Weinhold                                : gennbo (NPA and NBO analysis)
   Christopher J. Cramer and Donald G. Truhlar   : smd solvation model
   Lars Goerigk                                  : TD-DFT with DH, B97 family of functionals
   V. Asgeirsson, H. Jonsson                     : NEB implementation
   FAccTs GmbH                                   : IRC, NEB, NEB-TS, DLPNO-Multilevel, CI-OPT
                                                   MM, QMMM, 2- and 3-layer-ONIOM, Crystal-QMMM,
                                                   LR-CPCM, SF, NACMEs, symmetry and pop. for TD-DFT,
                                                   nearIR, NL-DFT gradient (VV10), updates on ESD,
                                                   ML-optimized integration grids
   S Lehtola, MJT Oliveira, MAL Marques          : LibXC Library
   Liviu Ungur et al                             : ANISO software


 Your calculation uses the libint2 library for the computation of 2-el integrals
 For citations please refer to: http://libint.valeyev.net

 Your ORCA version has been built with support for libXC version: 5.1.0
 For citations please refer to: https://tddft.org/programs/libxc/

 This ORCA versions uses:
   CBLAS   interface :  Fast vector & matrix operations
   LAPACKE interface :  Fast linear algebra routines
   SCALAPACK package :  Parallel linear algebra routines
   Shared memory     :  Shared parallel matrices
   BLAS/LAPACK       :  OpenBLAS 0.3.15  USE64BITINT DYNAMIC_ARCH NO_AFFINITY Zen SINGLE_THREADED
        Core in use  :  Zen
   Copyright (c) 2011-2014, The OpenBLAS Project




***************************************
The coordinates will be read from file: opt.xyz
***************************************


XCFun DFT library Copyright 2009-2010 Ulf Ekstrom and contributors.
See http://admol.org/xcfun for more information.
This is free software; see the source code for copying conditions.
There is ABSOLUTELY NO WARRANTY; not even for MERCHANTABILITY or FITNESS FOR A PARTICULAR PURPOSE.
For details see the documentation.
Scientific users of this library should cite U. Ekstrom, L. Visscher, R. Bast, A. J. Thorvaldsen and K. Ruud;
J.Chem.Theor.Comp. 2010, DOI: 10.1021/ct100117s
XCFun Version 0.99 

================================================================================

----- Orbital basis set information -----
Your calculation utilizes the basis: def2-TZVP
   F. Weigend and R. Ahlrichs, Phys. Chem. Chem. Phys. 7, 3297 (2005).

----- AuxJ basis set information -----
Your calculation utilizes the auxiliary basis: def2/J
   F. Weigend, Phys. Chem. Chem. Phys. 8, 1057 (2006).

================================================================================
                                        WARNINGS
                       Please study these warnings very carefully!
================================================================================


WARNING: your system is open-shell and RHF/RKS was chosen
  ===> : WILL SWITCH to UHF/UKS


WARNING: Geometry Optimization
  ===> : Switching off AutoStart
         For restart on a previous wavefunction, please use MOREAD

WARNING: Minnesota functionals are quite sensitive to the integration grid.
         see SE Wheeler, KN Houk, JCTC 2010, 6, 395,
             N Mardirossian, M Head-Gordon, JCTC 2016, 12, 4303.
         DEFGRID3 seems to be a minimum grid for reliable results with these functionals!
  ===> : Please increase the integration grid!


INFO   : the flag for use of the SHARK integral package has been found!

================================================================================
                                       INPUT FILE
================================================================================
NAME = freq.inp
|  1> ! M062X def2-TZVP OPT FREQ
|  2> %pal nprocs 16 end
|  3> *XYZFile 0 2 opt.xyz
|  4> 
|  5>                          ****END OF INPUT****
================================================================================

                       *****************************
                       * Geometry Optimization Run *
                       *****************************

Geometry optimization settings:
Update method            Update   .... BFGS
Choice of coordinates    CoordSys .... Z-matrix Internals
Initial Hessian          InHess   .... Almoef's Model

Convergence Tolerances:
Energy Change            TolE     ....  5.0000e-06 Eh
Max. Gradient            TolMAXG  ....  3.0000e-04 Eh/bohr
RMS Gradient             TolRMSG  ....  1.0000e-04 Eh/bohr
Max. Displacement        TolMAXD  ....  4.0000e-03 bohr
RMS Displacement         TolRMSD  ....  2.0000e-03 bohr
Strict Convergence                ....  False
------------------------------------------------------------------------------
                        ORCA OPTIMIZATION COORDINATE SETUP
------------------------------------------------------------------------------

The optimization will be done in new redundant internal coordinates
Making redundant internal coordinates   ...  (new redundants) done
Evaluating the initial hessian          ...  (Almloef) done
Evaluating the coordinates              ...  done
Calculating the B-matrix                .... done
Calculating the G-matrix                .... done
Diagonalizing the G-matrix              .... done
Small eigenvalue found = 9.181e-03
Small eigenvalue found = 1.097e-02
Small eigenvalue found = 1.297e-02
The first mode is                       ....   47
The number of degrees of freedom        ....   75

    -----------------------------------------------------------------
                    Redundant Internal Coordinates


    -----------------------------------------------------------------
         Definition                    Initial Value    Approx d2E/dq
    -----------------------------------------------------------------
      1. B(C   1,N   0)                  1.4501         0.448703   
      2. B(C   2,C   1)                  1.5447         0.353885   
      3. B(O   3,C   2)                  1.2323         0.998874   
      4. B(C   4,C   1)                  1.5583         0.336740   
      5. B(C   5,C   4)                  1.4929         0.428146   
      6. B(C   6,C   5)                  1.4530         0.495774   
      7. B(O   7,C   6)                  1.3722         0.597326   
      8. B(O   8,C   6)                  1.2272         1.017730   
      9. B(H   9,N   0)                  1.0130         0.428012   
     10. B(H  10,C   1)                  1.0971         0.350822   
     11. B(C  11,N   0)                  1.3685         0.605576   
     12. B(N  12,C   2)                  1.3596         0.625767   
     13. B(H  13,O   7)                  0.9697         0.501820   
     14. B(H  14,N  12)                  1.0077         0.436354   
     15. B(O  15,C  11)                  1.2319         1.000370   
     16. B(C  16,C  11)                  1.5243         0.381532   
     17. B(H  17,C  16)                  1.0938         0.355057   
     18. B(H  18,C  16)                  1.0931         0.356071   
     19. B(H  19,C  16)                  1.0929         0.356317   
     20. B(C  20,N  12)                  1.4617         0.429943   
     21. B(H  21,C  20)                  1.0930         0.356188   
     22. B(H  22,C  20)                  1.0914         0.358306   
     23. B(H  23,C  20)                  1.0942         0.354602   
     24. B(H  24,C   4)                  1.0942         0.354563   
     25. B(H  25,C   4)                  1.1013         0.345420   
     26. B(H  26,C   5)                  1.0851         0.366595   
     27. A(H   9,N   0,C  11)          122.0023         0.356574   
     28. A(C   1,N   0,C  11)          122.0800         0.402781   
     29. A(C   1,N   0,H   9)          115.1461         0.339019   
     30. A(N   0,C   1,C   4)          112.3929         0.366030   
     31. A(C   2,C   1,C   4)          111.9206         0.353717   
     32. A(N   0,C   1,C   2)          106.8881         0.369162   
     33. A(N   0,C   1,H  10)          108.9991         0.330833   
     34. A(C   2,C   1,H  10)          109.6289         0.320083   
     35. A(C   4,C   1,H  10)          106.9821         0.317500   
     36. A(C   1,C   2,N  12)          115.6595         0.391068   
     37. A(O   3,C   2,N  12)          122.7694         0.467891   
     38. A(C   1,C   2,O   3)          121.5669         0.424794   
     39. A(H  24,C   4,H  25)          106.1654         0.288247   
     40. A(C   1,C   4,H  25)          105.6074         0.316699   
     41. A(C   1,C   4,C   5)          113.8609         0.365379   
     42. A(C   5,C   4,H  25)          109.6869         0.329418   
     43. A(C   5,C   4,H  24)          110.4002         0.330844   
     44. A(C   1,C   4,H  24)          110.7284         0.318050   
     45. A(C   4,C   5,C   6)          124.7635         0.390667   
     46. A(C   4,C   5,H  26)          120.2327         0.332678   
     47. A(C   6,C   5,H  26)          114.9160         0.340902   
     48. A(C   5,C   6,O   7)          114.0902         0.411606   
     49. A(O   7,C   6,O   8)          121.5147         0.465513   
     50. A(C   5,C   6,O   8)          124.3951         0.452958   
     51. A(C   6,O   7,H  13)          105.5517         0.365524   
     52. A(O  15,C  11,C  16)          122.1223         0.430676   
     53. A(N   0,C  11,C  16)          115.8742         0.393982   
     54. A(N   0,C  11,O  15)          122.0033         0.465216   
     55. A(H  14,N  12,C  20)          119.0719         0.337698   
     56. A(C   2,N  12,C  20)          121.7953         0.402078   
     57. A(C   2,N  12,H  14)          119.0808         0.359748   
     58. A(H  18,C  16,H  19)          109.4428         0.289845   
     59. A(H  17,C  16,H  19)          107.6084         0.289716   
     60. A(C  11,C  16,H  19)          108.5587         0.324880   
     61. A(H  17,C  16,H  18)          109.2181         0.289684   
     62. A(C  11,C  16,H  18)          113.4172         0.324843   
     63. A(C  11,C  16,H  17)          108.4308         0.324690   
     64. A(N  12,C  20,H  21)          110.3608         0.329330   
     65. A(H  22,C  20,H  23)          109.2411         0.289911   
     66. A(H  21,C  20,H  23)          108.2697         0.289641   
     67. A(N  12,C  20,H  23)          110.9859         0.329088   
     68. A(H  21,C  20,H  22)          109.2785         0.290114   
     69. A(N  12,C  20,H  22)          108.6809         0.329653   
     70. D(C   4,C   1,N   0,C  11)     74.9773         0.017174   
     71. D(C   2,C   1,N   0,C  11)   -161.8575         0.017174   
     72. D(C   2,C   1,N   0,H   9)      8.2639         0.017174   
     73. D(H  10,C   1,N   0,C  11)    -43.4444         0.017174   
     74. D(C   4,C   1,N   0,H   9)   -114.9013         0.017174   
     75. D(H  10,C   1,N   0,H   9)    126.6770         0.017174   
     76. D(N  12,C   2,C   1,H  10)     50.9447         0.009444   
     77. D(O   3,C   2,C   1,N   0)    -11.7736         0.009444   
     78. D(O   3,C   2,C   1,H  10)   -129.7752         0.009444   
     79. D(N  12,C   2,C   1,C   4)    -67.5959         0.009444   
     80. D(N  12,C   2,C   1,N   0)    168.9462         0.009444   
     81. D(O   3,C   2,C   1,C   4)    111.6842         0.009444   
     82. D(C   5,C   4,C   1,H  10)   -178.5266         0.009198   
     83. D(C   5,C   4,C   1,C   2)    -58.4267         0.009198   
     84. D(C   5,C   4,C   1,N   0)     61.8706         0.009198   
     85. D(H  25,C   4,C   1,H  10)     61.0739         0.009198   
     86. D(H  25,C   4,C   1,C   2)   -178.8263         0.009198   
     87. D(H  25,C   4,C   1,N   0)    -58.5290         0.009198   
     88. D(H  24,C   4,C   1,H  10)    -53.4323         0.009198   
     89. D(H  24,C   4,C   1,C   2)     66.6675         0.009198   
     90. D(H  24,C   4,C   1,N   0)   -173.0352         0.009198   
     91. D(H  26,C   5,C   4,H  24)   -159.7252         0.013541   
     92. D(H  26,C   5,C   4,C   1)    -34.4563         0.013541   
     93. D(C   6,C   5,C   4,H  25)    -92.7907         0.013541   
     94. D(C   6,C   5,C   4,H  24)     23.8598         0.013541   
     95. D(H  26,C   5,C   4,H  25)     83.6243         0.013541   
     96. D(C   6,C   5,C   4,C   1)    149.1287         0.013541   
     97. D(O   8,C   6,C   5,H  26)     -0.4849         0.016739   
     98. D(O   8,C   6,C   5,C   4)    176.1000         0.016739   
     99. D(O   7,C   6,C   5,H  26)    179.5914         0.016739   
    100. D(O   7,C   6,C   5,C   4)     -3.8237         0.016739   
    101. D(H  13,O   7,C   6,O   8)     -0.5307         0.026044   
    102. D(H  13,O   7,C   6,C   5)    179.3954         0.026044   
    103. D(C  16,C  11,N   0,H   9)      6.4140         0.029589   
    104. D(C  16,C  11,N   0,C   1)    175.8617         0.029589   
    105. D(O  15,C  11,N   0,H   9)   -173.7362         0.029589   
    106. D(O  15,C  11,N   0,C   1)     -4.2885         0.029589   
    107. D(C  20,N  12,C   2,O   3)     -2.0388         0.031755   
    108. D(C  20,N  12,C   2,C   1)    177.2318         0.031755   
    109. D(H  14,N  12,C   2,O   3)   -179.3917         0.031755   
    110. D(H  14,N  12,C   2,C   1)     -0.1212         0.031755   
    111. D(H  19,C  16,C  11,N   0)    126.3436         0.010857   
    112. D(H  18,C  16,C  11,O  15)   -175.3795         0.010857   
    113. D(H  18,C  16,C  11,N   0)      4.4701         0.010857   
    114. D(H  17,C  16,C  11,O  15)     63.1249         0.010857   
    115. D(H  19,C  16,C  11,O  15)    -53.5060         0.010857   
    116. D(H  17,C  16,C  11,N   0)   -117.0255         0.010857   
    117. D(H  23,C  20,N  12,H  14)    113.4125         0.015760   
    118. D(H  23,C  20,N  12,C   2)    -63.9406         0.015760   
    119. D(H  22,C  20,N  12,H  14)     -6.7382         0.015760   
    120. D(H  22,C  20,N  12,C   2)    175.9086         0.015760   
    121. D(H  21,C  20,N  12,H  14)   -126.5549         0.015760   
    122. D(H  21,C  20,N  12,C   2)     56.0920         0.015760   
    -----------------------------------------------------------------

Number of atoms                         .... 27
Number of degrees of freedom            .... 122

         *************************************************************
         *                GEOMETRY OPTIMIZATION CYCLE   1            *
         *************************************************************
---------------------------------
CARTESIAN COORDINATES (ANGSTROEM)
---------------------------------
  N     -4.445475   -4.718182   -0.765658
  C     -2.995774   -4.715649   -0.800385
  C     -2.511813   -4.684955    0.666264
  O     -3.286285   -4.453622    1.596418
  C     -2.423852   -3.524759   -1.626733
  C     -2.778219   -2.182832   -1.076858
  C     -1.948386   -0.995559   -1.190269
  O     -0.734101   -1.216122   -1.790192
  O     -2.275973    0.119436   -0.795982
  H     -4.854390   -4.568801    0.148991
  H     -2.648475   -5.637205   -1.283869
  C     -5.197621   -5.102735   -1.842321
  N     -1.184634   -4.913233    0.853175
  H     -0.293226   -0.352705   -1.809923
  H     -0.599955   -5.087747    0.051187
  O     -4.686964   -5.393799   -2.924918
  C     -6.704952   -5.144947   -1.619726
  H     -7.044265   -6.177245   -1.745069
  H     -7.008779   -4.783534   -0.633899
  H     -7.187756   -4.542057   -2.392901
  C     -0.572642   -4.856270    2.179418
  H     -1.079387   -5.543310    2.861896
  H      0.476767   -5.143148    2.092765
  H     -0.637267   -3.847301    2.597811
  H     -1.339290   -3.616708   -1.738924
  H     -2.847115   -3.635119   -2.637473
  H     -3.739082   -2.024958   -0.597969

----------------------------
CARTESIAN COORDINATES (A.U.)
----------------------------
  NO LB      ZA    FRAG     MASS         X           Y           Z
   0 N     7.0000    0    14.007   -8.400730   -8.916072   -1.446885
   1 C     6.0000    0    12.011   -5.661192   -8.911285   -1.512508
   2 C     6.0000    0    12.011   -4.746639   -8.853282    1.259056
   3 O     8.0000    0    15.999   -6.210179   -8.416126    3.016793
   4 C     6.0000    0    12.011   -4.580416   -6.660829   -3.074080
   5 C     6.0000    0    12.011   -5.250073   -4.124955   -2.034967
   6 C     6.0000    0    12.011   -3.681915   -1.881333   -2.249283
   7 O     8.0000    0    15.999   -1.387251   -2.298138   -3.382973
   8 O     8.0000    0    15.999   -4.300966    0.225700   -1.504187
   9 H     1.0000    0     1.008   -9.173467   -8.633783    0.281552
  10 H     1.0000    0     1.008   -5.004893  -10.652775   -2.426161
  11 C     6.0000    0    12.011   -9.822081   -9.642772   -3.481482
  12 N     7.0000    0    14.007   -2.238634   -9.284665    1.612268
  13 H     1.0000    0     1.008   -0.554117   -0.666516   -3.420258
  14 H     1.0000    0     1.008   -1.133750   -9.614448    0.096729
  15 O     8.0000    0    15.999   -8.857078  -10.192802   -5.527294
  16 C     6.0000    0    12.011  -12.670523   -9.722541   -3.060839
  17 H     1.0000    0     1.008  -13.311732  -11.673302   -3.297703
  18 H     1.0000    0     1.008  -13.244673   -9.039569   -1.197896
  19 H     1.0000    0     1.008  -13.582891   -8.583244   -4.521928
  20 C     6.0000    0    12.011   -1.082136   -9.177020    4.118502
  21 H     1.0000    0     1.008   -2.039745  -10.475338    5.408199
  22 H     1.0000    0     1.008    0.900958   -9.719141    3.954752
  23 H     1.0000    0     1.008   -1.204261   -7.270345    4.909151
  24 H     1.0000    0     1.008   -2.530892   -6.834587   -3.286089
  25 H     1.0000    0     1.008   -5.380269   -6.869380   -4.984102
  26 H     1.0000    0     1.008   -7.065841   -3.826617   -1.129998

--------------------------------
INTERNAL COORDINATES (ANGSTROEM)
--------------------------------
 N      0   0   0     0.000000000000     0.00000000     0.00000000
 C      1   0   0     1.450119313716     0.00000000     0.00000000
 C      2   1   0     1.544738928930   106.88811032     0.00000000
 O      3   2   1     1.232278033921   121.56694327   348.22635344
 C      2   1   3     1.558257037569   112.39288237   236.83478764
 C      5   2   1     1.492885399750   113.86088831    61.87057679
 C      6   5   2     1.452963734546   124.76353796   149.12870398
 O      7   6   5     1.372239558212   114.09017357   356.17633253
 O      7   6   5     1.227187307514   124.39508409   176.10003065
 H      1   2   3     1.012970613737   115.14609811     8.26387453
 H      2   1   3     1.097105116564   108.99911584   118.41308331
 C      1   2   3     1.368505514642   122.08003722   198.14251225
 N      3   2   1     1.359577428214   115.65949143   168.94624719
 H      8   7   6     0.969664385065   105.55166541   179.39539858
 H     13   3   2     1.007715659731   119.08079161   359.87882555
 O     12   1   2     1.231870782602   122.00330384   355.71147987
 C     12   1   2     1.524262705615   115.87419852   175.86168692
 H     17  12   1     1.093839218735   108.43079066   242.97448387
 H     17  12   1     1.093062679881   113.41715558     4.47010128
 H     17  12   1     1.092874812306   108.55865254   126.34362367
 C     13   3   2     1.461744908691   121.79531311   177.23176279
 H     21  13   3     1.092973641260   110.36079076    56.09195897
 H     21  13   3     1.091359420092   108.68086310   175.90862855
 H     21  13   3     1.094187807608   110.98590289   296.05935811
 H      5   2   1     1.094218470793   110.72842257   186.96482555
 H      5   2   1     1.101329764141   105.60742998   301.47101063
 H      6   5   2     1.085134064355   120.23273002   325.54369297

---------------------------
INTERNAL COORDINATES (A.U.)
---------------------------
 N      0   0   0     0.000000000000     0.00000000     0.00000000
 C      1   0   0     2.740328364433     0.00000000     0.00000000
 C      2   1   0     2.919133524085   106.88811032     0.00000000
 O      3   2   1     2.328668004958   121.56694327   348.22635344
 C      2   1   3     2.944679047261   112.39288237   236.83478764
 C      5   2   1     2.821144554857   113.86088831    61.87057679
 C      6   5   2     2.745703540812   124.76353796   149.12870398
 O      7   6   5     2.593156955154   114.09017357   356.17633253
 O      7   6   5     2.319047926226   124.39508409   176.10003065
 H      1   2   3     1.914237041673   115.14609811     8.26387453
 H      2   1   3     2.073228210429   108.99911584   118.41308331
 C      1   2   3     2.586100635434   122.08003722   198.14251225
 N      3   2   1     2.569228997185   115.65949143   168.94624719
 H      8   7   6     1.832400129590   105.55166541   179.39539858
 H     13   3   2     1.904306617756   119.08079161   359.87882555
 O     12   1   2     2.327898411497   122.00330384   355.71147987
 C     12   1   2     2.880439069762   115.87419852   175.86168692
 H     17  12   1     2.067056557951   108.43079066   242.97448387
 H     17  12   1     2.065589112185   113.41715558     4.47010128
 H     17  12   1     2.065234093919   108.55865254   126.34362367
 C     13   3   2     2.762297555080   121.79531311   177.23176279
 H     21  13   3     2.065420853575   110.36079076    56.09195897
 H     21  13   3     2.062370417649   108.68086310   175.90862855
 H     21  13   3     2.067715295456   110.98590289   296.05935811
 H      5   2   1     2.067773240477   110.72842257   186.96482555
 H      5   2   1     2.081211637363   105.60742998   301.47101063
 H      6   5   2     2.050606200219   120.23273002   325.54369297

---------------------
BASIS SET INFORMATION
---------------------
There are 4 groups of distinct atoms

 Group   1 Type N   : 11s6p2d1f contracted to 5s3p2d1f pattern {62111/411/11/1}
 Group   2 Type C   : 11s6p2d1f contracted to 5s3p2d1f pattern {62111/411/11/1}
 Group   3 Type O   : 11s6p2d1f contracted to 5s3p2d1f pattern {62111/411/11/1}
 Group   4 Type H   : 5s1p contracted to 3s1p pattern {311/1}

Atom   0N    basis set group =>   1
Atom   1C    basis set group =>   2
Atom   2C    basis set group =>   2
Atom   3O    basis set group =>   3
Atom   4C    basis set group =>   2
Atom   5C    basis set group =>   2
Atom   6C    basis set group =>   2
Atom   7O    basis set group =>   3
Atom   8O    basis set group =>   3
Atom   9H    basis set group =>   4
Atom  10H    basis set group =>   4
Atom  11C    basis set group =>   2
Atom  12N    basis set group =>   1
Atom  13H    basis set group =>   4
Atom  14H    basis set group =>   4
Atom  15O    basis set group =>   3
Atom  16C    basis set group =>   2
Atom  17H    basis set group =>   4
Atom  18H    basis set group =>   4
Atom  19H    basis set group =>   4
Atom  20C    basis set group =>   2
Atom  21H    basis set group =>   4
Atom  22H    basis set group =>   4
Atom  23H    basis set group =>   4
Atom  24H    basis set group =>   4
Atom  25H    basis set group =>   4
Atom  26H    basis set group =>   4
---------------------------------
AUXILIARY/J BASIS SET INFORMATION
---------------------------------
There are 4 groups of distinct atoms

 Group   1 Type N   : 12s5p4d2f1g contracted to 6s4p3d1f1g pattern {711111/2111/211/2/1}
 Group   2 Type C   : 12s5p4d2f1g contracted to 6s4p3d1f1g pattern {711111/2111/211/2/1}
 Group   3 Type O   : 12s5p4d2f1g contracted to 6s4p3d1f1g pattern {711111/2111/211/2/1}
 Group   4 Type H   : 5s2p1d contracted to 3s1p1d pattern {311/2/1}

Atom   0N    basis set group =>   1
Atom   1C    basis set group =>   2
Atom   2C    basis set group =>   2
Atom   3O    basis set group =>   3
Atom   4C    basis set group =>   2
Atom   5C    basis set group =>   2
Atom   6C    basis set group =>   2
Atom   7O    basis set group =>   3
Atom   8O    basis set group =>   3
Atom   9H    basis set group =>   4
Atom  10H    basis set group =>   4
Atom  11C    basis set group =>   2
Atom  12N    basis set group =>   1
Atom  13H    basis set group =>   4
Atom  14H    basis set group =>   4
Atom  15O    basis set group =>   3
Atom  16C    basis set group =>   2
Atom  17H    basis set group =>   4
Atom  18H    basis set group =>   4
Atom  19H    basis set group =>   4
Atom  20C    basis set group =>   2
Atom  21H    basis set group =>   4
Atom  22H    basis set group =>   4
Atom  23H    basis set group =>   4
Atom  24H    basis set group =>   4
Atom  25H    basis set group =>   4
Atom  26H    basis set group =>   4


           ************************************************************
           *        Program running with 16 parallel MPI-processes    *
           *              working on a common directory               *
           ************************************************************
------------------------------------------------------------------------------
                           ORCA GTO INTEGRAL CALCULATION
                           -- RI-GTO INTEGRALS CHOSEN --
------------------------------------------------------------------------------
------------------------------------------------------------------------------
                   ___                                                        
                  /   \      - P O W E R E D   B Y -                         
                 /     \                                                     
                 |  |  |   _    _      __       _____    __    __             
                 |  |  |  | |  | |    /  \     |  _  \  |  |  /  |          
                  \  \/   | |  | |   /    \    | | | |  |  | /  /          
                 / \  \   | |__| |  /  /\  \   | |_| |  |  |/  /          
                |  |  |   |  __  | /  /__\  \  |    /   |      \           
                |  |  |   | |  | | |   __   |  |    \   |  |\   \          
                \     /   | |  | | |  |  |  |  | |\  \  |  | \   \       
                 \___/    |_|  |_| |__|  |__|  |_| \__\ |__|  \__/        
                                                                              
                      - O R C A' S   B I G   F R I E N D -                    
                                      &                                       
                       - I N T E G R A L  F E E D E R -                       
                                                                              
 v1 FN, 2020, v2 2021                                                         
------------------------------------------------------------------------------


Reading SHARK input file freq.SHARKINP.tmp ... ok
----------------------
SHARK INTEGRAL PACKAGE
----------------------

Number of atoms                             ...     27
Number of basis functions                   ...    512
Number of shells                            ...    206
Maximum angular momentum                    ...      3
Integral batch strategy                     ... SHARK/LIBINT Hybrid
RI-J (if used) integral strategy            ... SPLIT-RIJ (Revised 2003 algorithm where possible)
Printlevel                                  ...      1
Contraction scheme used                     ... SEGMENTED contraction
Coulomb Range Separation                    ... NOT USED
Exchange Range Separation                   ... NOT USED
Finite Nucleus Model                        ... NOT USED
Auxiliary Coulomb fitting basis             ... AVAILABLE
   # of basis functions in Aux-J            ...    829
   # of shells in Aux-J                     ...    275
   Maximum angular momentum in Aux-J        ...      4
Auxiliary J/K fitting basis                 ... NOT available
Auxiliary Correlation fitting basis         ... NOT available
Auxiliary 'external' fitting basis          ... NOT available
Integral threshold                          ...     2.500000e-11
Primitive cut-off                           ...     2.500000e-12
Primitive pair pre-selection threshold      ...     2.500000e-12

Calculating pre-screening integrals         ... done (  0.0 sec) Dimension = 206
Organizing shell pair data                  ... done (  0.1 sec)
Shell pair information
Total number of shell pairs                 ...     21321
Shell pairs after pre-screening             ...     16518
Total number of primitive shell pairs       ...     64608
Primitive shell pairs kept                  ...     34769
          la=0 lb=0:   4533 shell pairs
          la=1 lb=0:   4794 shell pairs
          la=1 lb=1:   1292 shell pairs
          la=2 lb=0:   2306 shell pairs
          la=2 lb=1:   1233 shell pairs
          la=2 lb=2:    314 shell pairs
          la=3 lb=0:   1094 shell pairs
          la=3 lb=1:    598 shell pairs
          la=3 lb=2:    280 shell pairs
          la=3 lb=3:     74 shell pairs

Calculating one electron integrals          ... done (  0.0 sec)
Calculating RI/J V-Matrix + Cholesky decomp.... done (  0.0 sec)
Calculating Nuclear repulsion               ... done (  0.0 sec) ENN=    913.147454735840 Eh

SHARK setup successfully completed in   0.3 seconds

Maximum memory used throughout the entire GTOINT-calculation: 28.8 MB


           ************************************************************
           *        Program running with 16 parallel MPI-processes    *
           *              working on a common directory               *
           ************************************************************
-------------------------------------------------------------------------------
                                 ORCA SCF
-------------------------------------------------------------------------------

------------
SCF SETTINGS
------------
Hamiltonian:
 Density Functional     Method          .... DFT(GTOs)
 Exchange Functional    Exchange        .... M062X
 Correlation Functional Correlation     .... M062X
 Gradients option       PostSCFGGA      .... off
 Hybrid DFT is turned on
   Fraction HF Exchange ScalHFX         ....  0.540000
   Scaling of DF-GGA-X  ScalDFX         ....  0.460000
   Scaling of DF-GGA-C  ScalDFC         ....  1.000000
   Scaling of DF-LDA-C  ScalLDAC        ....  1.000000
   Perturbative correction              ....  0.000000
   Density functional embedding theory  .... OFF
 RI-approximation to the Coulomb term is turned on
   Number of AuxJ basis functions       .... 829
   RIJ-COSX (HFX calculated with COS-X)).... on


General Settings:
 Integral files         IntName         .... freq
 Hartree-Fock type      HFTyp           .... UHF
 Total Charge           Charge          ....    0
 Multiplicity           Mult            ....    2
 Number of Electrons    NEL             ....  107
 Basis Dimension        Dim             ....  512
 Nuclear Repulsion      ENuc            ....    913.1474547358 Eh

Convergence Acceleration:
 DIIS                   CNVDIIS         .... on
   Start iteration      DIISMaxIt       ....    12
   Startup error        DIISStart       ....  0.200000
   # of expansion vecs  DIISMaxEq       ....     5
   Bias factor          DIISBfac        ....   1.050
   Max. coefficient     DIISMaxC        ....  10.000
 Trust-Rad. Augm. Hess. CNVTRAH         .... auto
   Auto Start mean grad. ratio tolernc. ....  1.125000
   Auto Start start iteration           ....    20
   Auto Start num. interpolation iter.  ....    10
   Max. Number of Micro iterations      ....    16
   Max. Number of Macro iterations      .... Maxiter - #DIIS iter
   Number of Davidson start vectors     ....     2
   Converg. threshold I  (grad. norm)   ....   1.000e-05
   Converg. threshold II (energy diff.) ....   1.000e-08
   Grad. Scal. Fac. for Micro threshold ....   0.100
   Minimum threshold for Micro iter.    ....   0.010
   NR start threshold (gradient norm)   ....   0.001
   Initial trust radius                 ....   0.400
   Minimum AH scaling param. (alpha)    ....   1.000
   Maximum AH scaling param. (alpha)    .... 1000.000
   Orbital update algorithm             .... Taylor
   White noise on init. David. guess    .... on
   Maximum white noise                  ....   0.010
   Quad. conv. algorithm                .... NR
 SOSCF                  CNVSOSCF        .... off
 Level Shifting         CNVShift        .... on
   Level shift para.    LevelShift      ....    0.2500
   Turn off err/grad.   ShiftErr        ....    0.0010
 Zerner damping         CNVZerner       .... off
 Static damping         CNVDamp         .... on
   Fraction old density DampFac         ....    0.7000
   Max. Damping (<1)    DampMax         ....    0.9800
   Min. Damping (>=0)   DampMin         ....    0.0000
   Turn off err/grad.   DampErr         ....    0.1000
 Fernandez-Rico         CNVRico         .... off

SCF Procedure:
 Maximum # iterations   MaxIter         ....   125
 SCF integral mode      SCFMode         .... Direct
   Integral package                     .... SHARK and LIBINT hybrid scheme
 Reset frequency        DirectResetFreq ....    20
 Integral Threshold     Thresh          ....  2.500e-11 Eh
 Primitive CutOff       TCut            ....  2.500e-12 Eh

Convergence Tolerance:
 Convergence Check Mode ConvCheckMode   .... Total+1el-Energy
 Convergence forced     ConvForced      .... 0
 Energy Change          TolE            ....  1.000e-08 Eh
 1-El. energy change                    ....  1.000e-05 Eh
 DIIS Error             TolErr          ....  5.000e-07


Diagonalization of the overlap matrix:
Smallest eigenvalue                        ... 6.722e-05
Time for diagonalization                   ...    0.039 sec
Threshold for overlap eigenvalues          ... 1.000e-08
Number of eigenvalues below threshold      ... 0
Time for construction of square roots      ...    0.022 sec
Total time needed                          ...    0.063 sec

Time for model grid setup =    0.105 sec

------------------------------
INITIAL GUESS: MODEL POTENTIAL
------------------------------
Loading Hartree-Fock densities                     ... done
Calculating cut-offs                               ... done
Initializing the effective Hamiltonian             ... done
Setting up the integral package (SHARK)            ... done
Starting the Coulomb interaction                   ... done (   0.1 sec)
Reading the grid                                   ... done
Mapping shells                                     ... done
Starting the XC term evaluation                    ... done (   0.1 sec)
  promolecular density results
     # of electrons  =    106.990348289
     EX              =    -90.409999138
     EC              =     -3.577224832
     EX+EC           =    -93.987223971
Transforming the Hamiltonian                       ... done (   0.0 sec)
Diagonalizing the Hamiltonian                      ... done (   0.0 sec)
Back transforming the eigenvectors                 ... done (   0.0 sec)
Now organizing SCF variables                       ... done
                      ------------------
                      INITIAL GUESS DONE (   0.4 sec)
                      ------------------
-------------------
DFT GRID GENERATION
-------------------

General Integration Accuracy     IntAcc      ... 4.388
Radial Grid Type                 RadialGrid  ... OptM3 with GC (2021)
Angular Grid (max. ang.)         AngularGrid ... 4 (Lebedev-302)
Angular grid pruning method      GridPruning ... 4 (adaptive)
Weight generation scheme         WeightScheme... Becke
Basis function cutoff            BFCut       ... 1.0000e-11
Integration weight cutoff        WCut        ... 1.0000e-14
Angular grids for H and He will be reduced by one unit
Partially contracted basis set               ... off
Rotationally invariant grid construction     ... off

Total number of grid points                  ...   125952
Total number of batches                      ...     1982
Average number of points per batch           ...       63
Average number of grid points per atom       ...     4665
Time for grid setup =    0.537 sec

--------------------
COSX GRID GENERATION
--------------------

GRIDX 1
-------
General Integration Accuracy     IntAcc      ... 3.816
Radial Grid Type                 RadialGrid  ... OptM3 with GC (2021)
Angular Grid (max. ang.)         AngularGrid ... 1 (Lebedev-50)
Angular grid pruning method      GridPruning ... 4 (adaptive)
Weight generation scheme         WeightScheme... Becke
Basis function cutoff            BFCut       ... 1.0000e-11
Integration weight cutoff        WCut        ... 1.0000e-14
Angular grids for H and He will be reduced by one unit
Partially contracted basis set               ... on
Rotationally invariant grid construction     ... off

Total number of grid points                  ...    16054
Total number of batches                      ...      265
Average number of points per batch           ...       60
Average number of grid points per atom       ...      595
UseSFitting                                  ... on

GRIDX 2
-------
General Integration Accuracy     IntAcc      ... 4.020
Radial Grid Type                 RadialGrid  ... OptM3 with GC (2021)
Angular Grid (max. ang.)         AngularGrid ... 2 (Lebedev-110)
Angular grid pruning method      GridPruning ... 4 (adaptive)
Weight generation scheme         WeightScheme... Becke
Basis function cutoff            BFCut       ... 1.0000e-11
Integration weight cutoff        WCut        ... 1.0000e-14
Angular grids for H and He will be reduced by one unit
Partially contracted basis set               ... on
Rotationally invariant grid construction     ... off

Total number of grid points                  ...    34744
Total number of batches                      ...      557
Average number of points per batch           ...       62
Average number of grid points per atom       ...     1287
UseSFitting                                  ... on

GRIDX 3
-------
General Integration Accuracy     IntAcc      ... 4.338
Radial Grid Type                 RadialGrid  ... OptM3 with GC (2021)
Angular Grid (max. ang.)         AngularGrid ... 3 (Lebedev-194)
Angular grid pruning method      GridPruning ... 4 (adaptive)
Weight generation scheme         WeightScheme... Becke
Basis function cutoff            BFCut       ... 1.0000e-11
Integration weight cutoff        WCut        ... 1.0000e-14
Angular grids for H and He will be reduced by one unit
Partially contracted basis set               ... on
Rotationally invariant grid construction     ... off

Total number of grid points                  ...    76102
Total number of batches                      ...     1203
Average number of points per batch           ...       63
Average number of grid points per atom       ...     2819
UseSFitting                                  ... on

Time for X-Grid setup             =    0.689 sec

--------------
SCF ITERATIONS
--------------
ITER       Energy         Delta-E        Max-DP      RMS-DP      [F,P]     Damp
               ***  Starting incremental Fock matrix formation  ***
  0   -722.5755915277   0.000000000000 0.07271305  0.00052748  0.1506674 0.7000
  1   -722.7985891872  -0.222997659528 0.06540127  0.00043310  0.0718304 0.7000
                               ***Turning on DIIS***
  2   -722.8933343632  -0.094745176026 0.10327547  0.00075583  0.0262158 0.0000
  3   -723.0495119903  -0.156177627016 0.06345086  0.00032947  0.0375122 0.0000
  4   -723.0770536053  -0.027541615015 0.01479984  0.00009020  0.0066416 0.0000
  5   -723.0784319201  -0.001378314795 0.00632366  0.00004231  0.0029642 0.0000
  6   -723.0787170394  -0.000285119362 0.00213382  0.00002101  0.0015598 0.0000
  7   -723.0788212467  -0.000104207253 0.00246680  0.00002264  0.0008840 0.0000
               *** Restarting incremental Fock matrix formation ***
                                   *** Resetting DIIS ***
  8   -723.0788855443  -0.000064297582 0.00055508  0.00000714  0.0005973 0.0000
  9   -723.0788914012  -0.000005856932 0.00024049  0.00000265  0.0006350 0.0000
 10   -723.0788945899  -0.000003188719 0.00034405  0.00000270  0.0002342 0.0000
 11   -723.0788963551  -0.000001765151 0.00023599  0.00000155  0.0001556 0.0000
 12   -723.0788967734  -0.000000418372 0.00009807  0.00000055  0.0000946 0.0000
 13   -723.0788968909  -0.000000117421 0.00004284  0.00000031  0.0000385 0.0000
 14   -723.0788969323  -0.000000041430 0.00002710  0.00000020  0.0000188 0.0000
 15   -723.0788969367  -0.000000004373 0.00001212  0.00000010  0.0000067 0.0000
 16   -723.0788969335   0.000000003158 0.00000446  0.00000004  0.0000054 0.0000
 17   -723.0788969239   0.000000009627 0.00000494  0.00000002  0.0000022 0.0000
 18   -723.0788969519  -0.000000027976 0.00000232  0.00000002  0.0000011 0.0000
                            ***DIIS convergence achieved***

               *****************************************************
               *                     SUCCESS                       *
               *           SCF CONVERGED AFTER  19 CYCLES          *
               *****************************************************

Old exchange energy                            =    -49.794952761 Eh
New exchange energy                            =    -49.795019228 Eh
Exchange energy change after final integration =     -0.000066467 Eh
Total energy after final integration           =   -723.078963419 Eh
Final COS-X integration done in                =     3.956 sec

----------------
TOTAL SCF ENERGY
----------------

Total Energy       :         -723.07896342 Eh          -19675.97890 eV

Components:
Nuclear Repulsion  :          913.14745474 Eh           24848.00549 eV
Electronic Energy  :        -1636.22641815 Eh          -44523.98439 eV
One Electron Energy:        -2797.94265127 Eh          -76135.89021 eV
Two Electron Energy:         1161.71623312 Eh           31611.90582 eV
Max COSX asymmetry :            0.00000109 Eh               0.00003 eV

Virial components:
Potential Energy   :        -1442.39782435 Eh          -39249.64021 eV
Kinetic Energy     :          719.31886093 Eh           19573.66131 eV
Virial Ratio       :            2.00522731


DFT components:
N(Alpha)           :       54.000036433078 electrons
N(Beta)            :       53.000042960545 electrons
N(Total)           :      107.000079393622 electrons
E(XC)              :      -46.398316472039 Eh       
DFET-embed. en.    :        0.000000000000 Eh       

---------------
SCF CONVERGENCE
---------------

  Last Energy change         ...    1.9031e-10  Tolerance :   1.0000e-08
  Last MAX-Density change    ...    0.0000e+00  Tolerance :   1.0000e-07
  Last RMS-Density change    ...    0.0000e+00  Tolerance :   5.0000e-09
  Last DIIS Error            ...    9.0981e-07  Tolerance :   5.0000e-07

             **** THE GBW FILE WAS UPDATED (freq.gbw) ****
             **** DENSITY freq.scfp WAS UPDATED ****
             **** ENERGY FILE WAS UPDATED (freq.en.tmp) ****
----------------------
UHF SPIN CONTAMINATION
----------------------

Warning: in a DFT calculation there is little theoretical justification to 
         calculate <S**2> as in Hartree-Fock theory. We will do it anyways
         but you should keep in mind that the values have only limited relevance

Expectation value of <S**2>     :     0.760745
Ideal value S*(S+1) for S=0.5   :     0.750000
Deviation                       :     0.010745

             **** THE GBW FILE WAS UPDATED (freq.gbw) ****
             **** DENSITY freq.scfp WAS UPDATED ****
----------------
ORBITAL ENERGIES
----------------
                 SPIN UP ORBITALS
  NO   OCC          E(Eh)            E(eV) 
   0   1.0000     -19.674339      -535.3660 
   1   1.0000     -19.621836      -533.9373 
   2   1.0000     -19.618189      -533.8381 
   3   1.0000     -19.597032      -533.2624 
   4   1.0000     -14.797831      -402.6694 
   5   1.0000     -14.780424      -402.1958 
   6   1.0000     -10.679652      -290.6081 
   7   1.0000     -10.667418      -290.2752 
   8   1.0000     -10.653395      -289.8936 
   9   1.0000     -10.611701      -288.7591 
  10   1.0000     -10.590255      -288.1755 
  11   1.0000     -10.587559      -288.1021 
  12   1.0000     -10.569475      -287.6100 
  13   1.0000     -10.547532      -287.0129 
  14   1.0000      -1.230228       -33.4762 
  15   1.0000      -1.181534       -32.1512 
  16   1.0000      -1.159589       -31.5540 
  17   1.0000      -1.137146       -30.9433 
  18   1.0000      -1.051786       -28.6205 
  19   1.0000      -1.042633       -28.3715 
  20   1.0000      -0.924044       -25.1445 
  21   1.0000      -0.864526       -23.5250 
  22   1.0000      -0.832142       -22.6437 
  23   1.0000      -0.802650       -21.8412 
  24   1.0000      -0.748651       -20.3718 
  25   1.0000      -0.692989       -18.8572 
  26   1.0000      -0.691024       -18.8037 
  27   1.0000      -0.665163       -18.1000 
  28   1.0000      -0.628972       -17.1152 
  29   1.0000      -0.592115       -16.1123 
  30   1.0000      -0.582713       -15.8564 
  31   1.0000      -0.562397       -15.3036 
  32   1.0000      -0.558790       -15.2055 
  33   1.0000      -0.554862       -15.0986 
  34   1.0000      -0.544026       -14.8037 
  35   1.0000      -0.538128       -14.6432 
  36   1.0000      -0.534873       -14.5546 
  37   1.0000      -0.513971       -13.9859 
  38   1.0000      -0.506514       -13.7830 
  39   1.0000      -0.487839       -13.2748 
  40   1.0000      -0.485621       -13.2144 
  41   1.0000      -0.480899       -13.0859 
  42   1.0000      -0.478748       -13.0274 
  43   1.0000      -0.467703       -12.7269 
  44   1.0000      -0.454696       -12.3729 
  45   1.0000      -0.449184       -12.2229 
  46   1.0000      -0.427468       -11.6320 
  47   1.0000      -0.413129       -11.2418 
  48   1.0000      -0.367922       -10.0117 
  49   1.0000      -0.359649        -9.7866 
  50   1.0000      -0.347816        -9.4646 
  51   1.0000      -0.339176        -9.2295 
  52   1.0000      -0.332451        -9.0465 
  53   1.0000      -0.296060        -8.0562 
  54   0.0000       0.030781         0.8376 
  55   0.0000       0.039521         1.0754 
  56   0.0000       0.054856         1.4927 
  57   0.0000       0.060741         1.6529 
  58   0.0000       0.069905         1.9022 
  59   0.0000       0.073054         1.9879 
  60   0.0000       0.080013         2.1773 
  61   0.0000       0.102592         2.7917 
  62   0.0000       0.107990         2.9386 
  63   0.0000       0.116370         3.1666 
  64   0.0000       0.123344         3.3563 
  65   0.0000       0.129600         3.5266 
  66   0.0000       0.145646         3.9632 
  67   0.0000       0.148095         4.0299 
  68   0.0000       0.151833         4.1316 
  69   0.0000       0.158605         4.3159 
  70   0.0000       0.165532         4.5044 
  71   0.0000       0.178021         4.8442 
  72   0.0000       0.180503         4.9117 
  73   0.0000       0.190464         5.1828 
  74   0.0000       0.199822         5.4374 
  75   0.0000       0.211708         5.7609 
  76   0.0000       0.218691         5.9509 
  77   0.0000       0.223280         6.0758 
  78   0.0000       0.225349         6.1321 
  79   0.0000       0.234218         6.3734 
  80   0.0000       0.240329         6.5397 
  81   0.0000       0.250682         6.8214 
  82   0.0000       0.256756         6.9867 
  83   0.0000       0.261878         7.1261 
  84   0.0000       0.265081         7.2132 
  85   0.0000       0.278741         7.5849 
  86   0.0000       0.293103         7.9757 
  87   0.0000       0.295726         8.0471 
  88   0.0000       0.300484         8.1766 
  89   0.0000       0.313426         8.5287 
  90   0.0000       0.324637         8.8338 
  91   0.0000       0.332971         9.0606 
  92   0.0000       0.350905         9.5486 
  93   0.0000       0.358844         9.7646 
  94   0.0000       0.362894         9.8748 
  95   0.0000       0.381049        10.3689 
  96   0.0000       0.382878        10.4186 
  97   0.0000       0.386345        10.5130 
  98   0.0000       0.392915        10.6918 
  99   0.0000       0.397740        10.8230 
 100   0.0000       0.410493        11.1701 
 101   0.0000       0.416398        11.3308 
 102   0.0000       0.419708        11.4208 
 103   0.0000       0.424340        11.5469 
 104   0.0000       0.429256        11.6807 
 105   0.0000       0.439439        11.9577 
 106   0.0000       0.448177        12.1955 
 107   0.0000       0.454985        12.3808 
 108   0.0000       0.456565        12.4238 
 109   0.0000       0.462396        12.5824 
 110   0.0000       0.469254        12.7690 
 111   0.0000       0.475984        12.9522 
 112   0.0000       0.485767        13.2184 
 113   0.0000       0.494097        13.4451 
 114   0.0000       0.497472        13.5369 
 115   0.0000       0.500795        13.6273 
 116   0.0000       0.508992        13.8504 
 117   0.0000       0.509736        13.8706 
 118   0.0000       0.518839        14.1183 
 119   0.0000       0.524946        14.2845 
 120   0.0000       0.526150        14.3173 
 121   0.0000       0.541286        14.7291 
 122   0.0000       0.549878        14.9629 
 123   0.0000       0.560062        15.2401 
 124   0.0000       0.563649        15.3377 
 125   0.0000       0.565139        15.3782 
 126   0.0000       0.574219        15.6253 
 127   0.0000       0.579663        15.7734 
 128   0.0000       0.589003        16.0276 
 129   0.0000       0.597273        16.2526 
 130   0.0000       0.600456        16.3392 
 131   0.0000       0.610403        16.6099 
 132   0.0000       0.616143        16.7661 
 133   0.0000       0.621310        16.9067 
 134   0.0000       0.627107        17.0645 
 135   0.0000       0.636001        17.3065 
 136   0.0000       0.655772        17.8445 
 137   0.0000       0.659214        17.9381 
 138   0.0000       0.674526        18.3548 
 139   0.0000       0.686243        18.6736 
 140   0.0000       0.688108        18.7244 
 141   0.0000       0.715245        19.4628 
 142   0.0000       0.738026        20.0827 
 143   0.0000       0.757116        20.6022 
 144   0.0000       0.771230        20.9862 
 145   0.0000       0.776388        21.1266 
 146   0.0000       0.779469        21.2104 
 147   0.0000       0.791731        21.5441 
 148   0.0000       0.810475        22.0541 
 149   0.0000       0.817033        22.2326 
 150   0.0000       0.829392        22.5689 
 151   0.0000       0.839153        22.8345 
 152   0.0000       0.855613        23.2824 
 153   0.0000       0.865020        23.5384 
 154   0.0000       0.877415        23.8757 
 155   0.0000       0.892454        24.2849 
 156   0.0000       0.905665        24.6444 
 157   0.0000       0.913768        24.8649 
 158   0.0000       0.923856        25.1394 
 159   0.0000       0.934172        25.4201 
 160   0.0000       0.941647        25.6235 
 161   0.0000       0.949475        25.8365 
 162   0.0000       0.964528        26.2461 
 163   0.0000       0.983896        26.7732 
 164   0.0000       0.992956        27.0197 
 165   0.0000       1.001345        27.2480 
 166   0.0000       1.017675        27.6924 
 167   0.0000       1.024035        27.8654 
 168   0.0000       1.032136        28.0859 
 169   0.0000       1.055024        28.7087 
 170   0.0000       1.062570        28.9140 
 171   0.0000       1.083994        29.4970 
 172   0.0000       1.088188        29.6111 
 173   0.0000       1.095351        29.8060 
 174   0.0000       1.104900        30.0659 
 175   0.0000       1.128217        30.7004 
 176   0.0000       1.142768        31.0963 
 177   0.0000       1.158242        31.5174 
 178   0.0000       1.182355        32.1735 
 179   0.0000       1.198708        32.6185 
 180   0.0000       1.209065        32.9003 
 181   0.0000       1.236059        33.6349 
 182   0.0000       1.247689        33.9513 
 183   0.0000       1.262533        34.3553 
 184   0.0000       1.270614        34.5752 
 185   0.0000       1.292748        35.1775 
 186   0.0000       1.305157        35.5151 
 187   0.0000       1.312695        35.7202 
 188   0.0000       1.338823        36.4312 
 189   0.0000       1.353707        36.8362 
 190   0.0000       1.371318        37.3155 
 191   0.0000       1.383044        37.6345 
 192   0.0000       1.385553        37.7028 
 193   0.0000       1.411160        38.3996 
 194   0.0000       1.416039        38.5324 
 195   0.0000       1.446294        39.3557 
 196   0.0000       1.460126        39.7321 
 197   0.0000       1.479323        40.2544 
 198   0.0000       1.482532        40.3417 
 199   0.0000       1.489246        40.5244 
 200   0.0000       1.503206        40.9043 
 201   0.0000       1.511010        41.1167 
 202   0.0000       1.530386        41.6439 
 203   0.0000       1.539894        41.9026 
 204   0.0000       1.543899        42.0116 
 205   0.0000       1.548993        42.1502 
 206   0.0000       1.558406        42.4064 
 207   0.0000       1.558830        42.4179 
 208   0.0000       1.573896        42.8279 
 209   0.0000       1.577837        42.9351 
 210   0.0000       1.585543        43.1448 
 211   0.0000       1.589918        43.2639 
 212   0.0000       1.598954        43.5098 
 213   0.0000       1.609219        43.7891 
 214   0.0000       1.618060        44.0297 
 215   0.0000       1.629540        44.3420 
 216   0.0000       1.638691        44.5910 
 217   0.0000       1.661226        45.2042 
 218   0.0000       1.672721        45.5171 
 219   0.0000       1.688330        45.9418 
 220   0.0000       1.699444        46.2442 
 221   0.0000       1.712922        46.6110 
 222   0.0000       1.722357        46.8677 
 223   0.0000       1.747402        47.5492 
 224   0.0000       1.758127        47.8411 
 225   0.0000       1.765415        48.0394 
 226   0.0000       1.774598        48.2893 
 227   0.0000       1.778077        48.3839 
 228   0.0000       1.781336        48.4726 
 229   0.0000       1.808028        49.1989 
 230   0.0000       1.833890        49.9027 
 231   0.0000       1.843067        50.1524 
 232   0.0000       1.848436        50.2985 
 233   0.0000       1.875051        51.0227 
 234   0.0000       1.882859        51.2352 
 235   0.0000       1.890945        51.4552 
 236   0.0000       1.906501        51.8785 
 237   0.0000       1.924023        52.3553 
 238   0.0000       1.931984        52.5720 
 239   0.0000       1.940378        52.8004 
 240   0.0000       1.965386        53.4809 
 241   0.0000       1.978882        53.8481 
 242   0.0000       1.984594        54.0035 
 243   0.0000       1.987025        54.0697 
 244   0.0000       1.998913        54.3932 
 245   0.0000       2.008181        54.6454 
 246   0.0000       2.023032        55.0495 
 247   0.0000       2.025435        55.1149 
 248   0.0000       2.033721        55.3404 
 249   0.0000       2.049311        55.7646 
 250   0.0000       2.064519        56.1784 
 251   0.0000       2.085175        56.7405 
 252   0.0000       2.093964        56.9796 
 253   0.0000       2.113999        57.5248 
 254   0.0000       2.131635        58.0047 
 255   0.0000       2.145275        58.3759 
 256   0.0000       2.149064        58.4790 
 257   0.0000       2.163130        58.8618 
 258   0.0000       2.183906        59.4271 
 259   0.0000       2.204281        59.9815 
 260   0.0000       2.218210        60.3606 
 261   0.0000       2.222555        60.4788 
 262   0.0000       2.244784        61.0837 
 263   0.0000       2.248642        61.1887 
 264   0.0000       2.266054        61.6625 
 265   0.0000       2.280289        62.0498 
 266   0.0000       2.287515        62.2465 
 267   0.0000       2.303894        62.6921 
 268   0.0000       2.311262        62.8926 
 269   0.0000       2.319415        63.1145 
 270   0.0000       2.325695        63.2854 
 271   0.0000       2.339283        63.6551 
 272   0.0000       2.344229        63.7897 
 273   0.0000       2.345609        63.8273 
 274   0.0000       2.366321        64.3909 
 275   0.0000       2.378870        64.7323 
 276   0.0000       2.380104        64.7659 
 277   0.0000       2.388914        65.0057 
 278   0.0000       2.406542        65.4853 
 279   0.0000       2.435694        66.2786 
 280   0.0000       2.447550        66.6012 
 281   0.0000       2.459341        66.9221 
 282   0.0000       2.479626        67.4741 
 283   0.0000       2.503339        68.1193 
 284   0.0000       2.523411        68.6655 
 285   0.0000       2.527705        68.7823 
 286   0.0000       2.546990        69.3071 
 287   0.0000       2.551747        69.4366 
 288   0.0000       2.564911        69.7948 
 289   0.0000       2.571700        69.9795 
 290   0.0000       2.594338        70.5955 
 291   0.0000       2.601565        70.7922 
 292   0.0000       2.614996        71.1577 
 293   0.0000       2.623265        71.3827 
 294   0.0000       2.629579        71.5545 
 295   0.0000       2.643861        71.9431 
 296   0.0000       2.672557        72.7240 
 297   0.0000       2.682348        72.9904 
 298   0.0000       2.694098        73.3101 
 299   0.0000       2.703133        73.5560 
 300   0.0000       2.714554        73.8668 
 301   0.0000       2.735841        74.4460 
 302   0.0000       2.738363        74.5146 
 303   0.0000       2.763940        75.2106 
 304   0.0000       2.772024        75.4306 
 305   0.0000       2.792095        75.9768 
 306   0.0000       2.801322        76.2279 
 307   0.0000       2.816419        76.6387 
 308   0.0000       2.827409        76.9377 
 309   0.0000       2.829085        76.9833 
 310   0.0000       2.848493        77.5114 
 311   0.0000       2.869179        78.0743 
 312   0.0000       2.874628        78.2226 
 313   0.0000       2.889569        78.6292 
 314   0.0000       2.900806        78.9349 
 315   0.0000       2.917493        79.3890 
 316   0.0000       2.937632        79.9370 
 317   0.0000       2.949661        80.2644 
 318   0.0000       2.953517        80.3693 
 319   0.0000       2.973314        80.9080 
 320   0.0000       2.984204        81.2043 
 321   0.0000       2.994571        81.4864 
 322   0.0000       2.998993        81.6068 
 323   0.0000       3.002802        81.7104 
 324   0.0000       3.009548        81.8940 
 325   0.0000       3.036294        82.6218 
 326   0.0000       3.042387        82.7876 
 327   0.0000       3.057516        83.1992 
 328   0.0000       3.065929        83.4282 
 329   0.0000       3.076243        83.7088 
 330   0.0000       3.083861        83.9161 
 331   0.0000       3.096645        84.2640 
 332   0.0000       3.113042        84.7102 
 333   0.0000       3.118855        84.8684 
 334   0.0000       3.127531        85.1044 
 335   0.0000       3.135302        85.3159 
 336   0.0000       3.142315        85.5067 
 337   0.0000       3.160272        85.9954 
 338   0.0000       3.169465        86.2455 
 339   0.0000       3.174642        86.3864 
 340   0.0000       3.185393        86.6789 
 341   0.0000       3.197409        87.0059 
 342   0.0000       3.199876        87.0731 
 343   0.0000       3.206385        87.2502 
 344   0.0000       3.228077        87.8404 
 345   0.0000       3.236052        88.0575 
 346   0.0000       3.245595        88.3171 
 347   0.0000       3.268497        88.9403 
 348   0.0000       3.275731        89.1372 
 349   0.0000       3.279436        89.2380 
 350   0.0000       3.291165        89.5572 
 351   0.0000       3.298399        89.7540 
 352   0.0000       3.311840        90.1197 
 353   0.0000       3.315523        90.2200 
 354   0.0000       3.319711        90.3339 
 355   0.0000       3.326027        90.5058 
 356   0.0000       3.330640        90.6313 
 357   0.0000       3.335807        90.7719 
 358   0.0000       3.352917        91.2375 
 359   0.0000       3.365652        91.5841 
 360   0.0000       3.385139        92.1143 
 361   0.0000       3.393395        92.3390 
 362   0.0000       3.400998        92.5459 
 363   0.0000       3.411603        92.8344 
 364   0.0000       3.424387        93.1823 
 365   0.0000       3.427565        93.2688 
 366   0.0000       3.450155        93.8835 
 367   0.0000       3.466078        94.3168 
 368   0.0000       3.500379        95.2502 
 369   0.0000       3.506604        95.4195 
 370   0.0000       3.516952        95.7011 
 371   0.0000       3.535540        96.2069 
 372   0.0000       3.540127        96.3318 
 373   0.0000       3.549783        96.5945 
 374   0.0000       3.573802        97.2481 
 375   0.0000       3.584176        97.5304 
 376   0.0000       3.599996        97.9609 
 377   0.0000       3.639095        99.0248 
 378   0.0000       3.669333        99.8476 
 379   0.0000       3.696053       100.5747 
 380   0.0000       3.708025       100.9005 
 381   0.0000       3.726486       101.4028 
 382   0.0000       3.746043       101.9350 
 383   0.0000       3.754707       102.1708 
 384   0.0000       3.773878       102.6924 
 385   0.0000       3.786669       103.0405 
 386   0.0000       3.803406       103.4959 
 387   0.0000       3.822308       104.0103 
 388   0.0000       3.855342       104.9092 
 389   0.0000       3.862013       105.0907 
 390   0.0000       3.881478       105.6204 
 391   0.0000       3.892670       105.9249 
 392   0.0000       3.907880       106.3388 
 393   0.0000       3.926048       106.8332 
 394   0.0000       3.973466       108.1235 
 395   0.0000       3.976794       108.2141 
 396   0.0000       3.999957       108.8444 
 397   0.0000       4.006775       109.0299 
 398   0.0000       4.050434       110.2179 
 399   0.0000       4.066908       110.6662 
 400   0.0000       4.095908       111.4553 
 401   0.0000       4.117681       112.0478 
 402   0.0000       4.135355       112.5287 
 403   0.0000       4.164226       113.3143 
 404   0.0000       4.188862       113.9847 
 405   0.0000       4.217732       114.7703 
 406   0.0000       4.236864       115.2909 
 407   0.0000       4.288731       116.7023 
 408   0.0000       4.302358       117.0731 
 409   0.0000       4.314660       117.4079 
 410   0.0000       4.342200       118.1573 
 411   0.0000       4.364282       118.7581 
 412   0.0000       4.384256       119.3017 
 413   0.0000       4.394894       119.5911 
 414   0.0000       4.418869       120.2435 
 415   0.0000       4.453761       121.1930 
 416   0.0000       4.490885       122.2032 
 417   0.0000       4.506219       122.6204 
 418   0.0000       4.515907       122.8841 
 419   0.0000       4.527816       123.2081 
 420   0.0000       4.578986       124.6005 
 421   0.0000       4.615129       125.5841 
 422   0.0000       4.664704       126.9331 
 423   0.0000       4.687945       127.5655 
 424   0.0000       4.705568       128.0450 
 425   0.0000       4.740060       128.9836 
 426   0.0000       4.759118       129.5022 
 427   0.0000       4.776092       129.9641 
 428   0.0000       4.796270       130.5132 
 429   0.0000       4.822911       131.2381 
 430   0.0000       4.858720       132.2125 
 431   0.0000       4.909063       133.5824 
 432   0.0000       4.952966       134.7771 
 433   0.0000       4.962644       135.0404 
 434   0.0000       5.014482       136.4510 
 435   0.0000       5.057508       137.6218 
 436   0.0000       5.080488       138.2471 
 437   0.0000       5.094573       138.6304 
 438   0.0000       5.162397       140.4760 
 439   0.0000       5.169987       140.6825 
 440   0.0000       5.190868       141.2507 
 441   0.0000       5.207069       141.6915 
 442   0.0000       5.216188       141.9397 
 443   0.0000       5.217801       141.9836 
 444   0.0000       5.222779       142.1190 
 445   0.0000       5.256699       143.0421 
 446   0.0000       5.262062       143.1880 
 447   0.0000       5.280067       143.6779 
 448   0.0000       5.295741       144.1044 
 449   0.0000       5.373533       146.2213 
 450   0.0000       5.379998       146.3972 
 451   0.0000       5.417734       147.4240 
 452   0.0000       5.421384       147.5233 
 453   0.0000       5.440928       148.0552 
 454   0.0000       5.473145       148.9318 
 455   0.0000       5.487144       149.3128 
 456   0.0000       5.534905       150.6124 
 457   0.0000       5.574612       151.6929 
 458   0.0000       5.583628       151.9382 
 459   0.0000       5.639033       153.4459 
 460   0.0000       5.660795       154.0381 
 461   0.0000       5.713627       155.4757 
 462   0.0000       5.740923       156.2184 
 463   0.0000       5.755580       156.6173 
 464   0.0000       5.828276       158.5955 
 465   0.0000       5.868655       159.6942 
 466   0.0000       5.885706       160.1582 
 467   0.0000       5.899686       160.5386 
 468   0.0000       6.075642       165.3266 
 469   0.0000       6.088252       165.6697 
 470   0.0000       6.099189       165.9674 
 471   0.0000       6.202010       168.7653 
 472   0.0000       6.283704       170.9883 
 473   0.0000       6.292294       171.2220 
 474   0.0000       6.308223       171.6555 
 475   0.0000       6.310131       171.7074 
 476   0.0000       6.399033       174.1265 
 477   0.0000       6.421176       174.7291 
 478   0.0000       6.437898       175.1841 
 479   0.0000       6.481213       176.3628 
 480   0.0000       6.540637       177.9798 
 481   0.0000       6.552265       178.2962 
 482   0.0000       6.642962       180.7642 
 483   0.0000       6.648897       180.9257 
 484   0.0000       6.655363       181.1016 
 485   0.0000       6.677661       181.7084 
 486   0.0000       6.743864       183.5099 
 487   0.0000       6.791859       184.8159 
 488   0.0000       6.816283       185.4805 
 489   0.0000       6.825751       185.7381 
 490   0.0000       6.900316       187.7672 
 491   0.0000       7.037597       191.5027 
 492   0.0000       7.048045       191.7870 
 493   0.0000       7.061108       192.1425 
 494   0.0000       7.070528       192.3988 
 495   0.0000       7.091950       192.9818 
 496   0.0000       7.101615       193.2448 
 497   0.0000       7.288547       198.3315 
 498   0.0000      22.396641       609.4436 
 499   0.0000      22.456091       611.0613 
 500   0.0000      22.521365       612.8375 
 501   0.0000      22.596721       614.8880 
 502   0.0000      22.750066       619.0608 
 503   0.0000      23.251642       632.7094 
 504   0.0000      23.356939       635.5746 
 505   0.0000      23.398001       636.6920 
 506   0.0000      32.495185       884.2389 
 507   0.0000      32.668935       888.9669 
 508   0.0000      43.922328      1195.1873 
 509   0.0000      43.990578      1197.0445 
 510   0.0000      44.055352      1198.8071 
 511   0.0000      44.084939      1199.6122 

                 SPIN DOWN ORBITALS
  NO   OCC          E(Eh)            E(eV) 
   0   1.0000     -19.674155      -535.3610 
   1   1.0000     -19.618139      -533.8367 
   2   1.0000     -19.618083      -533.8352 
   3   1.0000     -19.596947      -533.2600 
   4   1.0000     -14.797838      -402.6696 
   5   1.0000     -14.780411      -402.1954 
   6   1.0000     -10.680528      -290.6320 
   7   1.0000     -10.667424      -290.2754 
   8   1.0000     -10.653401      -289.8938 
   9   1.0000     -10.611403      -288.7509 
  10   1.0000     -10.587557      -288.1021 
  11   1.0000     -10.584782      -288.0266 
  12   1.0000     -10.570003      -287.6244 
  13   1.0000     -10.547531      -287.0129 
  14   1.0000      -1.227291       -33.3963 
  15   1.0000      -1.181404       -32.1476 
  16   1.0000      -1.159424       -31.5495 
  17   1.0000      -1.129388       -30.7322 
  18   1.0000      -1.051756       -28.6197 
  19   1.0000      -1.042223       -28.3603 
  20   1.0000      -0.912466       -24.8295 
  21   1.0000      -0.854271       -23.2459 
  22   1.0000      -0.831552       -22.6277 
  23   1.0000      -0.797008       -21.6877 
  24   1.0000      -0.745870       -20.2962 
  25   1.0000      -0.692185       -18.8353 
  26   1.0000      -0.684872       -18.6363 
  27   1.0000      -0.661081       -17.9889 
  28   1.0000      -0.628231       -17.0950 
  29   1.0000      -0.589077       -16.0296 
  30   1.0000      -0.577878       -15.7249 
  31   1.0000      -0.561727       -15.2854 
  32   1.0000      -0.554186       -15.0802 
  33   1.0000      -0.552202       -15.0262 
  34   1.0000      -0.538466       -14.6524 
  35   1.0000      -0.533664       -14.5217 
  36   1.0000      -0.526396       -14.3240 
  37   1.0000      -0.508656       -13.8412 
  38   1.0000      -0.504042       -13.7157 
  39   1.0000      -0.485019       -13.1980 
  40   1.0000      -0.482353       -13.1255 
  41   1.0000      -0.480432       -13.0732 
  42   1.0000      -0.474512       -12.9121 
  43   1.0000      -0.465662       -12.6713 
  44   1.0000      -0.453165       -12.3312 
  45   1.0000      -0.446047       -12.1376 
  46   1.0000      -0.426398       -11.6029 
  47   1.0000      -0.389251       -10.5921 
  48   1.0000      -0.361742        -9.8435 
  49   1.0000      -0.356594        -9.7034 
  50   1.0000      -0.347307        -9.4507 
  51   1.0000      -0.337856        -9.1935 
  52   1.0000      -0.328889        -8.9495 
  53   0.0000      -0.077699        -2.1143 
  54   0.0000       0.030457         0.8288 
  55   0.0000       0.039592         1.0774 
  56   0.0000       0.055090         1.4991 
  57   0.0000       0.060505         1.6464 
  58   0.0000       0.071078         1.9341 
  59   0.0000       0.077214         2.1011 
  60   0.0000       0.095568         2.6005 
  61   0.0000       0.103762         2.8235 
  62   0.0000       0.105056         2.8587 
  63   0.0000       0.117677         3.2021 
  64   0.0000       0.121701         3.3116 
  65   0.0000       0.127273         3.4633 
  66   0.0000       0.144273         3.9259 
  67   0.0000       0.148162         4.0317 
  68   0.0000       0.151310         4.1174 
  69   0.0000       0.158570         4.3149 
  70   0.0000       0.164776         4.4838 
  71   0.0000       0.178417         4.8550 
  72   0.0000       0.179635         4.8881 
  73   0.0000       0.188825         5.1382 
  74   0.0000       0.199589         5.4311 
  75   0.0000       0.214262         5.8304 
  76   0.0000       0.216650         5.8953 
  77   0.0000       0.224724         6.1150 
  78   0.0000       0.225656         6.1404 
  79   0.0000       0.235074         6.3967 
  80   0.0000       0.242302         6.5934 
  81   0.0000       0.249170         6.7803 
  82   0.0000       0.252095         6.8599 
  83   0.0000       0.262499         7.1430 
  84   0.0000       0.264306         7.1921 
  85   0.0000       0.277016         7.5380 
  86   0.0000       0.290527         7.9056 
  87   0.0000       0.297258         8.0888 
  88   0.0000       0.299300         8.1444 
  89   0.0000       0.317686         8.6447 
  90   0.0000       0.324254         8.8234 
  91   0.0000       0.331935         9.0324 
  92   0.0000       0.350368         9.5340 
  93   0.0000       0.351882         9.5752 
  94   0.0000       0.364532         9.9194 
  95   0.0000       0.381889        10.3917 
  96   0.0000       0.385208        10.4821 
  97   0.0000       0.388111        10.5610 
  98   0.0000       0.391158        10.6439 
  99   0.0000       0.396979        10.8024 
 100   0.0000       0.410688        11.1754 
 101   0.0000       0.415868        11.3163 
 102   0.0000       0.419594        11.4177 
 103   0.0000       0.426355        11.6017 
 104   0.0000       0.429013        11.6740 
 105   0.0000       0.442201        12.0329 
 106   0.0000       0.447418        12.1749 
 107   0.0000       0.455475        12.3941 
 108   0.0000       0.457404        12.4466 
 109   0.0000       0.463846        12.6219 
 110   0.0000       0.472532        12.8582 
 111   0.0000       0.477014        12.9802 
 112   0.0000       0.483562        13.1584 
 113   0.0000       0.494716        13.4619 
 114   0.0000       0.496325        13.5057 
 115   0.0000       0.501484        13.6461 
 116   0.0000       0.507993        13.8232 
 117   0.0000       0.510826        13.9003 
 118   0.0000       0.519344        14.1321 
 119   0.0000       0.524353        14.2684 
 120   0.0000       0.529316        14.4034 
 121   0.0000       0.544827        14.8255 
 122   0.0000       0.549502        14.9527 
 123   0.0000       0.559806        15.2331 
 124   0.0000       0.564090        15.3497 
 125   0.0000       0.565111        15.3775 
 126   0.0000       0.575739        15.6666 
 127   0.0000       0.581762        15.8305 
 128   0.0000       0.589058        16.0291 
 129   0.0000       0.595816        16.2130 
 130   0.0000       0.600016        16.3273 
 131   0.0000       0.611142        16.6300 
 132   0.0000       0.616784        16.7835 
 133   0.0000       0.620339        16.8803 
 134   0.0000       0.628605        17.1052 
 135   0.0000       0.636047        17.3077 
 136   0.0000       0.656939        17.8762 
 137   0.0000       0.660819        17.9818 
 138   0.0000       0.675613        18.3844 
 139   0.0000       0.686657        18.6849 
 140   0.0000       0.689301        18.7568 
 141   0.0000       0.714964        19.4552 
 142   0.0000       0.735163        20.0048 
 143   0.0000       0.755710        20.5639 
 144   0.0000       0.769321        20.9343 
 145   0.0000       0.775177        21.0936 
 146   0.0000       0.779185        21.2027 
 147   0.0000       0.794755        21.6264 
 148   0.0000       0.811906        22.0931 
 149   0.0000       0.817486        22.2449 
 150   0.0000       0.828280        22.5387 
[...]
     69       0.001519   0.264020   0.000068  -0.000051   0.064435  -0.000228
     70      -0.002304  -0.447849  -0.000155   0.000174  -0.148503   0.000439
     71      -0.001507  -0.327042  -0.000111   0.000096  -0.089433   0.000477
     72      -0.884190   0.009998   0.001702   0.000215  -0.002775  -0.053190
     73       0.153095  -0.001702  -0.000330   0.000062   0.000437   0.012984
     74       0.215865  -0.002411  -0.000408  -0.000179   0.000574   0.013988
     75      -0.185169   0.002540   0.000065   0.000829  -0.000517  -0.007701
     76      -0.020579   0.000330   0.000040   0.000267   0.000003  -0.003652
     77      -0.316674   0.004103   0.000195   0.001047  -0.000905  -0.014529
     78       0.053734  -0.001013   0.000377   0.000152   0.000214  -0.908130
     79      -0.016529   0.000308  -0.000208  -0.000138  -0.000043   0.336902
     80      -0.013397   0.000284  -0.000158  -0.000003   0.000001   0.225664
                 78         79         80    
      0      -0.026905   0.000560  -0.000057
      1      -0.000353   0.000047  -0.000028
      2       0.068204  -0.001594   0.000006
      3      -0.000236   0.000311   0.000045
      4       0.000009  -0.000133   0.000020
      5      -0.000073   0.000021  -0.000027
      6       0.000474  -0.000341   0.000074
      7       0.000199   0.000223   0.000022
      8      -0.000516  -0.000942  -0.000044
      9      -0.000149  -0.001220  -0.000034
     10       0.000012  -0.000327  -0.000013
     11       0.000708   0.000928   0.000047
     12       0.000310   0.000030  -0.000024
     13       0.000290  -0.000040  -0.000120
     14      -0.000018  -0.000095  -0.000071
     15       0.000002   0.000166  -0.000751
     16       0.000007   0.000084  -0.000327
     17       0.000016  -0.000017  -0.000111
     18      -0.000131  -0.001064   0.002752
     19      -0.000079   0.000191   0.001059
     20      -0.000055   0.000199   0.000356
     21       0.000052   0.000723   0.042001
     22      -0.000020   0.000283   0.042333
     23       0.000012  -0.000075   0.015384
     24       0.000027   0.000188  -0.000449
     25       0.000049  -0.000141   0.000453
     26       0.000027  -0.000103   0.000197
     27       0.376810  -0.007267   0.000135
     28       0.018178  -0.000401   0.000067
     29      -0.922877   0.020770  -0.000353
     30       0.005201  -0.000572  -0.000097
     31      -0.005360   0.001202  -0.000165
     32      -0.001191   0.000157   0.000071
     33      -0.000696   0.000057   0.000045
     34      -0.000370   0.000040   0.000024
     35      -0.000005   0.000148   0.000052
     36       0.000387   0.037727  -0.000228
     37       0.000427   0.025385  -0.000212
     38      -0.001177  -0.057832   0.000327
     39       0.000209  -0.003007  -0.681525
     40       0.000222  -0.004495  -0.685231
     41      -0.000022  -0.001297  -0.249288
     42      -0.012139  -0.503901   0.002773
     43      -0.008152  -0.352421   0.002915
     44       0.016995   0.784643  -0.004067
     45       0.000196   0.000019  -0.000022
     46      -0.000453   0.000019  -0.000022
     47      -0.001649  -0.000039  -0.000018
     48      -0.000057   0.000006  -0.000016
     49       0.000249  -0.000018  -0.000000
     50       0.000277   0.000000  -0.000001
     51      -0.000230  -0.000011  -0.000027
     52      -0.000774   0.000011  -0.000030
     53      -0.000130   0.000013   0.000002
     54      -0.000493   0.000102   0.000002
     55      -0.000995  -0.000016   0.000016
     56      -0.005713   0.000049   0.000014
     57      -0.000575  -0.000036  -0.000010
     58      -0.000211   0.000032   0.000010
     59      -0.000178  -0.000041   0.000011
     60       0.000086   0.000896  -0.000040
     61       0.000005   0.000447  -0.000001
     62       0.000067   0.000962  -0.000066
     63       0.000205   0.000608  -0.000012
     64      -0.000153  -0.006859  -0.000162
     65       0.000072   0.007906   0.000157
     66      -0.000623  -0.007058   0.000118
     67      -0.000124  -0.001851   0.000011
     68       0.000154  -0.000091  -0.000072
     69       0.000092  -0.000542  -0.000078
     70       0.000176   0.003757   0.000103
     71      -0.000092   0.004651   0.000042
     72       0.001120  -0.007635  -0.001222
     73       0.000426   0.000764  -0.000227
     74      -0.000629  -0.004329   0.000076
     75      -0.000454   0.000511   0.000090
     76      -0.000934   0.000376  -0.000128
     77       0.000483  -0.001232   0.000148
     78       0.000313   0.000648   0.000323
     79      -0.000495  -0.000313  -0.000448
     80      -0.000298   0.000013  -0.000169


-----------
IR SPECTRUM
-----------

 Mode   freq       eps      Int      T**2         TX        TY        TZ
       cm**-1   L/(mol*cm) km/mol    a.u.
----------------------------------------------------------------------------
  7:     38.94   0.000206    1.04  0.001652  ( 0.013098  0.011919  0.036579)
  8:     55.03   0.000181    0.92  0.001027  (-0.030774  0.007686  0.004558)
  9:     62.01   0.000402    2.03  0.002021  ( 0.006628 -0.044255  0.004271)
 10:     69.24   0.000230    1.16  0.001037  ( 0.004013 -0.031934 -0.001023)
 11:     86.52   0.001527    7.72  0.005508  ( 0.017276 -0.064788  0.031812)
 12:    100.67   0.000586    2.96  0.001817  ( 0.012298  0.039778  0.009115)
 13:    111.33   0.001438    7.27  0.004031  ( 0.033608 -0.053234  0.008206)
 14:    128.59   0.000827    4.18  0.002008  (-0.033735 -0.011346 -0.027221)
 15:    171.02   0.001405    7.10  0.002563  (-0.034154 -0.018047 -0.032724)
 16:    192.72   0.001288    6.51  0.002086  (-0.041551  0.015803 -0.010460)
 17:    234.87   0.000343    1.73  0.000456  ( 0.001205 -0.021119  0.002884)
 18:    267.05   0.001380    6.97  0.001612  ( 0.036553  0.011170  0.012300)
 19:    302.19   0.000507    2.56  0.000524  ( 0.014522 -0.014843  0.009626)
 20:    357.85   0.001147    5.80  0.001001  (-0.018252 -0.003868 -0.025542)
 21:    382.95   0.003428   17.32  0.002794  (-0.046742  0.018207 -0.016651)
 22:    484.70   0.011330   57.26  0.007295  (-0.033735  0.077473  0.012438)
 23:    499.75   0.002532   12.80  0.001581  ( 0.024547 -0.030223 -0.008063)
 24:    514.09   0.004889   24.71  0.002968  ( 0.049806  0.020120 -0.009059)
 25:    536.39   0.007715   38.99  0.004489  (-0.005875  0.066635 -0.003720)
 26:    554.00   0.014910   75.35  0.008398  (-0.006007 -0.031053  0.086012)
 27:    579.93   0.009659   48.81  0.005198  (-0.010896  0.071165  0.003807)
 28:    598.62   0.006774   34.23  0.003531  (-0.046724  0.035478 -0.009467)
 29:    616.34   0.005702   28.82  0.002887  ( 0.051443  0.011047  0.010893)
 30:    629.38   0.003532   17.85  0.001751  (-0.008638 -0.001512  0.040920)
 31:    665.37   0.002548   12.88  0.001195  ( 0.010975 -0.031691 -0.008392)
 32:    692.17   0.001486    7.51  0.000670  ( 0.004112  0.023155  0.010808)
 33:    763.29   0.009877   49.91  0.004038  (-0.000204 -0.036260  0.052186)
 34:    803.48   0.002263   11.44  0.000879  ( 0.012024  0.015270  0.022390)
 35:    855.37   0.002837   14.34  0.001035  ( 0.024577  0.018973  0.008436)
 36:    911.91   0.001166    5.89  0.000399  ( 0.001383  0.014000 -0.014183)
 37:    934.52   0.002760   13.95  0.000922  ( 0.028359 -0.003741  0.010164)
 38:    976.60   0.011957   60.43  0.003821  ( 0.061807  0.000693  0.000511)
 39:   1017.31   0.000625    3.16  0.000192  ( 0.004146 -0.002761 -0.012919)
 40:   1030.30   0.001087    5.50  0.000329  (-0.000510  0.013252  0.012389)
 41:   1060.15   0.001489    7.52  0.000438  (-0.001392  0.020734 -0.002530)
 42:   1085.76   0.000097    0.49  0.000028  ( 0.002007 -0.000562  0.004863)
 43:   1135.92   0.004744   23.97  0.001303  ( 0.033189  0.012491 -0.006759)
 44:   1155.99   0.000077    0.39  0.000021  (-0.003364 -0.001930 -0.002381)
 45:   1171.42   0.004761   24.06  0.001268  ( 0.032314 -0.014097 -0.005050)
 46:   1193.69   0.000700    3.54  0.000183  ( 0.007858  0.009787 -0.005040)
 47:   1209.23   0.034336  173.52  0.008861  (-0.093501  0.000268  0.010879)
 48:   1221.93   0.002910   14.71  0.000743  (-0.020026 -0.018266 -0.002915)
 49:   1264.82   0.005581   28.21  0.001377  (-0.033147 -0.014377 -0.008467)
 50:   1280.35   0.011106   56.12  0.002707  (-0.039458 -0.023309 -0.024630)
 51:   1294.95   0.001851    9.35  0.000446  ( 0.004790 -0.009868  0.018048)
 52:   1338.18   0.012307   62.19  0.002870  ( 0.043261  0.024182  0.020338)
 53:   1366.92   0.003446   17.42  0.000787  ( 0.014908 -0.002266  0.023652)
 54:   1388.09   0.003395   17.16  0.000763  ( 0.015549 -0.003231 -0.022608)
 55:   1401.99   0.007378   37.29  0.001642  (-0.038765 -0.006605 -0.009794)
 56:   1449.04   0.006414   32.42  0.001381  (-0.033923  0.015122  0.001378)
 57:   1459.00   0.003119   15.76  0.000667  (-0.024937 -0.005631 -0.003679)
 58:   1473.70   0.001450    7.33  0.000307  ( 0.001277 -0.017346  0.002141)
 59:   1483.57   0.004922   24.87  0.001035  ( 0.021699 -0.013714  0.019400)
 60:   1485.20   0.009242   46.71  0.001942  ( 0.016912  0.014230  0.038124)
 61:   1502.70   0.004604   23.26  0.000956  ( 0.004706  0.001431  0.030526)
 62:   1514.91   0.002666   13.47  0.000549  (-0.013257 -0.003492 -0.019005)
 63:   1541.06   0.109434  553.03  0.022160  ( 0.128874  0.036294  0.065073)
 64:   1587.70   0.026223  132.52  0.005154  ( 0.066154  0.004432  0.027535)
 65:   1770.88   0.060366  305.06  0.010638  ( 0.016103  0.101736  0.005309)
 66:   1776.53   0.093547  472.75  0.016432  ( 0.061924 -0.024521 -0.109529)
 67:   1786.88   0.013705   69.26  0.002393  ( 0.037556  0.020855  0.023410)
 68:   3059.34   0.002216   11.20  0.000226  ( 0.011093 -0.007659  0.006660)
 69:   3079.49   0.005992   30.28  0.000607  ( 0.015040  0.005782  0.018642)
 70:   3080.02   0.000656    3.31  0.000066  ( 0.007409  0.003175 -0.001211)
 71:   3089.79   0.000430    2.17  0.000043  (-0.005160  0.000131  0.004098)
 72:   3147.40   0.000771    3.90  0.000076  ( 0.004396 -0.007170 -0.002387)
 73:   3150.68   0.002040   10.31  0.000202  (-0.007566  0.012018 -0.000594)
 74:   3172.04   0.000196    0.99  0.000019  ( 0.000360  0.003869 -0.002057)
 75:   3181.92   0.001324    6.69  0.000130  (-0.002760  0.002551  0.010756)
 76:   3188.30   0.001245    6.29  0.000122  (-0.009787 -0.003869  0.003335)
 77:   3238.20   0.000429    2.17  0.000041  (-0.004263 -0.004804 -0.000252)
 78:   3603.04   0.021584  109.08  0.001869  (-0.006035 -0.001734 -0.042778)
 79:   3657.26   0.016490   83.33  0.001407  (-0.020354 -0.020394  0.024017)
 80:   3819.95   0.024752  125.09  0.002022  (-0.037740 -0.023916 -0.005084)

* The epsilon (eps) is given for a Dirac delta lineshape.
** The dipole moment derivative (T) already includes vibrational overlap.

The first frequency considered to be a vibration is 7
The total number of vibrations considered is 74


--------------------------
THERMOCHEMISTRY AT 298.15K
--------------------------

Temperature         ... 298.15 K
Pressure            ... 1.00 atm
Total Mass          ... 201.20 AMU

Throughout the following assumptions are being made:
  (1) The electronic state is orbitally nondegenerate
      but the spin degeneracy is treated
  (2) There are no thermally accessible electronically excited states
  (3) Hindered rotations indicated by low frequency modes are not
      treated as such but are treated as vibrations and this may
      cause some error
  (4) All equations used are the standard statistical mechanics
      equations for an ideal gas
  (5) All vibrations are strictly harmonic

freq.      38.94  E(vib)   ...       0.54 
freq.      55.03  E(vib)   ...       0.52 
freq.      62.01  E(vib)   ...       0.51 
freq.      69.24  E(vib)   ...       0.50 
freq.      86.52  E(vib)   ...       0.48 
freq.     100.67  E(vib)   ...       0.46 
freq.     111.33  E(vib)   ...       0.45 
freq.     128.59  E(vib)   ...       0.43 
freq.     171.02  E(vib)   ...       0.38 
freq.     192.72  E(vib)   ...       0.36 
freq.     234.87  E(vib)   ...       0.32 
freq.     267.05  E(vib)   ...       0.29 
freq.     302.19  E(vib)   ...       0.26 
freq.     357.85  E(vib)   ...       0.22 
freq.     382.95  E(vib)   ...       0.20 
freq.     484.70  E(vib)   ...       0.15 
freq.     499.75  E(vib)   ...       0.14 
freq.     514.09  E(vib)   ...       0.13 
freq.     536.39  E(vib)   ...       0.12 
freq.     554.00  E(vib)   ...       0.12 
freq.     579.93  E(vib)   ...       0.11 
freq.     598.62  E(vib)   ...       0.10 
freq.     616.34  E(vib)   ...       0.09 
freq.     629.38  E(vib)   ...       0.09 
freq.     665.37  E(vib)   ...       0.08 
freq.     692.17  E(vib)   ...       0.07 
freq.     763.29  E(vib)   ...       0.06 
freq.     803.48  E(vib)   ...       0.05 
freq.     855.37  E(vib)   ...       0.04 
freq.     911.91  E(vib)   ...       0.03 
freq.     934.52  E(vib)   ...       0.03 
freq.     976.60  E(vib)   ...       0.03 
freq.    1017.31  E(vib)   ...       0.02 
freq.    1030.30  E(vib)   ...       0.02 
freq.    1060.15  E(vib)   ...       0.02 
freq.    1085.76  E(vib)   ...       0.02 
freq.    1135.92  E(vib)   ...       0.01 
freq.    1155.99  E(vib)   ...       0.01 
freq.    1171.42  E(vib)   ...       0.01 
freq.    1193.69  E(vib)   ...       0.01 
freq.    1209.23  E(vib)   ...       0.01 
freq.    1221.93  E(vib)   ...       0.01 
freq.    1264.82  E(vib)   ...       0.01 
freq.    1280.35  E(vib)   ...       0.01 
freq.    1294.95  E(vib)   ...       0.01 
freq.    1338.18  E(vib)   ...       0.01 
freq.    1366.92  E(vib)   ...       0.01 
freq.    1388.09  E(vib)   ...       0.00 
freq.    1401.99  E(vib)   ...       0.00 
freq.    1449.04  E(vib)   ...       0.00 
freq.    1459.00  E(vib)   ...       0.00 
freq.    1473.70  E(vib)   ...       0.00 
freq.    1483.57  E(vib)   ...       0.00 
freq.    1485.20  E(vib)   ...       0.00 
freq.    1502.70  E(vib)   ...       0.00 
freq.    1514.91  E(vib)   ...       0.00 
freq.    1541.06  E(vib)   ...       0.00 
freq.    1587.70  E(vib)   ...       0.00 
freq.    1770.88  E(vib)   ...       0.00 
freq.    1776.53  E(vib)   ...       0.00 
freq.    1786.88  E(vib)   ...       0.00 
freq.    3059.34  E(vib)   ...       0.00 
freq.    3079.49  E(vib)   ...       0.00 
freq.    3080.02  E(vib)   ...       0.00 
freq.    3089.79  E(vib)   ...       0.00 
freq.    3147.40  E(vib)   ...       0.00 
freq.    3150.68  E(vib)   ...       0.00 
freq.    3172.04  E(vib)   ...       0.00 
freq.    3181.92  E(vib)   ...       0.00 
freq.    3188.30  E(vib)   ...       0.00 
freq.    3238.20  E(vib)   ...       0.00 
freq.    3603.04  E(vib)   ...       0.00 
freq.    3657.26  E(vib)   ...       0.00 
freq.    3819.95  E(vib)   ...       0.00 

------------
INNER ENERGY
------------

The inner energy is: U= E(el) + E(ZPE) + E(vib) + E(rot) + E(trans)
    E(el)   - is the total energy from the electronic structure calculation
              = E(kin-el) + E(nuc-el) + E(el-el) + E(nuc-nuc)
    E(ZPE)  - the the zero temperature vibrational energy from the frequency calculation
    E(vib)  - the the finite temperature correction to E(ZPE) due to population
              of excited vibrational states
    E(rot)  - is the rotational thermal energy
    E(trans)- is the translational thermal energy

Summary of contributions to the inner energy U:
Electronic energy                ...   -723.08398675 Eh
Zero point energy                ...      0.21891477 Eh     137.37 kcal/mol
Thermal vibrational correction   ...      0.01207600 Eh       7.58 kcal/mol
Thermal rotational correction    ...      0.00141627 Eh       0.89 kcal/mol
Thermal translational correction ...      0.00141627 Eh       0.89 kcal/mol
-----------------------------------------------------------------------
Total thermal energy                   -722.85016344 Eh


Summary of corrections to the electronic energy:
(perhaps to be used in another calculation)
Total thermal correction                  0.01490854 Eh       9.36 kcal/mol
Non-thermal (ZPE) correction              0.21891477 Eh     137.37 kcal/mol
-----------------------------------------------------------------------
Total correction                          0.23382331 Eh     146.73 kcal/mol


--------
ENTHALPY
--------

The enthalpy is H = U + kB*T
                kB is Boltzmann's constant
Total free energy                 ...   -722.85016344 Eh 
Thermal Enthalpy correction       ...      0.00094421 Eh       0.59 kcal/mol
-----------------------------------------------------------------------
Total Enthalpy                    ...   -722.84921923 Eh


Note: Only C1 symmetry has been detected, increase convergence thresholds 
      if your molecule has a higher symmetry. Symmetry factor of 1.0 is   
      used for the rotational entropy correction. 
 

Note: Rotational entropy computed according to Herzberg 
Infrared and Raman Spectra, Chapter V,1, Van Nostrand Reinhold, 1945 
Point Group:  C1, Symmetry Number:   1  
Rotational constants in cm-1:     0.030604     0.014611     0.011496 

Vibrational entropy computed according to the QRRHO of S. Grimme
Chem.Eur.J. 2012 18 9955


-------
ENTROPY
-------

The entropy contributions are T*S = T*(S(el)+S(vib)+S(rot)+S(trans))
     S(el)   - electronic entropy
     S(vib)  - vibrational entropy
     S(rot)  - rotational entropy
     S(trans)- translational entropy
The entropies will be listed as multiplied by the temperature to get
units of energy

Electronic entropy                ...      0.00065446 Eh      0.41 kcal/mol
Vibrational entropy               ...      0.02166036 Eh     13.59 kcal/mol
Rotational entropy                ...      0.01526008 Eh      9.58 kcal/mol
Translational entropy             ...      0.01986141 Eh     12.46 kcal/mol
-----------------------------------------------------------------------
Final entropy term                ...      0.05743631 Eh     36.04 kcal/mol

In case the symmetry of your molecule has not been determined correctly
or in case you have a reason to use a different symmetry number we print 
out the resulting rotational entropy values for sn=1,12 :
 --------------------------------------------------------
|  sn= 1 | S(rot)=       0.01526008 Eh      9.58 kcal/mol|
|  sn= 2 | S(rot)=       0.01460562 Eh      9.17 kcal/mol|
|  sn= 3 | S(rot)=       0.01422279 Eh      8.92 kcal/mol|
|  sn= 4 | S(rot)=       0.01395117 Eh      8.75 kcal/mol|
|  sn= 5 | S(rot)=       0.01374048 Eh      8.62 kcal/mol|
|  sn= 6 | S(rot)=       0.01356834 Eh      8.51 kcal/mol|
|  sn= 7 | S(rot)=       0.01342279 Eh      8.42 kcal/mol|
|  sn= 8 | S(rot)=       0.01329671 Eh      8.34 kcal/mol|
|  sn= 9 | S(rot)=       0.01318550 Eh      8.27 kcal/mol|
|  sn=10 | S(rot)=       0.01308602 Eh      8.21 kcal/mol|
|  sn=11 | S(rot)=       0.01299603 Eh      8.16 kcal/mol|
|  sn=12 | S(rot)=       0.01291388 Eh      8.10 kcal/mol|
 --------------------------------------------------------


-------------------
GIBBS FREE ENERGY
-------------------

The Gibbs free energy is G = H - T*S

Total enthalpy                    ...   -722.84921923 Eh 
Total entropy correction          ...     -0.05743631 Eh    -36.04 kcal/mol
-----------------------------------------------------------------------
Final Gibbs free energy         ...   -722.90665554 Eh

For completeness - the Gibbs free energy minus the electronic energy
G-E(el)                           ...      0.17733121 Eh    111.28 kcal/mol


Timings for individual modules:

Sum of individual times         ...     4186.266 sec (=  69.771 min)
GTO integral calculation        ...      597.710 sec (=   9.962 min)  14.3 %
SCF iterations                  ...     1804.877 sec (=  30.081 min)  43.1 %
SCF Gradient evaluation         ...     1084.690 sec (=  18.078 min)  25.9 %
Geometry relaxation             ...        1.001 sec (=   0.017 min)   0.0 %
Analytical frequency calculation...      697.989 sec (=  11.633 min)  16.7 %
                             ****ORCA TERMINATED NORMALLY****
TOTAL RUN TIME: 0 days 1 hours 19 minutes 43 seconds 728 msec
