
                                 *****************
                                 * O   R   C   A *
                                 *****************

                                            #,                                       
                                            ###                                      
                                            ####                                     
                                            #####                                    
                                            ######                                   
                                           ########,                                 
                                     ,,################,,,,,                         
                               ,,#################################,,                 
                          ,,##########################################,,             
                       ,#########################################, ''#####,          
                    ,#############################################,,   '####,        
                  ,##################################################,,,,####,       
                ,###########''''           ''''###############################       
              ,#####''   ,,,,##########,,,,          '''####'''          '####       
            ,##' ,,,,###########################,,,                        '##       
           ' ,,###''''                  '''############,,,                           
         ,,##''                                '''############,,,,        ,,,,,,###''
      ,#''                                            '''#######################'''  
     '                                                          ''''####''''         
             ,#######,   #######,   ,#######,      ##                                
            ,#'     '#,  ##    ##  ,#'     '#,    #''#        ######   ,####,        
            ##       ##  ##   ,#'  ##            #'  '#       #        #'  '#        
            ##       ##  #######   ##           ,######,      #####,   #    #        
            '#,     ,#'  ##    ##  '#,     ,#' ,#      #,         ##   #,  ,#        
             '#######'   ##     ##  '#######'  #'      '#     #####' # '####'        



                  #######################################################
                  #                        -***-                        #
                  #          Department of theory and spectroscopy      #
                  #    Directorship and core code : Frank Neese         #
                  #        Max Planck Institute fuer Kohlenforschung    #
                  #                Kaiser Wilhelm Platz 1               #
                  #                 D-45470 Muelheim/Ruhr               #
                  #                      Germany                        #
                  #                                                     #
                  #                  All rights reserved                #
                  #                        -***-                        #
                  #######################################################


                         Program Version 5.0.4 -  RELEASE  -


 With contributions from (in alphabetic order):
   Daniel Aravena         : Magnetic Suceptibility
   Michael Atanasov       : Ab Initio Ligand Field Theory (pilot matlab implementation)
   Alexander A. Auer      : GIAO ZORA, VPT2 properties, NMR spectrum
   Ute Becker             : Parallelization
   Giovanni Bistoni       : ED, misc. LED, open-shell LED, HFLD
   Martin Brehm           : Molecular dynamics
   Dmytro Bykov           : SCF Hessian
   Vijay G. Chilkuri      : MRCI spin determinant printing, contributions to CSF-ICE
   Dipayan Datta          : RHF DLPNO-CCSD density
   Achintya Kumar Dutta   : EOM-CC, STEOM-CC
   Dmitry Ganyushin       : Spin-Orbit,Spin-Spin,Magnetic field MRCI
   Miquel Garcia          : C-PCM and meta-GGA Hessian, CC/C-PCM, Gaussian charge scheme
   Yang Guo               : DLPNO-NEVPT2, F12-NEVPT2, CIM, IAO-localization
   Andreas Hansen         : Spin unrestricted coupled pair/coupled cluster methods
   Benjamin Helmich-Paris : MC-RPA, TRAH-SCF, COSX integrals
   Lee Huntington         : MR-EOM, pCC
   Robert Izsak           : Overlap fitted RIJCOSX, COSX-SCS-MP3, EOM
   Marcus Kettner         : VPT2
   Christian Kollmar      : KDIIS, OOCD, Brueckner-CCSD(T), CCSD density, CASPT2, CASPT2-K
   Simone Kossmann        : Meta GGA functionals, TD-DFT gradient, OOMP2, MP2 Hessian
   Martin Krupicka        : Initial AUTO-CI
   Lucas Lang             : DCDCAS
   Marvin Lechner         : AUTO-CI (C++ implementation), FIC-MRCC
   Dagmar Lenk            : GEPOL surface, SMD
   Dimitrios Liakos       : Extrapolation schemes; Compound Job, initial MDCI parallelization
   Dimitrios Manganas     : Further ROCIS development; embedding schemes
   Dimitrios Pantazis     : SARC Basis sets
   Anastasios Papadopoulos: AUTO-CI, single reference methods and gradients
   Taras Petrenko         : DFT Hessian,TD-DFT gradient, ASA, ECA, R-Raman, ABS, FL, XAS/XES, NRVS
   Peter Pinski           : DLPNO-MP2, DLPNO-MP2 Gradient
   Christoph Reimann      : Effective Core Potentials
   Marius Retegan         : Local ZFS, SOC
   Christoph Riplinger    : Optimizer, TS searches, QM/MM, DLPNO-CCSD(T), (RO)-DLPNO pert. Triples
   Tobias Risthaus        : Range-separated hybrids, TD-DFT gradient, RPA, STAB
   Michael Roemelt        : Original ROCIS implementation
   Masaaki Saitow         : Open-shell DLPNO-CCSD energy and density
   Barbara Sandhoefer     : DKH picture change effects
   Avijit Sen             : IP-ROCIS
   Kantharuban Sivalingam : CASSCF convergence, NEVPT2, FIC-MRCI
   Bernardo de Souza      : ESD, SOC TD-DFT
   Georgi Stoychev        : AutoAux, RI-MP2 NMR, DLPNO-MP2 response
   Willem Van den Heuvel  : Paramagnetic NMR
   Boris Wezisla          : Elementary symmetry handling
   Frank Wennmohs         : Technical directorship


 We gratefully acknowledge several colleagues who have allowed us to
 interface, adapt or use parts of their codes:
   Stefan Grimme, W. Hujo, H. Kruse, P. Pracht,  : VdW corrections, initial TS optimization,
                  C. Bannwarth, S. Ehlert          DFT functionals, gCP, sTDA/sTD-DF
   Ed Valeev, F. Pavosevic, A. Kumar             : LibInt (2-el integral package), F12 methods
   Garnet Chan, S. Sharma, J. Yang, R. Olivares  : DMRG
   Ulf Ekstrom                                   : XCFun DFT Library
   Mihaly Kallay                                 : mrcc  (arbitrary order and MRCC methods)
   Jiri Pittner, Ondrej Demel                    : Mk-CCSD
   Frank Weinhold                                : gennbo (NPA and NBO analysis)
   Christopher J. Cramer and Donald G. Truhlar   : smd solvation model
   Lars Goerigk                                  : TD-DFT with DH, B97 family of functionals
   V. Asgeirsson, H. Jonsson                     : NEB implementation
   FAccTs GmbH                                   : IRC, NEB, NEB-TS, DLPNO-Multilevel, CI-OPT
                                                   MM, QMMM, 2- and 3-layer-ONIOM, Crystal-QMMM,
                                                   LR-CPCM, SF, NACMEs, symmetry and pop. for TD-DFT,
                                                   nearIR, NL-DFT gradient (VV10), updates on ESD,
                                                   ML-optimized integration grids
   S Lehtola, MJT Oliveira, MAL Marques          : LibXC Library
   Liviu Ungur et al                             : ANISO software


 Your calculation uses the libint2 library for the computation of 2-el integrals
 For citations please refer to: http://libint.valeyev.net

 Your ORCA version has been built with support for libXC version: 5.1.0
 For citations please refer to: https://tddft.org/programs/libxc/

 This ORCA versions uses:
   CBLAS   interface :  Fast vector & matrix operations
   LAPACKE interface :  Fast linear algebra routines
   SCALAPACK package :  Parallel linear algebra routines
   Shared memory     :  Shared parallel matrices
   BLAS/LAPACK       :  OpenBLAS 0.3.15  USE64BITINT DYNAMIC_ARCH NO_AFFINITY Zen SINGLE_THREADED
        Core in use  :  Zen
   Copyright (c) 2011-2014, The OpenBLAS Project




***************************************
The coordinates will be read from file: model.xyz
***************************************


================================================================================

----- Orbital basis set information -----
Your calculation utilizes the basis: EPR-II
   V. Barone, in Recent Advances in Density Functional Methods, Part 1 (ed. D. P. Chong), World Scientific, Singapore, 1995, p. 287.

----- AuxJ basis set information -----
Your calculation utilizes the auxiliary basis: def2/J
   F. Weigend, Phys. Chem. Chem. Phys. 8, 1057 (2006).

================================================================================
                                        WARNINGS
                       Please study these warnings very carefully!
================================================================================


WARNING: your system is open-shell and RHF/RKS was chosen
  ===> : WILL SWITCH to UHF/UKS


WARNING: Geometry Optimization
  ===> : Switching off AutoStart
         For restart on a previous wavefunction, please use MOREAD

INFO   : the flag for use of the SHARK integral package has been found!

================================================================================
                                       INPUT FILE
================================================================================
NAME = opt.inp
|  1> ! B3LYP EPR-II OPT
|  2> %pal nprocs 16 end
|  3> *XYZFile 0 2 model.xyz
|  4> 
|  5>                          ****END OF INPUT****
================================================================================

                       *****************************
                       * Geometry Optimization Run *
                       *****************************

Geometry optimization settings:
Update method            Update   .... BFGS
Choice of coordinates    CoordSys .... Z-matrix Internals
Initial Hessian          InHess   .... Almoef's Model

Convergence Tolerances:
Energy Change            TolE     ....  5.0000e-06 Eh
Max. Gradient            TolMAXG  ....  3.0000e-04 Eh/bohr
RMS Gradient             TolRMSG  ....  1.0000e-04 Eh/bohr
Max. Displacement        TolMAXD  ....  4.0000e-03 bohr
RMS Displacement         TolRMSD  ....  2.0000e-03 bohr
Strict Convergence                ....  False
------------------------------------------------------------------------------
                        ORCA OPTIMIZATION COORDINATE SETUP
------------------------------------------------------------------------------

The optimization will be done in new redundant internal coordinates
Making redundant internal coordinates   ...  (new redundants) done
Evaluating the initial hessian          ...  (Almloef) done
Evaluating the coordinates              ...  done
Calculating the B-matrix                .... done
Calculating the G-matrix                .... done
Diagonalizing the G-matrix              .... done
Small eigenvalue found = 9.124e-03
Small eigenvalue found = 1.125e-02
Small eigenvalue found = 1.302e-02
The first mode is                       ....   47
The number of degrees of freedom        ....   75

    -----------------------------------------------------------------
                    Redundant Internal Coordinates


    -----------------------------------------------------------------
         Definition                    Initial Value    Approx d2E/dq
    -----------------------------------------------------------------
      1. B(C   1,N   0)                  1.4408         0.464310   
      2. B(C   2,C   1)                  1.5404         0.359579   
      3. B(O   3,C   2)                  1.2166         1.058132   
      4. B(C   4,C   1)                  1.5552         0.340562   
      5. B(C   5,C   4)                  1.4913         0.430707   
      6. B(C   6,C   5)                  1.4544         0.493149   
      7. B(O   7,C   6)                  1.3510         0.645702   
      8. B(O   8,C   6)                  1.2114         1.078581   
      9. B(H   9,N   0)                  1.0118         0.429825   
     10. B(H  10,C   1)                  1.0989         0.348562   
     11. B(C  11,N   0)                  1.3589         0.627299   
     12. B(N  12,C   2)                  1.3489         0.650895   
     13. B(H  13,O   7)                  0.9644         0.511660   
     14. B(H  14,N  12)                  1.0072         0.437148   
     15. B(O  15,C  11)                  1.2169         1.056800   
     16. B(C  16,C  11)                  1.5210         0.386171   
     17. B(H  17,C  16)                  1.0964         0.351669   
     18. B(H  18,C  16)                  1.0948         0.353800   
     19. B(H  19,C  16)                  1.0951         0.353394   
     20. B(C  20,N  12)                  1.4521         0.445442   
     21. B(H  21,C  20)                  1.0959         0.352367   
     22. B(H  22,C  20)                  1.0936         0.355421   
     23. B(H  23,C  20)                  1.0968         0.351153   
     24. B(H  24,C   4)                  1.0964         0.351701   
     25. B(H  25,C   4)                  1.1037         0.342474   
     26. B(H  26,C   5)                  1.0871         0.364013   
     27. A(H   9,N   0,C  11)          122.0089         0.358975   
     28. A(C   1,N   0,C  11)          121.2686         0.407751   
     29. A(C   1,N   0,H   9)          115.8796         0.341202   
     30. A(N   0,C   1,C   4)          112.0484         0.368897   
     31. A(C   2,C   1,C   4)          111.6364         0.355354   
     32. A(N   0,C   1,C   2)          107.3951         0.372360   
     33. A(N   0,C   1,H  10)          108.8901         0.332355   
     34. A(C   2,C   1,H  10)          109.7300         0.320581   
     35. A(C   4,C   1,H  10)          107.1125         0.317750   
     36. A(C   1,C   2,N  12)          115.5998         0.394874   
     37. A(O   3,C   2,N  12)          122.7391         0.476302   
     38. A(C   1,C   2,O   3)          121.6558         0.430434   
     39. A(H  24,C   4,H  25)          106.3641         0.287497   
     40. A(C   1,C   4,H  25)          105.4881         0.316839   
     41. A(C   1,C   4,C   5)          113.2345         0.366461   
     42. A(C   5,C   4,H  25)          110.2179         0.329277   
     43. A(C   5,C   4,H  24)          110.4101         0.330727   
     44. A(C   1,C   4,H  24)          110.7958         0.318215   
     45. A(C   4,C   5,C   6)          124.2663         0.390712   
     46. A(C   4,C   5,H  26)          120.5925         0.332617   
     47. A(C   6,C   5,H  26)          115.1035         0.340198   
     48. A(C   5,C   6,O   7)          113.8185         0.416948   
     49. A(O   7,C   6,O   8)          121.7785         0.477279   
     50. A(C   5,C   6,O   8)          124.4030         0.457331   
     51. A(C   6,O   7,H  13)          106.9573         0.371682   
     52. A(O  15,C  11,C  16)          122.1726         0.435893   
     53. A(N   0,C  11,C  16)          116.0633         0.397267   
     54. A(N   0,C  11,O  15)          121.7641         0.472969   
     55. A(H  14,N  12,C  20)          119.2752         0.339802   
     56. A(C   2,N  12,C  20)          121.2634         0.407422   
     57. A(C   2,N  12,H  14)          119.4206         0.362284   
     58. A(H  18,C  16,H  19)          109.7460         0.289181   
     59. A(H  17,C  16,H  19)          107.7686         0.288908   
     60. A(C  11,C  16,H  19)          108.4489         0.325085   
     61. A(H  17,C  16,H  18)          109.3337         0.288960   
     62. A(C  11,C  16,H  18)          113.1304         0.325146   
     63. A(C  11,C  16,H  17)          108.2638         0.324824   
     64. A(N  12,C  20,H  21)          110.2892         0.330674   
     65. A(H  22,C  20,H  23)          109.3847         0.289100   
     66. A(H  21,C  20,H  23)          108.2392         0.288710   
     67. A(N  12,C  20,H  23)          110.7994         0.330485   
     68. A(H  21,C  20,H  22)          109.3215         0.289256   
     69. A(N  12,C  20,H  22)          108.7868         0.331146   
     70. D(C   4,C   1,N   0,C  11)     75.3401         0.018410   
     71. D(C   2,C   1,N   0,C  11)   -161.7201         0.018410   
     72. D(C   2,C   1,N   0,H   9)      7.9695         0.018410   
     73. D(H  10,C   1,N   0,C  11)    -42.9623         0.018410   
     74. D(C   4,C   1,N   0,H   9)   -114.9703         0.018410   
     75. D(H  10,C   1,N   0,H   9)    126.7273         0.018410   
     76. D(N  12,C   2,C   1,H  10)     52.4963         0.009725   
     77. D(O   3,C   2,C   1,N   0)    -10.1064         0.009725   
     78. D(O   3,C   2,C   1,H  10)   -128.3218         0.009725   
     79. D(N  12,C   2,C   1,C   4)    -66.0948         0.009725   
     80. D(N  12,C   2,C   1,N   0)    170.7118         0.009725   
     81. D(O   3,C   2,C   1,C   4)    113.0870         0.009725   
     82. D(C   5,C   4,C   1,H  10)   -176.1682         0.009388   
     83. D(C   5,C   4,C   1,C   2)    -56.0275         0.009388   
     84. D(C   5,C   4,C   1,N   0)     64.4798         0.009388   
     85. D(H  25,C   4,C   1,H  10)     63.2194         0.009388   
     86. D(H  25,C   4,C   1,C   2)   -176.6399         0.009388   
     87. D(H  25,C   4,C   1,N   0)    -56.1326         0.009388   
     88. D(H  24,C   4,C   1,H  10)    -51.4870         0.009388   
     89. D(H  24,C   4,C   1,C   2)     68.6537         0.009388   
     90. D(H  24,C   4,C   1,N   0)   -170.8390         0.009388   
     91. D(H  26,C   5,C   4,H  24)   -158.8268         0.013700   
     92. D(H  26,C   5,C   4,C   1)    -33.9368         0.013700   
     93. D(C   6,C   5,C   4,H  25)    -93.6997         0.013700   
     94. D(C   6,C   5,C   4,H  24)     23.5190         0.013700   
     95. D(H  26,C   5,C   4,H  25)     83.9545         0.013700   
     96. D(C   6,C   5,C   4,C   1)    148.4090         0.013700   
     97. D(O   8,C   6,C   5,H  26)     -0.1841         0.016561   
     98. D(O   8,C   6,C   5,C   4)    177.5861         0.016561   
     99. D(O   7,C   6,C   5,H  26)    179.7682         0.016561   
    100. D(O   7,C   6,C   5,C   4)     -2.4616         0.016561   
    101. D(H  13,O   7,C   6,O   8)     -0.6677         0.030780   
    102. D(H  13,O   7,C   6,C   5)    179.3786         0.030780   
    103. D(C  16,C  11,N   0,H   9)      6.4284         0.031923   
    104. D(C  16,C  11,N   0,C   1)    175.4812         0.031923   
    105. D(O  15,C  11,N   0,H   9)   -173.5135         0.031923   
    106. D(O  15,C  11,N   0,C   1)     -4.4607         0.031923   
    107. D(C  20,N  12,C   2,O   3)     -1.7554         0.034583   
    108. D(C  20,N  12,C   2,C   1)    177.4167         0.034583   
    109. D(H  14,N  12,C   2,O   3)   -179.4136         0.034583   
    110. D(H  14,N  12,C   2,C   1)     -0.2416         0.034583   
    111. D(H  19,C  16,C  11,N   0)    128.9761         0.011107   
    112. D(H  18,C  16,C  11,O  15)   -173.0737         0.011107   
    113. D(H  18,C  16,C  11,N   0)      6.9847         0.011107   
    114. D(H  17,C  16,C  11,O  15)     65.5888         0.011107   
    115. D(H  19,C  16,C  11,O  15)    -51.0823         0.011107   
    116. D(H  17,C  16,C  11,N   0)   -114.3529         0.011107   
    117. D(H  23,C  20,N  12,H  14)    114.1130         0.016923   
    118. D(H  23,C  20,N  12,C   2)    -63.5485         0.016923   
    119. D(H  22,C  20,N  12,H  14)     -6.1680         0.016923   
    120. D(H  22,C  20,N  12,C   2)    176.1704         0.016923   
    121. D(H  21,C  20,N  12,H  14)   -126.0600         0.016923   
    122. D(H  21,C  20,N  12,C   2)     56.2784         0.016923   
    -----------------------------------------------------------------

Number of atoms                         .... 27
Number of degrees of freedom            .... 122

         *************************************************************
         *                GEOMETRY OPTIMIZATION CYCLE   1            *
         *************************************************************
---------------------------------
CARTESIAN COORDINATES (ANGSTROEM)
---------------------------------
  N     -4.457054   -4.714250   -0.763069
  C     -3.016681   -4.715140   -0.798614
  C     -2.520032   -4.679445    0.659083
  O     -3.279240   -4.474923    1.587450
  C     -2.452385   -3.525322   -1.625962
  C     -2.763306   -2.194290   -1.029687
  C     -1.903124   -1.026675   -1.139540
  O     -0.746398   -1.261079   -1.797074
  O     -2.172416    0.066365   -0.692118
  H     -4.876310   -4.565732    0.145747
  H     -2.673383   -5.638778   -1.284971
  C     -5.189405   -5.105023   -1.838987
  N     -1.195734   -4.871709    0.828475
  H     -0.262294   -0.427343   -1.820589
  H     -0.611515   -5.028333    0.023086
  O     -4.666397   -5.394350   -2.899024
  C     -6.696001   -5.159712   -1.637651
  H     -7.015685   -6.205435   -1.718062
  H     -7.015694   -4.756240   -0.671419
  H     -7.174541   -4.600646   -2.448654
  C     -0.587272   -4.807459    2.145386
  H     -1.073151   -5.518087    2.823580
  H      0.473060   -5.059648    2.056109
  H     -0.687674   -3.802059    2.572197
  H     -1.371796   -3.633789   -1.776656
  H     -2.915918   -3.613996   -2.623630
  H     -3.698566   -2.029969   -0.500553

----------------------------
CARTESIAN COORDINATES (A.U.)
----------------------------
  NO LB      ZA    FRAG     MASS         X           Y           Z
   0 N     7.0000    0    14.007   -8.422611   -8.908641   -1.441991
   1 C     6.0000    0    12.011   -5.700701   -8.910323   -1.509162
   2 C     6.0000    0    12.011   -4.762170   -8.842870    1.245486
   3 O     8.0000    0    15.999   -6.196866   -8.456379    2.999846
   4 C     6.0000    0    12.011   -4.634336   -6.661893   -3.072623
   5 C     6.0000    0    12.011   -5.221892   -4.146607   -1.945826
   6 C     6.0000    0    12.011   -3.596383   -1.940135   -2.153419
   7 O     8.0000    0    15.999   -1.410488   -2.383094   -3.395978
   8 O     8.0000    0    15.999   -4.105271    0.125412   -1.307913
   9 H     1.0000    0     1.008   -9.214890   -8.627983    0.275422
  10 H     1.0000    0     1.008   -5.051962  -10.655746   -2.428243
  11 C     6.0000    0    12.011   -9.806554   -9.647095   -3.475182
  12 N     7.0000    0    14.007   -2.259610   -9.206196    1.565591
  13 H     1.0000    0     1.008   -0.495664   -0.807561   -3.440415
  14 H     1.0000    0     1.008   -1.155596   -9.502172    0.043626
  15 O     8.0000    0    15.999   -8.818212  -10.193844   -5.478361
  16 C     6.0000    0    12.011  -12.653608   -9.750443   -3.094712
  17 H     1.0000    0     1.008  -13.257723  -11.726573   -3.246667
  18 H     1.0000    0     1.008  -13.257740   -8.987991   -1.268798
  19 H     1.0000    0     1.008  -13.557918   -8.693961   -4.627285
  20 C     6.0000    0    12.011   -1.109783   -9.084781    4.054192
  21 H     1.0000    0     1.008   -2.027961  -10.427673    5.335793
  22 H     1.0000    0     1.008    0.893954   -9.561349    3.885483
  23 H     1.0000    0     1.008   -1.299516   -7.184850    4.860748
  24 H     1.0000    0     1.008   -2.592319   -6.866866   -3.357393
  25 H     1.0000    0     1.008   -5.510286   -6.829463   -4.957942
  26 H     1.0000    0     1.008   -6.989277   -3.836085   -0.945908

--------------------------------
INTERNAL COORDINATES (ANGSTROEM)
--------------------------------
 N      0   0   0     0.000000000000     0.00000000     0.00000000
 C      1   0   0     1.440811791406     0.00000000     0.00000000
 C      2   1   0     1.540394399508   107.39506442     0.00000000
 O      3   2   1     1.216590038771   121.65579184   349.89363074
 C      2   1   3     1.555185378611   112.04837644   237.06019501
 C      5   2   1     1.491261857921   113.23445818    64.47976129
 C      6   5   2     1.454409001264   124.26634691   148.40895282
 O      7   6   5     1.351040797107   113.81850419   357.53840506
 O      7   6   5     1.211379820266   124.40302248   177.58606550
 H      1   2   3     1.011819999662   115.87959823     7.96949182
 H      2   1   3     1.098864779350   108.89013695   118.75779153
 C      1   2   3     1.358911721730   121.26857002   198.27992042
 N      3   2   1     1.348860366444   115.59978024   170.71177586
 H      8   7   6     0.964378222347   106.95729735   179.37860227
 H     13   3   2     1.007221107135   119.42055592   359.75843508
 O     12   1   2     1.216932998304   121.76411059   355.53934505
 C     12   1   2     1.520972905358   116.06329941   175.48123956
 H     17  12   1     1.096448987188   108.26378078   245.64714470
 H     17  12   1     1.094804798518   113.13040161     6.98467423
 H     17  12   1     1.095116975471   108.44890726   128.97609345
 C     13   3   2     1.452104903189   121.26341137   177.41665483
 H     21  13   3     1.095909512077   110.28923090    56.27839576
 H     21  13   3     1.093560069074   108.78675261   176.17042455
 H     21  13   3     1.096848827927   110.79943593   296.45148269
 H      5   2   1     1.096424351538   110.79583938   189.16100612
 H      5   2   1     1.103660889308   105.48807210   303.86736215
 H      6   5   2     1.087058162472   120.59247514   326.06319411

---------------------------
INTERNAL COORDINATES (A.U.)
---------------------------
 N      0   0   0     0.000000000000     0.00000000     0.00000000
 C      1   0   0     2.722739696281     0.00000000     0.00000000
 C      2   1   0     2.910923553296   107.39506442     0.00000000
 O      3   2   1     2.299021990534   121.65579184   349.89363074
 C      2   1   3     2.938874453053   112.04837644   237.06019501
 C      5   2   1     2.818076505433   113.23445818    64.47976129
 C      6   5   2     2.748434699099   124.26634691   148.40895282
 O      7   6   5     2.553097102287   113.81850419   357.53840506
 O      7   6   5     2.289176104462   124.40302248   177.58606550
 H      1   2   3     1.912062696185   115.87959823     7.96949182
 H      2   1   3     2.076553491184   108.89013695   118.75779153
 C      1   2   3     2.567970994244   121.26857002   198.27992042
 N      3   2   1     2.548976685480   115.59978024   170.71177586
 H      8   7   6     1.822410729753   106.95729735   179.37860227
 H     13   3   2     1.903372048790   119.42055592   359.75843508
 O     12   1   2     2.299670090127   121.76411059   355.53934505
 C     12   1   2     2.874222248241   116.06329941   175.48123956
 H     17  12   1     2.071988305601   108.26378078   245.64714470
 H     17  12   1     2.068881239301   113.13040161     6.98467423
 H     17  12   1     2.069471168249   108.44890726   128.97609345
 C     13   3   2     2.744080584751   121.26341137   177.41665483
 H     21  13   3     2.070968845385   110.28923090    56.27839576
 H     21  13   3     2.066529041543   108.78675261   176.17042455
 H     21  13   3     2.072743895095   110.79943593   296.45148269
 H      5   2   1     2.071941750969   110.79583938   189.16100612
 H      5   2   1     2.085616825513   105.48807210   303.86736215
 H      6   5   2     2.054242218716   120.59247514   326.06319411

---------------------
BASIS SET INFORMATION
---------------------
There are 4 groups of distinct atoms

 Group   1 Type N   : 10s5p1d contracted to 6s2p1d pattern {511111/41/1}
 Group   2 Type C   : 10s5p1d contracted to 6s2p1d pattern {511111/41/1}
 Group   3 Type O   : 10s5p1d contracted to 6s2p1d pattern {511111/41/1}
 Group   4 Type H   : 6s1p contracted to 4s1p pattern {3111/1}

Atom   0N    basis set group =>   1
Atom   1C    basis set group =>   2
Atom   2C    basis set group =>   2
Atom   3O    basis set group =>   3
Atom   4C    basis set group =>   2
Atom   5C    basis set group =>   2
Atom   6C    basis set group =>   2
Atom   7O    basis set group =>   3
Atom   8O    basis set group =>   3
Atom   9H    basis set group =>   4
Atom  10H    basis set group =>   4
Atom  11C    basis set group =>   2
Atom  12N    basis set group =>   1
Atom  13H    basis set group =>   4
Atom  14H    basis set group =>   4
Atom  15O    basis set group =>   3
Atom  16C    basis set group =>   2
Atom  17H    basis set group =>   4
Atom  18H    basis set group =>   4
Atom  19H    basis set group =>   4
Atom  20C    basis set group =>   2
Atom  21H    basis set group =>   4
Atom  22H    basis set group =>   4
Atom  23H    basis set group =>   4
Atom  24H    basis set group =>   4
Atom  25H    basis set group =>   4
Atom  26H    basis set group =>   4
---------------------------------
AUXILIARY/J BASIS SET INFORMATION
---------------------------------
There are 4 groups of distinct atoms

 Group   1 Type N   : 12s5p4d2f1g contracted to 6s4p3d1f1g pattern {711111/2111/211/2/1}
 Group   2 Type C   : 12s5p4d2f1g contracted to 6s4p3d1f1g pattern {711111/2111/211/2/1}
 Group   3 Type O   : 12s5p4d2f1g contracted to 6s4p3d1f1g pattern {711111/2111/211/2/1}
 Group   4 Type H   : 5s2p1d contracted to 3s1p1d pattern {311/2/1}

Atom   0N    basis set group =>   1
Atom   1C    basis set group =>   2
Atom   2C    basis set group =>   2
Atom   3O    basis set group =>   3
Atom   4C    basis set group =>   2
Atom   5C    basis set group =>   2
Atom   6C    basis set group =>   2
Atom   7O    basis set group =>   3
Atom   8O    basis set group =>   3
Atom   9H    basis set group =>   4
Atom  10H    basis set group =>   4
Atom  11C    basis set group =>   2
Atom  12N    basis set group =>   1
Atom  13H    basis set group =>   4
Atom  14H    basis set group =>   4
Atom  15O    basis set group =>   3
Atom  16C    basis set group =>   2
Atom  17H    basis set group =>   4
Atom  18H    basis set group =>   4
Atom  19H    basis set group =>   4
Atom  20C    basis set group =>   2
Atom  21H    basis set group =>   4
Atom  22H    basis set group =>   4
Atom  23H    basis set group =>   4
Atom  24H    basis set group =>   4
Atom  25H    basis set group =>   4
Atom  26H    basis set group =>   4


           ************************************************************
           *        Program running with 16 parallel MPI-processes    *
           *              working on a common directory               *
           ************************************************************
------------------------------------------------------------------------------
                           ORCA GTO INTEGRAL CALCULATION
                           -- RI-GTO INTEGRALS CHOSEN --
------------------------------------------------------------------------------
------------------------------------------------------------------------------
                   ___                                                        
                  /   \      - P O W E R E D   B Y -                         
                 /     \                                                     
                 |  |  |   _    _      __       _____    __    __             
                 |  |  |  | |  | |    /  \     |  _  \  |  |  /  |          
                  \  \/   | |  | |   /    \    | | | |  |  | /  /          
                 / \  \   | |__| |  /  /\  \   | |_| |  |  |/  /          
                |  |  |   |  __  | /  /__\  \  |    /   |      \           
                |  |  |   | |  | | |   __   |  |    \   |  |\   \          
                \     /   | |  | | |  |  |  |  | |\  \  |  | \   \       
                 \___/    |_|  |_| |__|  |__|  |_| \__\ |__|  \__/        
                                                                              
                      - O R C A' S   B I G   F R I E N D -                    
                                      &                                       
                       - I N T E G R A L  F E E D E R -                       
                                                                              
 v1 FN, 2020, v2 2021                                                         
------------------------------------------------------------------------------


Reading SHARK input file opt.SHARKINP.tmp ... ok
----------------------
SHARK INTEGRAL PACKAGE
----------------------

Number of atoms                             ...     27
Number of basis functions                   ...    329
Number of shells                            ...    191
Maximum angular momentum                    ...      2
Integral batch strategy                     ... SHARK/LIBINT Hybrid
RI-J (if used) integral strategy            ... SPLIT-RIJ (Revised 2003 algorithm where possible)
Printlevel                                  ...      1
Contraction scheme used                     ... SEGMENTED contraction
Coulomb Range Separation                    ... NOT USED
Exchange Range Separation                   ... NOT USED
Finite Nucleus Model                        ... NOT USED
Auxiliary Coulomb fitting basis             ... AVAILABLE
   # of basis functions in Aux-J            ...    829
   # of shells in Aux-J                     ...    275
   Maximum angular momentum in Aux-J        ...      4
Auxiliary J/K fitting basis                 ... NOT available
Auxiliary Correlation fitting basis         ... NOT available
Auxiliary 'external' fitting basis          ... NOT available
Integral threshold                          ...     2.500000e-11
Primitive cut-off                           ...     2.500000e-12
Primitive pair pre-selection threshold      ...     2.500000e-12

Calculating pre-screening integrals         ... done (  0.0 sec) Dimension = 191
Organizing shell pair data                  ... done (  0.0 sec)
Shell pair information
Total number of shell pairs                 ...     18336
Shell pairs after pre-screening             ...     12798
Total number of primitive shell pairs       ...     50033
Primitive shell pairs kept                  ...     25338
          la=0 lb=0:   5813 shell pairs
          la=1 lb=0:   4355 shell pairs
          la=1 lb=1:    760 shell pairs
          la=2 lb=0:   1308 shell pairs
          la=2 lb=1:    479 shell pairs
          la=2 lb=2:     83 shell pairs

Calculating one electron integrals          ... done (  0.0 sec)
Calculating RI/J V-Matrix + Cholesky decomp.... done (  0.0 sec)
Calculating Nuclear repulsion               ... done (  0.0 sec) ENN=    919.578465801550 Eh

SHARK setup successfully completed in   0.2 seconds

Maximum memory used throughout the entire GTOINT-calculation: 19.6 MB


           ************************************************************
           *        Program running with 16 parallel MPI-processes    *
           *              working on a common directory               *
           ************************************************************
-------------------------------------------------------------------------------
                                 ORCA SCF
-------------------------------------------------------------------------------

------------
SCF SETTINGS
------------
Hamiltonian:
 Density Functional     Method          .... DFT(GTOs)
 Exchange Functional    Exchange        .... B88
   X-Alpha parameter    XAlpha          ....  0.666667
   Becke's b parameter  XBeta           ....  0.004200
 Correlation Functional Correlation     .... LYP
 LDA part of GGA corr.  LDAOpt          .... VWN-5
 Gradients option       PostSCFGGA      .... off
 Hybrid DFT is turned on
   Fraction HF Exchange ScalHFX         ....  0.200000
   Scaling of DF-GGA-X  ScalDFX         ....  0.720000
   Scaling of DF-GGA-C  ScalDFC         ....  0.810000
   Scaling of DF-LDA-C  ScalLDAC        ....  1.000000
   Perturbative correction              ....  0.000000
   Density functional embedding theory  .... OFF
   NL short-range parameter             ....  4.800000
 RI-approximation to the Coulomb term is turned on
   Number of AuxJ basis functions       .... 829
   RIJ-COSX (HFX calculated with COS-X)).... on


General Settings:
 Integral files         IntName         .... opt
 Hartree-Fock type      HFTyp           .... UHF
 Total Charge           Charge          ....    0
 Multiplicity           Mult            ....    2
 Number of Electrons    NEL             ....  107
 Basis Dimension        Dim             ....  329
 Nuclear Repulsion      ENuc            ....    919.5784658016 Eh

Convergence Acceleration:
 DIIS                   CNVDIIS         .... on
   Start iteration      DIISMaxIt       ....    12
   Startup error        DIISStart       ....  0.200000
   # of expansion vecs  DIISMaxEq       ....     5
   Bias factor          DIISBfac        ....   1.050
   Max. coefficient     DIISMaxC        ....  10.000
 Trust-Rad. Augm. Hess. CNVTRAH         .... auto
   Auto Start mean grad. ratio tolernc. ....  1.125000
   Auto Start start iteration           ....    20
   Auto Start num. interpolation iter.  ....    10
   Max. Number of Micro iterations      ....    16
   Max. Number of Macro iterations      .... Maxiter - #DIIS iter
   Number of Davidson start vectors     ....     2
   Converg. threshold I  (grad. norm)   ....   1.000e-05
   Converg. threshold II (energy diff.) ....   1.000e-08
   Grad. Scal. Fac. for Micro threshold ....   0.100
   Minimum threshold for Micro iter.    ....   0.010
   NR start threshold (gradient norm)   ....   0.001
   Initial trust radius                 ....   0.400
   Minimum AH scaling param. (alpha)    ....   1.000
   Maximum AH scaling param. (alpha)    .... 1000.000
   Orbital update algorithm             .... Taylor
   White noise on init. David. guess    .... on
   Maximum white noise                  ....   0.010
   Quad. conv. algorithm                .... NR
 SOSCF                  CNVSOSCF        .... off
 Level Shifting         CNVShift        .... on
   Level shift para.    LevelShift      ....    0.2500
   Turn off err/grad.   ShiftErr        ....    0.0010
 Zerner damping         CNVZerner       .... off
 Static damping         CNVDamp         .... on
   Fraction old density DampFac         ....    0.7000
   Max. Damping (<1)    DampMax         ....    0.9800
   Min. Damping (>=0)   DampMin         ....    0.0000
   Turn off err/grad.   DampErr         ....    0.1000
 Fernandez-Rico         CNVRico         .... off

SCF Procedure:
 Maximum # iterations   MaxIter         ....   125
 SCF integral mode      SCFMode         .... Direct
   Integral package                     .... SHARK and LIBINT hybrid scheme
 Reset frequency        DirectResetFreq ....    20
 Integral Threshold     Thresh          ....  2.500e-11 Eh
 Primitive CutOff       TCut            ....  2.500e-12 Eh

Convergence Tolerance:
 Convergence Check Mode ConvCheckMode   .... Total+1el-Energy
 Convergence forced     ConvForced      .... 0
 Energy Change          TolE            ....  1.000e-08 Eh
 1-El. energy change                    ....  1.000e-05 Eh
 DIIS Error             TolErr          ....  5.000e-07


Diagonalization of the overlap matrix:
Smallest eigenvalue                        ... 8.079e-04
Time for diagonalization                   ...    0.013 sec
Threshold for overlap eigenvalues          ... 1.000e-08
Number of eigenvalues below threshold      ... 0
Time for construction of square roots      ...    0.010 sec
Total time needed                          ...    0.024 sec

Time for model grid setup =    0.104 sec

------------------------------
INITIAL GUESS: MODEL POTENTIAL
------------------------------
Loading Hartree-Fock densities                     ... done
Calculating cut-offs                               ... done
Initializing the effective Hamiltonian             ... done
Setting up the integral package (SHARK)            ... done
Starting the Coulomb interaction                   ... done (   0.0 sec)
Reading the grid                                   ... done
Mapping shells                                     ... done
Starting the XC term evaluation                    ... done (   0.0 sec)
  promolecular density results
     # of electrons  =    106.988446873
     EX              =    -90.952064791
     EC              =     -3.676790444
     EX+EC           =    -94.628855235
Transforming the Hamiltonian                       ... done (   0.0 sec)
Diagonalizing the Hamiltonian                      ... done (   0.0 sec)
Back transforming the eigenvectors                 ... done (   0.0 sec)
Now organizing SCF variables                       ... done
                      ------------------
                      INITIAL GUESS DONE (   0.3 sec)
                      ------------------
-------------------
DFT GRID GENERATION
-------------------

General Integration Accuracy     IntAcc      ... 4.388
Radial Grid Type                 RadialGrid  ... OptM3 with GC (2021)
Angular Grid (max. ang.)         AngularGrid ... 4 (Lebedev-302)
Angular grid pruning method      GridPruning ... 4 (adaptive)
Weight generation scheme         WeightScheme... Becke
Basis function cutoff            BFCut       ... 1.0000e-11
Integration weight cutoff        WCut        ... 1.0000e-14
Angular grids for H and He will be reduced by one unit
Partially contracted basis set               ... off
Rotationally invariant grid construction     ... off

Total number of grid points                  ...   125901
Total number of batches                      ...     1983
Average number of points per batch           ...       63
Average number of grid points per atom       ...     4663
Time for grid setup =    0.524 sec

--------------------
COSX GRID GENERATION
--------------------

GRIDX 1
-------
General Integration Accuracy     IntAcc      ... 3.816
Radial Grid Type                 RadialGrid  ... OptM3 with GC (2021)
Angular Grid (max. ang.)         AngularGrid ... 1 (Lebedev-50)
Angular grid pruning method      GridPruning ... 4 (adaptive)
Weight generation scheme         WeightScheme... Becke
Basis function cutoff            BFCut       ... 1.0000e-11
Integration weight cutoff        WCut        ... 1.0000e-14
Angular grids for H and He will be reduced by one unit
Partially contracted basis set               ... on
Rotationally invariant grid construction     ... off

Total number of grid points                  ...    16050
Total number of batches                      ...      265
Average number of points per batch           ...       60
Average number of grid points per atom       ...      594
UseSFitting                                  ... on

GRIDX 2
-------
General Integration Accuracy     IntAcc      ... 4.020
Radial Grid Type                 RadialGrid  ... OptM3 with GC (2021)
Angular Grid (max. ang.)         AngularGrid ... 2 (Lebedev-110)
Angular grid pruning method      GridPruning ... 4 (adaptive)
Weight generation scheme         WeightScheme... Becke
Basis function cutoff            BFCut       ... 1.0000e-11
Integration weight cutoff        WCut        ... 1.0000e-14
Angular grids for H and He will be reduced by one unit
Partially contracted basis set               ... on
Rotationally invariant grid construction     ... off

Total number of grid points                  ...    34725
Total number of batches                      ...      556
Average number of points per batch           ...       62
Average number of grid points per atom       ...     1286
UseSFitting                                  ... on

GRIDX 3
-------
General Integration Accuracy     IntAcc      ... 4.338
Radial Grid Type                 RadialGrid  ... OptM3 with GC (2021)
Angular Grid (max. ang.)         AngularGrid ... 3 (Lebedev-194)
Angular grid pruning method      GridPruning ... 4 (adaptive)
Weight generation scheme         WeightScheme... Becke
Basis function cutoff            BFCut       ... 1.0000e-11
Integration weight cutoff        WCut        ... 1.0000e-14
Angular grids for H and He will be reduced by one unit
Partially contracted basis set               ... on
Rotationally invariant grid construction     ... off

Total number of grid points                  ...    76045
Total number of batches                      ...     1200
Average number of points per batch           ...       63
Average number of grid points per atom       ...     2816
UseSFitting                                  ... on

Time for X-Grid setup             =    0.650 sec

--------------
SCF ITERATIONS
--------------
ITER       Energy         Delta-E        Max-DP      RMS-DP      [F,P]     Damp
               ***  Starting incremental Fock matrix formation  ***
  0   -722.3419481147   0.000000000000 0.06270740  0.00109542  0.1293774 0.7000
  1   -722.5874641091  -0.245515994447 0.04496647  0.00075562  0.0508454 0.7000
                               ***Turning on DIIS***
  2   -722.6709076382  -0.083443529044 0.06933399  0.00111839  0.0182722 0.0000
  3   -722.8185322900  -0.147624651835 0.04015729  0.00056912  0.0270424 0.0000
  4   -722.8455229565  -0.026990666553 0.01544417  0.00019493  0.0079485 0.0000
  5   -722.8478657342  -0.002342777621 0.00616902  0.00007020  0.0033057 0.0000
  6   -722.8480829859  -0.000217251718 0.00368925  0.00004777  0.0009963 0.0000
               *** Restarting incremental Fock matrix formation ***
                                   *** Resetting DIIS ***
  7   -722.8481342816  -0.000051295753 0.00219510  0.00002583  0.0009276 0.0000
  8   -722.8481197760   0.000014505623 0.00101901  0.00001004  0.0015891 0.0000
  9   -722.8481534983  -0.000033722246 0.00066414  0.00000661  0.0003430 0.0000
 10   -722.8481571887  -0.000003690471 0.00070105  0.00000386  0.0002396 0.0000
 11   -722.8481581117  -0.000000923015 0.00031503  0.00000197  0.0001775 0.0000
 12   -722.8481584145  -0.000000302771 0.00017916  0.00000089  0.0000737 0.0000
 13   -722.8481584554  -0.000000040917 0.00006168  0.00000046  0.0000412 0.0000
 14   -722.8481584675  -0.000000012096 0.00001935  0.00000020  0.0000120 0.0000
 15   -722.8481584677  -0.000000000194 0.00001578  0.00000013  0.0000088 0.0000
 16   -722.8481584756  -0.000000007840 0.00000488  0.00000005  0.0000032 0.0000
 17   -722.8481584817  -0.000000006150 0.00000302  0.00000003  0.0000016 0.0000
 18   -722.8481584956  -0.000000013931 0.00000303  0.00000002  0.0000018 0.0000
 19   -722.8481584860   0.000000009599 0.00000115  0.00000001  0.0000011 0.0000
                 **** Energy Check signals convergence ****

               *****************************************************
               *                     SUCCESS                       *
               *           SCF CONVERGED AFTER  20 CYCLES          *
               *****************************************************

Old exchange energy                            =    -18.446296027 Eh
New exchange energy                            =    -18.446344034 Eh
Exchange energy change after final integration =     -0.000048007 Eh
Total energy after final integration           =   -722.848206498 Eh
Final COS-X integration done in                =     1.795 sec

----------------
TOTAL SCF ENERGY
----------------

Total Energy       :         -722.84820650 Eh          -19669.69969 eV

Components:
Nuclear Repulsion  :          919.57846580 Eh           25023.00220 eV
Electronic Energy  :        -1642.42667230 Eh          -44692.70189 eV
One Electron Energy:        -2811.01910368 Eh          -76491.71857 eV
Two Electron Energy:         1168.59243138 Eh           31799.01669 eV
Max COSX asymmetry :            0.00000087 Eh               0.00002 eV

Virial components:
Potential Energy   :        -1441.24445865 Eh          -39218.25554 eV
Kinetic Energy     :          718.39625215 Eh           19548.55585 eV
Virial Ratio       :            2.00619707


DFT components:
N(Alpha)           :       54.000019406061 electrons
N(Beta)            :       53.000019097532 electrons
N(Total)           :      107.000038503593 electrons
E(X)               :      -73.350445790677 Eh       
E(C)               :       -4.329005217529 Eh       
E(XC)              :      -77.679451008206 Eh       
DFET-embed. en.    :        0.000000000000 Eh       

---------------
SCF CONVERGENCE
---------------

  Last Energy change         ...   -4.9970e-09  Tolerance :   1.0000e-08
  Last MAX-Density change    ...    0.0000e+00  Tolerance :   1.0000e-07
  Last RMS-Density change    ...    0.0000e+00  Tolerance :   5.0000e-09
  Last DIIS Error            ...    5.2902e-07  Tolerance :   5.0000e-07

             **** THE GBW FILE WAS UPDATED (opt.gbw) ****
             **** DENSITY opt.scfp WAS UPDATED ****
             **** ENERGY FILE WAS UPDATED (opt.en.tmp) ****
----------------------
UHF SPIN CONTAMINATION
----------------------

Warning: in a DFT calculation there is little theoretical justification to 
         calculate <S**2> as in Hartree-Fock theory. We will do it anyways
         but you should keep in mind that the values have only limited relevance

Expectation value of <S**2>     :     0.757188
Ideal value S*(S+1) for S=0.5   :     0.750000
Deviation                       :     0.007188

             **** THE GBW FILE WAS UPDATED (opt.gbw) ****
             **** DENSITY opt.scfp WAS UPDATED ****
----------------
ORBITAL ENERGIES
----------------
                 SPIN UP ORBITALS
  NO   OCC          E(Eh)            E(eV) 
   0   1.0000     -19.189306      -522.1676 
   1   1.0000     -19.136076      -520.7191 
   2   1.0000     -19.129785      -520.5479 
   3   1.0000     -19.109772      -520.0033 
   4   1.0000     -14.377340      -391.2273 
   5   1.0000     -14.359073      -390.7302 
   6   1.0000     -10.323298      -280.9112 
   7   1.0000     -10.308089      -280.4974 
   8   1.0000     -10.295090      -280.1436 
   9   1.0000     -10.251754      -278.9644 
  10   1.0000     -10.231994      -278.4267 
  11   1.0000     -10.230536      -278.3870 
  12   1.0000     -10.212573      -277.8982 
  13   1.0000     -10.192107      -277.3413 
  14   1.0000      -1.111594       -30.2480 
  15   1.0000      -1.062803       -28.9203 
  16   1.0000      -1.041775       -28.3481 
  17   1.0000      -1.019460       -27.7409 
  18   1.0000      -0.942190       -25.6383 
  19   1.0000      -0.932027       -25.3617 
  20   1.0000      -0.818906       -22.2836 
  21   1.0000      -0.763808       -20.7843 
  22   1.0000      -0.734321       -19.9819 
  23   1.0000      -0.706601       -19.2276 
  24   1.0000      -0.656539       -17.8653 
  25   1.0000      -0.610805       -16.6208 
  26   1.0000      -0.607770       -16.5383 
  27   1.0000      -0.581301       -15.8180 
  28   1.0000      -0.548795       -14.9335 
  29   1.0000      -0.511115       -13.9081 
  30   1.0000      -0.490734       -13.3536 
  31   1.0000      -0.483630       -13.1602 
  32   1.0000      -0.476847       -12.9757 
  33   1.0000      -0.472027       -12.8445 
  34   1.0000      -0.464128       -12.6296 
  35   1.0000      -0.459057       -12.4916 
  36   1.0000      -0.455986       -12.4080 
  37   1.0000      -0.437206       -11.8970 
  38   1.0000      -0.430803       -11.7227 
  39   1.0000      -0.413036       -11.2393 
  40   1.0000      -0.411361       -11.1937 
  41   1.0000      -0.409215       -11.1353 
  42   1.0000      -0.401059       -10.9134 
  43   1.0000      -0.396746       -10.7960 
  44   1.0000      -0.382335       -10.4039 
  45   1.0000      -0.379330       -10.3221 
  46   1.0000      -0.355761        -9.6807 
  47   1.0000      -0.333539        -9.0761 
  48   1.0000      -0.285072        -7.7572 
  49   1.0000      -0.279677        -7.6104 
  50   1.0000      -0.278862        -7.5882 
  51   1.0000      -0.266079        -7.2404 
  52   1.0000      -0.256948        -6.9919 
  53   1.0000      -0.234605        -6.3839 
  54   0.0000      -0.000560        -0.0152 
  55   0.0000       0.007656         0.2083 
  56   0.0000       0.019912         0.5418 
  57   0.0000       0.022764         0.6194 
  58   0.0000       0.029290         0.7970 
  59   0.0000       0.030543         0.8311 
  60   0.0000       0.040764         1.1092 
  61   0.0000       0.057179         1.5559 
  62   0.0000       0.064551         1.7565 
  63   0.0000       0.070314         1.9133 
  64   0.0000       0.084282         2.2934 
  65   0.0000       0.101675         2.7667 
  66   0.0000       0.107545         2.9265 
  67   0.0000       0.127922         3.4809 
  68   0.0000       0.144907         3.9431 
  69   0.0000       0.151572         4.1245 
  70   0.0000       0.161627         4.3981 
  71   0.0000       0.171977         4.6797 
  72   0.0000       0.177699         4.8354 
  73   0.0000       0.180634         4.9153 
  74   0.0000       0.186761         5.0820 
  75   0.0000       0.191482         5.2105 
  76   0.0000       0.195292         5.3142 
  77   0.0000       0.203324         5.5327 
  78   0.0000       0.212950         5.7947 
  79   0.0000       0.221450         6.0260 
  80   0.0000       0.227579         6.1927 
  81   0.0000       0.231300         6.2940 
  82   0.0000       0.239475         6.5164 
  83   0.0000       0.247259         6.7283 
  84   0.0000       0.256791         6.9877 
  85   0.0000       0.263713         7.1760 
  86   0.0000       0.271674         7.3926 
  87   0.0000       0.276077         7.5124 
  88   0.0000       0.285828         7.7778 
  89   0.0000       0.288107         7.8398 
  90   0.0000       0.299306         8.1445 
  91   0.0000       0.300907         8.1881 
  92   0.0000       0.310469         8.4483 
  93   0.0000       0.312540         8.5046 
  94   0.0000       0.323117         8.7925 
  95   0.0000       0.324650         8.8342 
  96   0.0000       0.338648         9.2151 
  97   0.0000       0.344706         9.3799 
  98   0.0000       0.356448         9.6995 
  99   0.0000       0.368479        10.0268 
 100   0.0000       0.369708        10.0603 
 101   0.0000       0.389048        10.5865 
 102   0.0000       0.397583        10.8188 
 103   0.0000       0.407574        11.0907 
 104   0.0000       0.412136        11.2148 
 105   0.0000       0.429691        11.6925 
 106   0.0000       0.437747        11.9117 
 107   0.0000       0.452217        12.3055 
 108   0.0000       0.456239        12.4149 
 109   0.0000       0.474138        12.9019 
 110   0.0000       0.477645        12.9974 
 111   0.0000       0.504036        13.7155 
 112   0.0000       0.512568        13.9477 
 113   0.0000       0.526977        14.3398 
 114   0.0000       0.536469        14.5981 
 115   0.0000       0.553997        15.0750 
 116   0.0000       0.563168        15.3246 
 117   0.0000       0.579965        15.7817 
 118   0.0000       0.592655        16.1270 
 119   0.0000       0.598445        16.2845 
 120   0.0000       0.621666        16.9164 
 121   0.0000       0.630389        17.1538 
 122   0.0000       0.657003        17.8780 
 123   0.0000       0.669489        18.2177 
 124   0.0000       0.685362        18.6497 
 125   0.0000       0.700002        19.0480 
 126   0.0000       0.705697        19.2030 
 127   0.0000       0.739313        20.1177 
 128   0.0000       0.768146        20.9023 
 129   0.0000       0.778252        21.1773 
 130   0.0000       0.781257        21.2591 
 131   0.0000       0.788619        21.4594 
 132   0.0000       0.814696        22.1690 
 133   0.0000       0.817047        22.2330 
 134   0.0000       0.821905        22.3652 
 135   0.0000       0.832084        22.6421 
 136   0.0000       0.839676        22.8487 
 137   0.0000       0.843374        22.9494 
 138   0.0000       0.851219        23.1629 
 139   0.0000       0.855539        23.2804 
 140   0.0000       0.866083        23.5673 
 141   0.0000       0.876581        23.8530 
 142   0.0000       0.893557        24.3149 
 143   0.0000       0.898370        24.4459 
 144   0.0000       0.909754        24.7557 
 145   0.0000       0.913501        24.8576 
 146   0.0000       0.922501        25.1025 
 147   0.0000       0.931229        25.3400 
 148   0.0000       0.934413        25.4267 
 149   0.0000       0.950412        25.8620 
 150   0.0000       0.962730        26.1972 
 151   0.0000       0.973315        26.4852 
 152   0.0000       0.976928        26.5836 
 153   0.0000       0.984160        26.7803 
 154   0.0000       0.991727        26.9863 
 155   0.0000       1.007540        27.4166 
 156   0.0000       1.017550        27.6889 
 157   0.0000       1.039919        28.2976 
 158   0.0000       1.042830        28.3768 
 159   0.0000       1.053543        28.6684 
 160   0.0000       1.076170        29.2841 
 161   0.0000       1.112899        30.2835 
 162   0.0000       1.134407        30.8688 
 163   0.0000       1.140232        31.0273 
 164   0.0000       1.150196        31.2984 
 165   0.0000       1.158618        31.5276 
 166   0.0000       1.164521        31.6882 
 167   0.0000       1.185438        32.2574 
 168   0.0000       1.195717        32.5371 
 169   0.0000       1.211029        32.9538 
 170   0.0000       1.265345        34.4318 
 171   0.0000       1.296348        35.2754 
 172   0.0000       1.299750        35.3680 
 173   0.0000       1.327977        36.1361 
 174   0.0000       1.343627        36.5619 
 175   0.0000       1.369668        37.2706 
 176   0.0000       1.379330        37.5335 
 177   0.0000       1.389298        37.8047 
 178   0.0000       1.392819        37.9005 
 179   0.0000       1.399345        38.0781 
 180   0.0000       1.405617        38.2488 
 181   0.0000       1.425545        38.7911 
 182   0.0000       1.440602        39.2008 
 183   0.0000       1.465646        39.8823 
 184   0.0000       1.480561        40.2881 
 185   0.0000       1.486718        40.4557 
 186   0.0000       1.492068        40.6012 
 187   0.0000       1.498431        40.7744 
 188   0.0000       1.527779        41.5730 
 189   0.0000       1.547973        42.1225 
 190   0.0000       1.551322        42.2136 
 191   0.0000       1.562394        42.5149 
 192   0.0000       1.587798        43.2062 
 193   0.0000       1.592186        43.3256 
 194   0.0000       1.604157        43.6513 
 195   0.0000       1.610933        43.8357 
 196   0.0000       1.613788        43.9134 
 197   0.0000       1.635218        44.4965 
 198   0.0000       1.656677        45.0805 
 199   0.0000       1.676846        45.6293 
 200   0.0000       1.689650        45.9777 
 201   0.0000       1.694736        46.1161 
 202   0.0000       1.707884        46.4739 
 203   0.0000       1.722924        46.8831 
 204   0.0000       1.726417        46.9782 
 205   0.0000       1.735545        47.2266 
 206   0.0000       1.763132        47.9773 
 207   0.0000       1.768957        48.1358 
 208   0.0000       1.807472        49.1838 
 209   0.0000       1.818568        49.4858 
 210   0.0000       1.833493        49.8919 
 211   0.0000       1.845657        50.2229 
 212   0.0000       1.862262        50.6747 
 213   0.0000       1.871282        50.9202 
 214   0.0000       1.878257        51.1100 
 215   0.0000       1.899795        51.6960 
 216   0.0000       1.938707        52.7549 
 217   0.0000       1.955140        53.2021 
 218   0.0000       1.979213        53.8571 
 219   0.0000       2.006376        54.5963 
 220   0.0000       2.035250        55.3820 
 221   0.0000       2.045782        55.6685 
 222   0.0000       2.056116        55.9498 
 223   0.0000       2.079491        56.5858 
 224   0.0000       2.096022        57.0357 
 225   0.0000       2.125625        57.8412 
 226   0.0000       2.138626        58.1950 
 227   0.0000       2.154881        58.6373 
 228   0.0000       2.167988        58.9940 
 229   0.0000       2.188341        59.5478 
 230   0.0000       2.210179        60.1420 
 231   0.0000       2.238523        60.9133 
 232   0.0000       2.250866        61.2492 
 233   0.0000       2.284861        62.1742 
 234   0.0000       2.298495        62.5452 
 235   0.0000       2.335944        63.5643 
 236   0.0000       2.340328        63.6836 
 237   0.0000       2.382731        64.8374 
 238   0.0000       2.388908        65.0055 
 239   0.0000       2.393634        65.1341 
 240   0.0000       2.409155        65.5564 
 241   0.0000       2.421424        65.8903 
 242   0.0000       2.440909        66.4205 
 243   0.0000       2.461204        66.9728 
 244   0.0000       2.486926        67.6727 
 245   0.0000       2.496335        67.9287 
 246   0.0000       2.539235        69.0961 
 247   0.0000       2.555959        69.5512 
 248   0.0000       2.601684        70.7954 
 249   0.0000       2.609804        71.0164 
 250   0.0000       2.615119        71.1610 
 251   0.0000       2.646640        72.0187 
 252   0.0000       2.692624        73.2700 
 253   0.0000       2.694860        73.3309 
 254   0.0000       2.714677        73.8701 
 255   0.0000       2.748714        74.7963 
 256   0.0000       2.768917        75.3461 
 257   0.0000       2.777613        75.5827 
 258   0.0000       2.816812        76.6494 
 259   0.0000       2.842740        77.3549 
 260   0.0000       2.898286        78.8664 
 261   0.0000       2.994018        81.4714 
 262   0.0000       3.034381        82.5697 
 263   0.0000       3.071072        83.5681 
 264   0.0000       3.092440        84.1496 
 265   0.0000       3.116796        84.8123 
 266   0.0000       3.121570        84.9422 
 267   0.0000       3.127866        85.1136 
 268   0.0000       3.381421        92.0132 
 269   0.0000       3.384220        92.0893 
 270   0.0000       3.432252        93.3963 
 271   0.0000       3.447379        93.8080 
 272   0.0000       3.455626        94.0324 
 273   0.0000       3.460841        94.1743 
 274   0.0000       3.634577        98.9019 
 275   0.0000       4.924108       133.9918 
 276   0.0000       4.970765       135.2614 
 277   0.0000       4.981561       135.5552 
 278   0.0000       4.984798       135.6432 
 279   0.0000       5.006125       136.2236 
 280   0.0000       5.014992       136.4649 
 281   0.0000       5.052245       137.4786 
 282   0.0000       5.100337       138.7872 
 283   0.0000       5.113816       139.1540 
 284   0.0000       5.152227       140.1992 
 285   0.0000       5.208393       141.7276 
 286   0.0000       5.250872       142.8835 
 287   0.0000       5.272378       143.4687 
 288   0.0000       5.292296       144.0107 
 289   0.0000       5.339848       145.3047 
 290   0.0000       5.349806       145.5756 
 291   0.0000       5.521116       150.2372 
 292   0.0000       5.583419       151.9326 
 293   0.0000       5.655179       153.8853 
 294   0.0000       5.717197       155.5728 
 295   0.0000       5.804304       157.9431 
 296   0.0000       7.299122       198.6192 
 297   0.0000       7.330814       199.4816 
 298   0.0000       8.891452       241.9487 
 299   0.0000       9.081998       247.1337 
 300   0.0000       9.106050       247.7882 
 301   0.0000       9.132632       248.5116 
 302   0.0000      29.496947       802.6527 
 303   0.0000      29.615476       805.8781 
 304   0.0000      29.687997       807.8515 
 305   0.0000      29.886896       813.2638 
 306   0.0000      29.964630       815.3790 
 307   0.0000      30.047160       817.6248 
 308   0.0000      30.084760       818.6479 
 309   0.0000      30.209106       822.0316 
 310   0.0000      36.544539       994.4275 
 311   0.0000      36.599822       995.9318 
 312   0.0000      36.601313       995.9724 
 313   0.0000      36.606805       996.1218 
 314   0.0000      36.628507       996.7124 
 315   0.0000      36.664570       997.6937 
 316   0.0000      36.698953       998.6293 
 317   0.0000      36.718052       999.1490 
 318   0.0000      36.771849      1000.6129 
 319   0.0000      36.800138      1001.3827 
 320   0.0000      36.881973      1003.6095 
 321   0.0000      36.891189      1003.8603 
 322   0.0000      36.915240      1004.5147 
 323   0.0000      41.239503      1122.1839 
 324   0.0000      41.271148      1123.0450 
 325   0.0000      53.440942      1454.2020 
 326   0.0000      53.619626      1459.0642 
 327   0.0000      53.643600      1459.7166 
 328   0.0000      53.671723      1460.4818 

                 SPIN DOWN ORBITALS
  NO   OCC          E(Eh)            E(eV) 
   0   1.0000     -19.188954      -522.1580 
   1   1.0000     -19.131164      -520.5854 
   2   1.0000     -19.129722      -520.5462 
   3   1.0000     -19.109608      -519.9989 
   4   1.0000     -14.377337      -391.2272 
   5   1.0000     -14.359011      -390.7285 
   6   1.0000     -10.324401      -280.9412 
   7   1.0000     -10.308082      -280.4972 
   8   1.0000     -10.295109      -280.1442 
   9   1.0000     -10.251310      -278.9523 
  10   1.0000     -10.230534      -278.3870 
  11   1.0000     -10.220041      -278.1015 
  12   1.0000     -10.213176      -277.9147 
  13   1.0000     -10.192102      -277.3412 
  14   1.0000      -1.108891       -30.1744 
  15   1.0000      -1.062658       -28.9164 
  16   1.0000      -1.041539       -28.3417 
  17   1.0000      -1.012484       -27.5511 
  18   1.0000      -0.942147       -25.6371 
  19   1.0000      -0.931609       -25.3504 
  20   1.0000      -0.808970       -22.0132 
  21   1.0000      -0.754526       -20.5317 
  22   1.0000      -0.733938       -19.9715 
  23   1.0000      -0.701794       -19.0968 
  24   1.0000      -0.654375       -17.8065 
  25   1.0000      -0.608132       -16.5481 
  26   1.0000      -0.603599       -16.4248 
  27   1.0000      -0.578428       -15.7398 
  28   1.0000      -0.548237       -14.9183 
  29   1.0000      -0.508426       -13.8350 
  30   1.0000      -0.487187       -13.2570 
  31   1.0000      -0.483193       -13.1484 
  32   1.0000      -0.473022       -12.8716 
  33   1.0000      -0.469259       -12.7692 
  34   1.0000      -0.462099       -12.5744 
  35   1.0000      -0.455131       -12.3848 
  36   1.0000      -0.448140       -12.1945 
  37   1.0000      -0.432895       -11.7797 
  38   1.0000      -0.429067       -11.6755 
  39   1.0000      -0.411929       -11.2091 
  40   1.0000      -0.409179       -11.1343 
  41   1.0000      -0.406948       -11.0736 
  42   1.0000      -0.398671       -10.8484 
  43   1.0000      -0.394014       -10.7217 
  44   1.0000      -0.380721       -10.3600 
  45   1.0000      -0.377037       -10.2597 
  46   1.0000      -0.354862        -9.6563 
  47   1.0000      -0.316264        -8.6060 
  48   1.0000      -0.281352        -7.6560 
  49   1.0000      -0.278286        -7.5726 
  50   1.0000      -0.276431        -7.5221 
  51   1.0000      -0.261735        -7.1222 
  52   1.0000      -0.256260        -6.9732 
  53   0.0000      -0.114105        -3.1049 
  54   0.0000      -0.000038        -0.0010 
  55   0.0000       0.007923         0.2156 
  56   0.0000       0.020101         0.5470 
  57   0.0000       0.023041         0.6270 
  58   0.0000       0.029544         0.8039 
  59   0.0000       0.031128         0.8470 
  60   0.0000       0.053431         1.4539 
  61   0.0000       0.064267         1.7488 
  62   0.0000       0.070065         1.9066 
  63   0.0000       0.070615         1.9215 
  64   0.0000       0.085886         2.3371 
  65   0.0000       0.104700         2.8490 
  66   0.0000       0.108579         2.9546 
  67   0.0000       0.128496         3.4965 
  68   0.0000       0.145614         3.9624 
  69   0.0000       0.151656         4.1268 
  70   0.0000       0.162796         4.4299 
  71   0.0000       0.173318         4.7162 
  72   0.0000       0.178306         4.8519 
  73   0.0000       0.181657         4.9431 
  74   0.0000       0.187859         5.1119 
  75   0.0000       0.191709         5.2167 
  76   0.0000       0.196006         5.3336 
  77   0.0000       0.207432         5.6445 
  78   0.0000       0.215266         5.8577 
  79   0.0000       0.222354         6.0506 
  80   0.0000       0.230110         6.2616 
  81   0.0000       0.233374         6.3504 
  82   0.0000       0.243242         6.6190 
  83   0.0000       0.251193         6.8353 
  84   0.0000       0.258053         7.0220 
  85   0.0000       0.264638         7.2012 
  86   0.0000       0.272986         7.4283 
  87   0.0000       0.276847         7.5334 
  88   0.0000       0.287382         7.8201 
  89   0.0000       0.290320         7.9000 
  90   0.0000       0.301392         8.2013 
  91   0.0000       0.302196         8.2232 
  92   0.0000       0.311077         8.4648 
  93   0.0000       0.314720         8.5640 
  94   0.0000       0.324809         8.8385 
  95   0.0000       0.330655         8.9976 
  96   0.0000       0.339123         9.2280 
  97   0.0000       0.346332         9.4242 
  98   0.0000       0.359124         9.7723 
  99   0.0000       0.370715        10.0877 
 100   0.0000       0.375573        10.2198 
 101   0.0000       0.390929        10.6377 
 102   0.0000       0.400644        10.9021 
 103   0.0000       0.408715        11.1217 
 104   0.0000       0.414153        11.2697 
 105   0.0000       0.430340        11.7102 
 106   0.0000       0.439660        11.9638 
 107   0.0000       0.453405        12.3378 
 108   0.0000       0.458197        12.4682 
 109   0.0000       0.478423        13.0186 
 110   0.0000       0.481764        13.1095 
 111   0.0000       0.505010        13.7420 
 112   0.0000       0.516524        14.0553 
 113   0.0000       0.529828        14.4174 
 114   0.0000       0.546667        14.8756 
 115   0.0000       0.554907        15.0998 
 116   0.0000       0.567889        15.4530 
 117   0.0000       0.581957        15.8359 
 118   0.0000       0.593686        16.1550 
 119   0.0000       0.600179        16.3317 
 120   0.0000       0.623179        16.9576 
 121   0.0000       0.634521        17.2662 
 122   0.0000       0.658104        17.9079 
 123   0.0000       0.670855        18.2549 
 124   0.0000       0.688515        18.7354 
 125   0.0000       0.701667        19.0933 
 126   0.0000       0.709909        19.3176 
 127   0.0000       0.742819        20.2131 
 128   0.0000       0.770953        20.9787 
 129   0.0000       0.779687        21.2163 
 130   0.0000       0.786128        21.3916 
 131   0.0000       0.791433        21.5360 
 132   0.0000       0.815088        22.1797 
 133   0.0000       0.818951        22.2848 
 134   0.0000       0.823710        22.4143 
 135   0.0000       0.833504        22.6808 
 136   0.0000       0.841078        22.8869 
 137   0.0000       0.845472        23.0065 
 138   0.0000       0.852537        23.1987 
 139   0.0000       0.857463        23.3327 
 140   0.0000       0.866461        23.5776 
 141   0.0000       0.879430        23.9305 
 142   0.0000       0.895665        24.3723 
 143   0.0000       0.899508        24.4769 
 144   0.0000       0.911255        24.7965 
 145   0.0000       0.914085        24.8735 
 146   0.0000       0.922968        25.1152 
 147   0.0000       0.932243        25.3676 
 148   0.0000       0.936148        25.4739 
 149   0.0000       0.951823        25.9004 
 150   0.0000       0.964927        26.2570 
 151   0.0000       0.977746        26.6058 
 152   0.0000       0.980432        26.6789 
 153   0.0000       0.987202        26.8631 
 154   0.0000       0.993227        27.0271 
 155   0.0000       1.009265        27.4635 
 156   0.0000       1.021167        27.7874 
 157   0.0000       1.043800        28.4032 
 158   0.0000       1.046344        28.4725 
 159   0.0000       1.057890        28.7866 
 160   0.0000       1.081081        29.4177 
 161   0.0000       1.117270        30.4025 
 162   0.0000       1.135532        30.8994 
 163   0.0000       1.144452        31.1421 
 164   0.0000       1.153371        31.3848 
 165   0.0000       1.159069        31.5399 
 166   0.0000       1.165305        31.7096 
 167   0.0000       1.186940        32.2983 
 168   0.0000       1.199258        32.6335 
 169   0.0000       1.212711        32.9995 
 170   0.0000       1.267862        34.5003 
 171   0.0000       1.300555        35.3899 
 172   0.0000       1.302034        35.4302 
 173   0.0000       1.330379        36.2015 
 174   0.0000       1.344829        36.5947 
 175   0.0000       1.373190        37.3664 
 176   0.0000       1.382394        37.6169 
 177   0.0000       1.393050        37.9068 
 178   0.0000       1.393642        37.9229 
 179   0.0000       1.400106        38.0988 
 180   0.0000       1.405811        38.2541 
 181   0.0000       1.429465        38.8977 
 182   0.0000       1.448061        39.4038 
 183   0.0000       1.468606        39.9628 
 184   0.0000       1.480940        40.2984 
 185   0.0000       1.487528        40.4777 
 186   0.0000       1.496140        40.7120 
 187   0.0000       1.498785        40.7840 
 188   0.0000       1.528643        41.5965 
 189   0.0000       1.549760        42.1711 
 190   0.0000       1.555267        42.3210 
 191   0.0000       1.563695        42.5503 
 192   0.0000       1.588393        43.2224 
 193   0.0000       1.593623        43.3647 
 194   0.0000       1.606188        43.7066 
 195   0.0000       1.614964        43.9454 
 196   0.0000       1.616212        43.9794 
 197   0.0000       1.636523        44.5320 
 198   0.0000       1.658208        45.1221 
 199   0.0000       1.679958        45.7140 
 200   0.0000       1.691425        46.0260 
 201   0.0000       1.698316        46.2135 
 202   0.0000       1.715195        46.6728 
 203   0.0000       1.723980        46.9119 
 204   0.0000       1.728048        47.0226 
 205   0.0000       1.735895        47.2361 
 206   0.0000       1.765686        48.0467 
 207   0.0000       1.776065        48.3292 
 208   0.0000       1.810048        49.2539 
 209   0.0000       1.819116        49.5007 
 210   0.0000       1.838484        50.0277 
 211   0.0000       1.851121        50.3716 
 212   0.0000       1.865008        50.7494 
 213   0.0000       1.873779        50.9881 
 214   0.0000       1.882656        51.2297 
 215   0.0000       1.903386        51.7938 
 216   0.0000       1.943605        52.8882 
 217   0.0000       1.958339        53.2891 
 218   0.0000       1.980428        53.8902 
 219   0.0000       2.009527        54.6820 
 220   0.0000       2.041483        55.5516 
 221   0.0000       2.047606        55.7182 
 222   0.0000       2.057934        55.9992 
 223   0.0000       2.081159        56.6312 
 224   0.0000       2.097708        57.0815 
 225   0.0000       2.129442        57.9451 
 226   0.0000       2.140528        58.2467 
 227   0.0000       2.155695        58.6594 
 228   0.0000       2.169300        59.0296 
 229   0.0000       2.188905        59.5631 
 230   0.0000       2.212116        60.1947 
 231   0.0000       2.242143        61.0118 
 232   0.0000       2.251322        61.2616 
 233   0.0000       2.285801        62.1998 
 234   0.0000       2.301750        62.6338 
 235   0.0000       2.338218        63.6262 
 236   0.0000       2.341046        63.7031 
 237   0.0000       2.383327        64.8536 
 238   0.0000       2.389566        65.0234 
 239   0.0000       2.393749        65.1372 
 240   0.0000       2.410035        65.5804 
 241   0.0000       2.421745        65.8990 
 242   0.0000       2.442440        66.4622 
 243   0.0000       2.464178        67.0537 
 244   0.0000       2.487184        67.6797 
 245   0.0000       2.497688        67.9655 
 246   0.0000       2.540575        69.1326 
 247   0.0000       2.557217        69.5854 
 248   0.0000       2.604450        70.8707 
 249   0.0000       2.616013        71.1853 
 250   0.0000       2.621618        71.3378 
 251   0.0000       2.648039        72.0568 
 252   0.0000       2.693756        73.3008 
 253   0.0000       2.705945        73.6325 
 254   0.0000       2.716625        73.9231 
 255   0.0000       2.749241        74.8107 
 256   0.0000       2.769549        75.3633 
 257   0.0000       2.777799        75.5878 
 258   0.0000       2.816954        76.6532 
 259   0.0000       2.846515        77.4576 
 260   0.0000       2.903324        79.0035 
 261   0.0000       2.994241        81.4775 
 262   0.0000       3.034577        82.5750 
 263   0.0000       3.072351        83.6029 
 264   0.0000       3.092619        84.1544 
 265   0.0000       3.117852        84.8411 
 266   0.0000       3.126289        85.0706 
 267   0.0000       3.135253        85.3146 
 268   0.0000       3.381539        92.0163 
 269   0.0000       3.389554        92.2344 
 270   0.0000       3.432435        93.4013 
 271   0.0000       3.447509        93.8115 
 272   0.0000       3.455948        94.0411 
 273   0.0000       3.462679        94.2243 
 274   0.0000       3.635595        98.9296 
 275   0.0000       4.928176       134.1025 
 276   0.0000       4.972767       135.3159 
 277   0.0000       4.981566       135.5553 
 278   0.0000       4.984972       135.6480 
 279   0.0000       5.006914       136.2451 
 280   0.0000       5.017437       136.5314 
 281   0.0000       5.054445       137.5384 
 282   0.0000       5.106118       138.9445 
 283   0.0000       5.113837       139.1546 
 284   0.0000       5.152402       140.2040 
 285   0.0000       5.208617       141.7337 
 286   0.0000       5.250849       142.8829 
 287   0.0000       5.273625       143.5026 
 288   0.0000       5.294738       144.0772 
 289   0.0000       5.343294       145.3984 
 290   0.0000       5.350259       145.5880 
 291   0.0000       5.522144       150.2652 
 292   0.0000       5.586991       152.0298 
 293   0.0000       5.660216       154.0223 
 294   0.0000       5.718143       155.5986 
 295   0.0000       5.811120       158.1286 
 296   0.0000       7.299176       198.6207 
 297   0.0000       7.330934       199.4848 
 298   0.0000       8.894765       242.0389 
 299   0.0000       9.082341       247.1431 
 300   0.0000       9.106191       247.7921 
 301   0.0000       9.141087       248.7416 
 302   0.0000      29.501504       802.7767 
 303   0.0000      29.615550       805.8801 
 304   0.0000      29.687986       807.8512 
 305   0.0000      29.886945       813.2651 
 306   0.0000      29.969462       815.5105 
 307   0.0000      30.049845       817.6978 
 308   0.0000      30.086508       818.6955 
 309   0.0000      30.211432       822.0948 
 310   0.0000      36.545683       994.4586 
 311   0.0000      36.599914       995.9343 
 312   0.0000      36.601392       995.9745 
 313   0.0000      36.606829       996.1225 
 314   0.0000      36.628435       996.7104 
 315   0.0000      36.670715       997.8609 
 316   0.0000      36.705010       998.7941 
 317   0.0000      36.718164       999.1520 
 318   0.0000      36.765462      1000.4391 
 319   0.0000      36.801996      1001.4332 
 320   0.0000      36.886199      1003.7245 
 321   0.0000      36.895432      1003.9757 
 322   0.0000      36.915381      1004.5186 
 323   0.0000      41.239537      1122.1849 
 324   0.0000      41.271196      1123.0463 
 325   0.0000      53.442649      1454.2484 
 326   0.0000      53.619814      1459.0693 
 327   0.0000      53.643701      1459.7193 
 328   0.0000      53.676213      1460.6040 

                    ********************************
                    * MULLIKEN POPULATION ANALYSIS *
                    ********************************

--------------------------------------------
MULLIKEN ATOMIC CHARGES AND SPIN POPULATIONS
--------------------------------------------
   0 N :   -0.108007    0.001848
   1 C :   -0.140834    0.016213
   2 C :    0.105552    0.000559
   3 O :   -0.318682    0.002769
   4 C :   -0.272753   -0.049293
   5 C :   -0.039060    0.864342
   6 C :    0.052361   -0.049420
   7 O :   -0.274481    0.013292
   8 O :   -0.267043    0.178418
   9 H :    0.255014   -0.000080
  10 H :    0.164120    0.001551
  11 C :    0.177427   -0.001222
  12 N :   -0.092889   -0.000838
  13 H :    0.289489   -0.001814
  14 H :    0.234754    0.000144
  15 O :   -0.316523    0.004828
[...]
LOEWDIN REDUCED ORBITAL CHARGES AND SPIN POPULATIONS
----------------------------------------------------
CHARGE
  0 N s       :     3.057875  s :     3.057875
      pz      :     1.157803  p :     3.799318
      px      :     1.132172
      py      :     1.509343
      dz2     :     0.020151  d :     0.080612
      dxz     :     0.027536
      dyz     :     0.006437
      dx2y2   :     0.014608
      dxy     :     0.011880
  1 C s       :     2.846267  s :     2.846267
      pz      :     1.012006  p :     2.940171
      px      :     0.903870
      py      :     1.024296
      dz2     :     0.058000  d :     0.255941
      dxz     :     0.042345
      dyz     :     0.035382
      dx2y2   :     0.060678
      dxy     :     0.059536
  2 C s       :     2.839946  s :     2.839946
      pz      :     1.011319  p :     2.766418
      px      :     0.955504
      py      :     0.799595
      dz2     :     0.154488  d :     0.484903
      dxz     :     0.106710
      dyz     :     0.049286
      dx2y2   :     0.082237
      dxy     :     0.092182
  3 O s       :     3.581472  s :     3.581472
      pz      :     1.552390  p :     4.567853
      px      :     1.587452
      py      :     1.428010
      dz2     :     0.007515  d :     0.032183
      dxz     :     0.013105
      dyz     :     0.004630
      dx2y2   :     0.003765
      dxy     :     0.003168
  4 C s       :     2.858366  s :     2.858366
      pz      :     1.013292  p :     3.021467
      px      :     1.017290
      py      :     0.990885
      dz2     :     0.034927  d :     0.170806
      dxz     :     0.015500
      dyz     :     0.043060
      dx2y2   :     0.049295
      dxy     :     0.028023
  5 C s       :     2.914693  s :     2.914693
      pz      :     0.901574  p :     2.893355
      px      :     0.994745
      py      :     0.997037
      dz2     :     0.014460  d :     0.147608
      dxz     :     0.012963
      dyz     :     0.027901
      dx2y2   :     0.044829
      dxy     :     0.047455
  6 C s       :     2.836461  s :     2.836461
      pz      :     0.835627  p :     2.757458
      px      :     0.897612
      py      :     1.024219
      dz2     :     0.059515  d :     0.526325
      dxz     :     0.079902
      dyz     :     0.084063
      dx2y2   :     0.150565
      dxy     :     0.152280
  7 O s       :     3.466829  s :     3.466829
      pz      :     1.672654  p :     4.516984
      px      :     1.365937
      py      :     1.478393
      dz2     :     0.003327  d :     0.024121
      dxz     :     0.006105
      dyz     :     0.001136
      dx2y2   :     0.007477
      dxy     :     0.006076
  8 O s       :     3.588669  s :     3.588669
      pz      :     1.414987  p :     4.523060
      px      :     1.643749
      py      :     1.464325
      dz2     :     0.004118  d :     0.032452
      dxz     :     0.001403
      dyz     :     0.008924
      dx2y2   :     0.010117
      dxy     :     0.007890
  9 H s       :     0.752883  s :     0.752883
      pz      :     0.080019  p :     0.154983
      px      :     0.028644
      py      :     0.046320
 10 H s       :     0.848818  s :     0.848818
      pz      :     0.024935  p :     0.082671
      px      :     0.015932
      py      :     0.041804
 11 C s       :     2.842966  s :     2.842966
      pz      :     0.953546  p :     2.770156
      px      :     1.014924
      py      :     0.801685
      dz2     :     0.139752  d :     0.487850
      dxz     :     0.150231
      dyz     :     0.099873
      dx2y2   :     0.055079
      dxy     :     0.042914
 12 N s       :     3.062081  s :     3.062081
      pz      :     1.132040  p :     3.813374
      px      :     1.156192
      py      :     1.525142
      dz2     :     0.019657  d :     0.080451
      dxz     :     0.029854
      dyz     :     0.007478
      dx2y2   :     0.013687
      dxy     :     0.009775
 13 H s       :     0.706254  s :     0.706254
      pz      :     0.048027  p :     0.194536
      px      :     0.048404
      py      :     0.098104
 14 H s       :     0.772925  s :     0.772925
      pz      :     0.057571  p :     0.146584
      px      :     0.039800
      py      :     0.049213
 15 O s       :     3.585072  s :     3.585072
      pz      :     1.466947  p :     4.577412
      px      :     1.676644
      py      :     1.433822
      dz2     :     0.011766  d :     0.031952
      dxz     :     0.010157
      dyz     :     0.006757
      dx2y2   :     0.001590
      dxy     :     0.001682
 16 C s       :     2.870533  s :     2.870533
      pz      :     1.029762  p :     3.063590
      px      :     0.991106
      py      :     1.042722
      dz2     :     0.022956  d :     0.105540
      dxz     :     0.019598
      dyz     :     0.012819
      dx2y2   :     0.033024
      dxy     :     0.017143
 17 H s       :     0.862469  s :     0.862469
      pz      :     0.017171  p :     0.081674
      px      :     0.019634
      py      :     0.044869
 18 H s       :     0.883401  s :     0.883401
      pz      :     0.041524  p :     0.081511
      px      :     0.019389
      py      :     0.020598
 19 H s       :     0.862856  s :     0.862856
      pz      :     0.032859  p :     0.081681
      px      :     0.022440
      py      :     0.026382
 20 C s       :     2.856813  s :     2.856813
      pz      :     0.901992  p :     2.968743
      px      :     1.007577
      py      :     1.059173
      dz2     :     0.042091  d :     0.159046
      dxz     :     0.034264
      dyz     :     0.049287
      dx2y2   :     0.022531
      dxy     :     0.010873
 21 H s       :     0.877545  s :     0.877545
      pz      :     0.026727  p :     0.080120
      px      :     0.023289
      py      :     0.030104
 22 H s       :     0.887655  s :     0.887655
      pz      :     0.013288  p :     0.078738
      px      :     0.045510
      py      :     0.019940
 23 H s       :     0.879660  s :     0.879660
      pz      :     0.018436  p :     0.079738
      px      :     0.015659
      py      :     0.045643
 24 H s       :     0.860401  s :     0.860401
      pz      :     0.017930  p :     0.082611
      px      :     0.048777
      py      :     0.015903
 25 H s       :     0.832568  s :     0.832568
      pz      :     0.045840  p :     0.084670
      px      :     0.022044
      py      :     0.016787
 26 H s       :     0.846306  s :     0.846306
      pz      :     0.026821  p :     0.089544
      px      :     0.046986
      py      :     0.015737

SPIN
  0 N s       :    -0.000143  s :    -0.000143
      pz      :     0.000315  p :     0.002277
      px      :    -0.000018
      py      :     0.001980
      dz2     :    -0.000006  d :     0.000134
      dxz     :     0.000016
      dyz     :    -0.000005
      dx2y2   :     0.000002
      dxy     :     0.000127
  1 C s       :     0.003705  s :     0.003705
      pz      :     0.001610  p :     0.012551
      px      :     0.002329
      py      :     0.008612
      dz2     :    -0.000028  d :     0.000264
      dxz     :     0.000042
      dyz     :    -0.000104
      dx2y2   :     0.000062
      dxy     :     0.000291
  2 C s       :     0.001167  s :     0.001167
      pz      :    -0.000213  p :     0.001391
      px      :     0.000032
      py      :     0.001572
      dz2     :     0.000012  d :     0.000526
      dxz     :     0.000051
      dyz     :    -0.000036
      dx2y2   :     0.000360
      dxy     :     0.000139
  3 O s       :     0.000552  s :     0.000552
      pz      :     0.001099  p :     0.001772
      px      :     0.000086
      py      :     0.000587
      dz2     :    -0.000002  d :     0.000011
      dxz     :     0.000000
      dyz     :     0.000003
      dx2y2   :     0.000009
      dxy     :     0.000001
  4 C s       :    -0.003237  s :    -0.003237
      pz      :    -0.001424  p :    -0.014511
      px      :    -0.002341
      py      :    -0.010747
      dz2     :     0.011254  d :     0.028757
      dxz     :     0.001121
      dyz     :     0.012566
      dx2y2   :     0.001215
      dxy     :     0.002601
  5 C s       :     0.020787  s :     0.020787
      pz      :     0.507731  p :     0.679596
      px      :     0.126887
      py      :     0.044977
      dz2     :    -0.000897  d :    -0.002958
      dxz     :    -0.000821
      dyz     :     0.000184
      dx2y2   :    -0.000883
      dxy     :    -0.000541
  6 C s       :    -0.005636  s :    -0.005636
      pz      :    -0.010421  p :    -0.024661
      px      :    -0.005768
      py      :    -0.008472
      dz2     :     0.000315  d :     0.041190
      dxz     :     0.004840
      dyz     :     0.025674
      dx2y2   :     0.005381
      dxy     :     0.004982
  7 O s       :    -0.000770  s :    -0.000770
      pz      :     0.011468  p :     0.013786
      px      :     0.001905
      py      :     0.000412
      dz2     :    -0.000071  d :    -0.000217
      dxz     :    -0.000049
      dyz     :     0.000007
      dx2y2   :    -0.000022
      dxy     :    -0.000083
  8 O s       :     0.001851  s :     0.001851
      pz      :     0.143021  p :     0.183921
      px      :     0.033391
      py      :     0.007509
      dz2     :    -0.000105  d :    -0.000580
      dxz     :    -0.000002
      dyz     :    -0.000262
      dx2y2   :    -0.000064
      dxy     :    -0.000147
  9 H s       :    -0.000017  s :    -0.000017
      pz      :     0.000019  p :     0.000146
      px      :     0.000006
      py      :     0.000121
 10 H s       :     0.000519  s :     0.000519
      pz      :     0.000034  p :     0.000393
      px      :     0.000078
      py      :     0.000282
 11 C s       :    -0.000068  s :    -0.000068
      pz      :     0.000034  p :    -0.000647
      px      :    -0.000064
      py      :    -0.000617
      dz2     :    -0.000024  d :     0.000536
      dxz     :     0.000067
      dyz     :     0.000342
      dx2y2   :     0.000130
      dxy     :     0.000021
 12 N s       :     0.000152  s :     0.000152
      pz      :     0.000073  p :    -0.000090
      px      :     0.000229
      py      :    -0.000392
      dz2     :     0.000002  d :     0.000005
      dxz     :    -0.000010
      dyz     :     0.000000
      dx2y2   :    -0.000004
      dxy     :     0.000017
 13 H s       :    -0.001101  s :    -0.001101
      pz      :     0.000754  p :     0.000858
      px      :     0.000082
      py      :     0.000022
 14 H s       :     0.000161  s :     0.000161
      pz      :     0.000057  p :     0.000055
      px      :     0.000008
      py      :    -0.000011
 15 O s       :     0.000500  s :     0.000500
      pz      :     0.000046  p :     0.003864
      px      :     0.001530
      py      :     0.002289
      dz2     :    -0.000001  d :    -0.000008
      dxz     :    -0.000003
      dyz     :    -0.000003
      dx2y2   :    -0.000000
      dxy     :    -0.000000
 16 C s       :    -0.000006  s :    -0.000006
      pz      :     0.000013  p :     0.000154
      px      :     0.000140
      py      :     0.000000
      dz2     :    -0.000002  d :    -0.000014
      dxz     :     0.000002
      dyz     :     0.000005
      dx2y2   :    -0.000004
      dxy     :    -0.000015
 17 H s       :    -0.000021  s :    -0.000021
      pz      :    -0.000000  p :     0.000006
      px      :     0.000005
      py      :     0.000001
 18 H s       :     0.000018  s :     0.000018
      pz      :    -0.000000  p :     0.000001
      px      :     0.000002
      py      :    -0.000001
 19 H s       :    -0.000005  s :    -0.000005
      pz      :     0.000001  p :     0.000002
      px      :     0.000001
      py      :     0.000000
 20 C s       :     0.000120  s :     0.000120
      pz      :     0.000000  p :     0.000019
      px      :    -0.000005
      py      :     0.000023
      dz2     :     0.000000  d :     0.000001
      dxz     :     0.000015
      dyz     :    -0.000015
      dx2y2   :     0.000003
      dxy     :    -0.000001
 21 H s       :     0.000002  s :     0.000002
      pz      :     0.000001  p :     0.000004
      px      :     0.000000
      py      :     0.000003
 22 H s       :     0.000006  s :     0.000006
      pz      :    -0.000000  p :    -0.000000
      px      :    -0.000000
      py      :     0.000000
 23 H s       :    -0.000015  s :    -0.000015
      pz      :    -0.000001  p :     0.000007
      px      :    -0.000001
      py      :     0.000008
 24 H s       :     0.008433  s :     0.008433
      pz      :     0.000031  p :    -0.000389
      px      :    -0.000232
      py      :    -0.000188
 25 H s       :     0.042276  s :     0.042276
      pz      :    -0.000882  p :    -0.001281
      px      :    -0.000062
      py      :    -0.000337
 26 H s       :    -0.017288  s :    -0.017288
      pz      :     0.014882  p :     0.021192
      px      :     0.005210
      py      :     0.001100


                      *****************************
                      * MAYER POPULATION ANALYSIS *
                      *****************************

  NA   - Mulliken gross atomic population
  ZA   - Total nuclear charge
  QA   - Mulliken gross atomic charge
  VA   - Mayer's total valence
  BVA  - Mayer's bonded valence
  FA   - Mayer's free valence

  ATOM       NA         ZA         QA         VA         BVA        FA
  0 N      7.1185     7.0000    -0.1185     3.2650     3.2650     0.0000
  1 C      6.1357     6.0000    -0.1357     4.1056     4.1053     0.0004
  2 C      5.8859     6.0000     0.1141     4.0065     4.0064     0.0000
  3 O      8.3265     8.0000    -0.3265     2.1195     2.1195     0.0000
  4 C      6.2740     6.0000    -0.2740     3.9113     3.9093     0.0020
  5 C      6.0267     6.0000    -0.0267     3.9386     3.3729     0.5657
  6 C      5.9421     6.0000     0.0579     4.1013     4.0983     0.0030
  7 O      8.2884     8.0000    -0.2884     2.0612     2.0610     0.0002
  8 O      8.2721     8.0000    -0.2721     2.0933     2.0573     0.0360
  9 H      0.7433     1.0000     0.2567     0.9678     0.9678     0.0000
 10 H      0.8353     1.0000     0.1647     0.9498     0.9498     0.0000
 11 C      5.8225     6.0000     0.1775     3.9743     3.9743     0.0000
 12 N      7.1069     7.0000    -0.1069     3.2213     3.2213    -0.0000
 13 H      0.7109     1.0000     0.2891     0.9582     0.9582     0.0000
 14 H      0.7640     1.0000     0.2360     0.9611     0.9611     0.0000
 15 O      8.3231     8.0000    -0.3231     2.1168     2.1168     0.0000
 16 C      6.5507     6.0000    -0.5507     3.8551     3.8551     0.0000
 17 H      0.8125     1.0000     0.1875     0.9582     0.9582     0.0000
 18 H      0.8493     1.0000     0.1507     0.9709     0.9709     0.0000
 19 H      0.8122     1.0000     0.1878     0.9588     0.9588     0.0000
 20 C      6.4365     6.0000    -0.4365     3.9383     3.9383     0.0000
 21 H      0.8142     1.0000     0.1858     0.9506     0.9506     0.0000
 22 H      0.8555     1.0000     0.1445     0.9672     0.9672     0.0000
 23 H      0.8165     1.0000     0.1835     0.9504     0.9504     0.0000
 24 H      0.8466     1.0000     0.1534     0.9690     0.9689     0.0001
 25 H      0.7969     1.0000     0.2031     0.9570     0.9546     0.0024
 26 H      0.8331     1.0000     0.1669     0.9655     0.9636     0.0019

  Mayer bond orders larger than 0.100000
B(  0-N ,  1-C ) :   1.0291 B(  0-N ,  9-H ) :   0.8876 B(  0-N , 11-C ) :   1.2023 
B(  1-C ,  2-C ) :   0.9012 B(  1-C ,  4-C ) :   0.9400 B(  1-C , 10-H ) :   0.9666 
B(  1-C , 15-O ) :   0.1367 B(  2-C ,  3-O ) :   1.8423 B(  2-C , 12-N ) :   1.2170 
B(  4-C ,  5-C ) :   1.0113 B(  4-C , 24-H ) :   0.9554 B(  4-C , 25-H ) :   0.9258 
B(  5-C ,  6-C ) :   1.1148 B(  5-C ,  8-O ) :   0.1169 B(  5-C , 26-H ) :   0.9840 
B(  6-C ,  7-O ) :   1.0860 B(  6-C ,  8-O ) :   1.8551 B(  7-O , 13-H ) :   0.8965 
B( 11-C , 15-O ) :   1.8559 B( 11-C , 16-C ) :   0.8971 B( 12-N , 14-H ) :   0.9329 
B( 12-N , 20-C ) :   0.9619 B( 16-C , 17-H ) :   0.9554 B( 16-C , 18-H ) :   0.9749 
B( 16-C , 19-H ) :   0.9591 B( 20-C , 21-H ) :   0.9514 B( 20-C , 22-H ) :   0.9671 
B( 20-C , 23-H ) :   0.9500 

-------
TIMINGS
-------

Total SCF time: 0 days 0 hours 0 min 15 sec 

Total time                  ....      15.045 sec
Sum of individual times     ....      14.348 sec  ( 95.4%)

Fock matrix formation       ....      12.485 sec  ( 83.0%)
  Split-RI-J                ....       1.070 sec  (  8.6% of F)
  Chain of spheres X        ....       8.526 sec  ( 68.3% of F)
  XC integration            ....       2.586 sec  ( 20.7% of F)
    Basis function eval.    ....       0.273 sec  ( 10.6% of XC)
    Density eval.           ....       0.376 sec  ( 14.5% of XC)
    XC-Functional eval.     ....       0.062 sec  (  2.4% of XC)
    XC-Potential eval.      ....       0.228 sec  (  8.8% of XC)
Diagonalization             ....       0.413 sec  (  2.7%)
Density matrix formation    ....       0.021 sec  (  0.1%)
Population analysis         ....       0.045 sec  (  0.3%)
Initial guess               ....       0.048 sec  (  0.3%)
Orbital Transformation      ....       0.000 sec  (  0.0%)
Orbital Orthonormalization  ....       0.031 sec  (  0.2%)
DIIS solution               ....       0.205 sec  (  1.4%)
Grid generation             ....       1.131 sec  (  7.5%)

Maximum memory used throughout the entire SCF-calculation: 77.6 MB

-------------------------   --------------------
FINAL SINGLE POINT ENERGY      -722.850329155021
-------------------------   --------------------

                                *** OPTIMIZATION RUN DONE ***

                            ***************************************
                            *     ORCA property calculations      *
                            ***************************************

                                    ---------------------
                                    Active property flags
                                    ---------------------
   (+) Dipole Moment


------------------------------------------------------------------------------
                       ORCA ELECTRIC PROPERTIES CALCULATION
------------------------------------------------------------------------------

Dipole Moment Calculation                       ... on
Quadrupole Moment Calculation                   ... off
Polarizability Calculation                      ... off
GBWName                                         ... opt.gbw
Electron density                                ... opt.scfp
The origin for moment calculation is the CENTER OF MASS  = (-5.593715, -6.952444 -1.223978)

-------------
DIPOLE MOMENT
-------------
                                X             Y             Z
Electronic contribution:      1.44597       5.82240      -2.63132
Nuclear contribution   :     -0.28722      -6.64767       3.11473
                        -----------------------------------------
Total Dipole Moment    :      1.15876      -0.82527       0.48341
                        -----------------------------------------
Magnitude (a.u.)       :      1.50249
Magnitude (Debye)      :      3.81903



--------------------
Rotational spectrum 
--------------------
 
Rotational constants in cm-1:     0.022294     0.015454     0.010824 
Rotational constants in MHz :   668.354167   463.298454   324.492514 

 Dipole components along the rotational axes: 
x,y,z [a.u.] :     0.379019    -1.242818    -0.754468 
x,y,z [Debye]:     0.963390    -3.158993    -1.917706 

 

Timings for individual modules:

Sum of individual times         ...      687.927 sec (=  11.465 min)
GTO integral calculation        ...      198.198 sec (=   3.303 min)  28.8 %
SCF iterations                  ...      318.212 sec (=   5.304 min)  46.3 %
SCF Gradient evaluation         ...      171.264 sec (=   2.854 min)  24.9 %
Geometry relaxation             ...        0.253 sec (=   0.004 min)   0.0 %
                             ****ORCA TERMINATED NORMALLY****
TOTAL RUN TIME: 0 days 0 hours 14 minutes 26 seconds 532 msec
