
                                 *****************
                                 * O   R   C   A *
                                 *****************

                                            #,                                       
                                            ###                                      
                                            ####                                     
                                            #####                                    
                                            ######                                   
                                           ########,                                 
                                     ,,################,,,,,                         
                               ,,#################################,,                 
                          ,,##########################################,,             
                       ,#########################################, ''#####,          
                    ,#############################################,,   '####,        
                  ,##################################################,,,,####,       
                ,###########''''           ''''###############################       
              ,#####''   ,,,,##########,,,,          '''####'''          '####       
            ,##' ,,,,###########################,,,                        '##       
           ' ,,###''''                  '''############,,,                           
         ,,##''                                '''############,,,,        ,,,,,,###''
      ,#''                                            '''#######################'''  
     '                                                          ''''####''''         
             ,#######,   #######,   ,#######,      ##                                
            ,#'     '#,  ##    ##  ,#'     '#,    #''#        ######   ,####,        
            ##       ##  ##   ,#'  ##            #'  '#       #        #'  '#        
            ##       ##  #######   ##           ,######,      #####,   #    #        
            '#,     ,#'  ##    ##  '#,     ,#' ,#      #,         ##   #,  ,#        
             '#######'   ##     ##  '#######'  #'      '#     #####' # '####'        



                  #######################################################
                  #                        -***-                        #
                  #          Department of theory and spectroscopy      #
                  #    Directorship and core code : Frank Neese         #
                  #        Max Planck Institute fuer Kohlenforschung    #
                  #                Kaiser Wilhelm Platz 1               #
                  #                 D-45470 Muelheim/Ruhr               #
                  #                      Germany                        #
                  #                                                     #
                  #                  All rights reserved                #
                  #                        -***-                        #
                  #######################################################


                         Program Version 5.0.4 -  RELEASE  -


 With contributions from (in alphabetic order):
   Daniel Aravena         : Magnetic Suceptibility
   Michael Atanasov       : Ab Initio Ligand Field Theory (pilot matlab implementation)
   Alexander A. Auer      : GIAO ZORA, VPT2 properties, NMR spectrum
   Ute Becker             : Parallelization
   Giovanni Bistoni       : ED, misc. LED, open-shell LED, HFLD
   Martin Brehm           : Molecular dynamics
   Dmytro Bykov           : SCF Hessian
   Vijay G. Chilkuri      : MRCI spin determinant printing, contributions to CSF-ICE
   Dipayan Datta          : RHF DLPNO-CCSD density
   Achintya Kumar Dutta   : EOM-CC, STEOM-CC
   Dmitry Ganyushin       : Spin-Orbit,Spin-Spin,Magnetic field MRCI
   Miquel Garcia          : C-PCM and meta-GGA Hessian, CC/C-PCM, Gaussian charge scheme
   Yang Guo               : DLPNO-NEVPT2, F12-NEVPT2, CIM, IAO-localization
   Andreas Hansen         : Spin unrestricted coupled pair/coupled cluster methods
   Benjamin Helmich-Paris : MC-RPA, TRAH-SCF, COSX integrals
   Lee Huntington         : MR-EOM, pCC
   Robert Izsak           : Overlap fitted RIJCOSX, COSX-SCS-MP3, EOM
   Marcus Kettner         : VPT2
   Christian Kollmar      : KDIIS, OOCD, Brueckner-CCSD(T), CCSD density, CASPT2, CASPT2-K
   Simone Kossmann        : Meta GGA functionals, TD-DFT gradient, OOMP2, MP2 Hessian
   Martin Krupicka        : Initial AUTO-CI
   Lucas Lang             : DCDCAS
   Marvin Lechner         : AUTO-CI (C++ implementation), FIC-MRCC
   Dagmar Lenk            : GEPOL surface, SMD
   Dimitrios Liakos       : Extrapolation schemes; Compound Job, initial MDCI parallelization
   Dimitrios Manganas     : Further ROCIS development; embedding schemes
   Dimitrios Pantazis     : SARC Basis sets
   Anastasios Papadopoulos: AUTO-CI, single reference methods and gradients
   Taras Petrenko         : DFT Hessian,TD-DFT gradient, ASA, ECA, R-Raman, ABS, FL, XAS/XES, NRVS
   Peter Pinski           : DLPNO-MP2, DLPNO-MP2 Gradient
   Christoph Reimann      : Effective Core Potentials
   Marius Retegan         : Local ZFS, SOC
   Christoph Riplinger    : Optimizer, TS searches, QM/MM, DLPNO-CCSD(T), (RO)-DLPNO pert. Triples
   Tobias Risthaus        : Range-separated hybrids, TD-DFT gradient, RPA, STAB
   Michael Roemelt        : Original ROCIS implementation
   Masaaki Saitow         : Open-shell DLPNO-CCSD energy and density
   Barbara Sandhoefer     : DKH picture change effects
   Avijit Sen             : IP-ROCIS
   Kantharuban Sivalingam : CASSCF convergence, NEVPT2, FIC-MRCI
   Bernardo de Souza      : ESD, SOC TD-DFT
   Georgi Stoychev        : AutoAux, RI-MP2 NMR, DLPNO-MP2 response
   Willem Van den Heuvel  : Paramagnetic NMR
   Boris Wezisla          : Elementary symmetry handling
   Frank Wennmohs         : Technical directorship


 We gratefully acknowledge several colleagues who have allowed us to
 interface, adapt or use parts of their codes:
   Stefan Grimme, W. Hujo, H. Kruse, P. Pracht,  : VdW corrections, initial TS optimization,
                  C. Bannwarth, S. Ehlert          DFT functionals, gCP, sTDA/sTD-DF
   Ed Valeev, F. Pavosevic, A. Kumar             : LibInt (2-el integral package), F12 methods
   Garnet Chan, S. Sharma, J. Yang, R. Olivares  : DMRG
   Ulf Ekstrom                                   : XCFun DFT Library
   Mihaly Kallay                                 : mrcc  (arbitrary order and MRCC methods)
   Jiri Pittner, Ondrej Demel                    : Mk-CCSD
   Frank Weinhold                                : gennbo (NPA and NBO analysis)
   Christopher J. Cramer and Donald G. Truhlar   : smd solvation model
   Lars Goerigk                                  : TD-DFT with DH, B97 family of functionals
   V. Asgeirsson, H. Jonsson                     : NEB implementation
   FAccTs GmbH                                   : IRC, NEB, NEB-TS, DLPNO-Multilevel, CI-OPT
                                                   MM, QMMM, 2- and 3-layer-ONIOM, Crystal-QMMM,
                                                   LR-CPCM, SF, NACMEs, symmetry and pop. for TD-DFT,
                                                   nearIR, NL-DFT gradient (VV10), updates on ESD,
                                                   ML-optimized integration grids
   S Lehtola, MJT Oliveira, MAL Marques          : LibXC Library
   Liviu Ungur et al                             : ANISO software


 Your calculation uses the libint2 library for the computation of 2-el integrals
 For citations please refer to: http://libint.valeyev.net

 Your ORCA version has been built with support for libXC version: 5.1.0
 For citations please refer to: https://tddft.org/programs/libxc/

 This ORCA versions uses:
   CBLAS   interface :  Fast vector & matrix operations
   LAPACKE interface :  Fast linear algebra routines
   SCALAPACK package :  Parallel linear algebra routines
   Shared memory     :  Shared parallel matrices
   BLAS/LAPACK       :  OpenBLAS 0.3.15  USE64BITINT DYNAMIC_ARCH NO_AFFINITY Zen SINGLE_THREADED
        Core in use  :  Zen
   Copyright (c) 2011-2014, The OpenBLAS Project




***************************************
The coordinates will be read from file: opt.xyz
***************************************


XCFun DFT library Copyright 2009-2010 Ulf Ekstrom and contributors.
See http://admol.org/xcfun for more information.
This is free software; see the source code for copying conditions.
There is ABSOLUTELY NO WARRANTY; not even for MERCHANTABILITY or FITNESS FOR A PARTICULAR PURPOSE.
For details see the documentation.
Scientific users of this library should cite U. Ekstrom, L. Visscher, R. Bast, A. J. Thorvaldsen and K. Ruud;
J.Chem.Theor.Comp. 2010, DOI: 10.1021/ct100117s
XCFun Version 0.99 

================================================================================

----- Orbital basis set information -----
Your calculation utilizes the basis: def2-TZVP
   F. Weigend and R. Ahlrichs, Phys. Chem. Chem. Phys. 7, 3297 (2005).

----- AuxJ basis set information -----
Your calculation utilizes the auxiliary basis: def2/J
   F. Weigend, Phys. Chem. Chem. Phys. 8, 1057 (2006).

================================================================================
                                        WARNINGS
                       Please study these warnings very carefully!
================================================================================


WARNING: your system is open-shell and RHF/RKS was chosen
  ===> : WILL SWITCH to UHF/UKS


WARNING: Geometry Optimization
  ===> : Switching off AutoStart
         For restart on a previous wavefunction, please use MOREAD

WARNING: Minnesota functionals are quite sensitive to the integration grid.
         see SE Wheeler, KN Houk, JCTC 2010, 6, 395,
             N Mardirossian, M Head-Gordon, JCTC 2016, 12, 4303.
         DEFGRID3 seems to be a minimum grid for reliable results with these functionals!
  ===> : Please increase the integration grid!


INFO   : the flag for use of the SHARK integral package has been found!

================================================================================
                                       INPUT FILE
================================================================================
NAME = freq.inp
|  1> ! M062X def2-TZVP OPT FREQ
|  2> %pal nprocs 16 end
|  3> *XYZFile -1 2 opt.xyz
|  4> 
|  5>                          ****END OF INPUT****
================================================================================

                       *****************************
                       * Geometry Optimization Run *
                       *****************************

Geometry optimization settings:
Update method            Update   .... BFGS
Choice of coordinates    CoordSys .... Z-matrix Internals
Initial Hessian          InHess   .... Almoef's Model

Convergence Tolerances:
Energy Change            TolE     ....  5.0000e-06 Eh
Max. Gradient            TolMAXG  ....  3.0000e-04 Eh/bohr
RMS Gradient             TolRMSG  ....  1.0000e-04 Eh/bohr
Max. Displacement        TolMAXD  ....  4.0000e-03 bohr
RMS Displacement         TolRMSD  ....  2.0000e-03 bohr
Strict Convergence                ....  False
------------------------------------------------------------------------------
                        ORCA OPTIMIZATION COORDINATE SETUP
------------------------------------------------------------------------------

The optimization will be done in new redundant internal coordinates
Making redundant internal coordinates   ...  (new redundants) done
Evaluating the initial hessian          ...  (Almloef) done
Evaluating the coordinates              ...  done
Calculating the B-matrix                .... done
Calculating the G-matrix                .... done
Diagonalizing the G-matrix              .... done
Small eigenvalue found = 7.279e-03
Small eigenvalue found = 1.294e-02
Small eigenvalue found = 1.651e-02
The first mode is                       ....   46
The number of degrees of freedom        ....   72

    -----------------------------------------------------------------
                    Redundant Internal Coordinates


    -----------------------------------------------------------------
         Definition                    Initial Value    Approx d2E/dq
    -----------------------------------------------------------------
      1. B(C   1,N   0)                  1.4638         0.426763   
      2. B(C   2,C   1)                  1.5523         0.344173   
      3. B(O   3,C   2)                  1.2479         0.943127   
      4. B(C   4,C   1)                  1.5564         0.339074   
      5. B(C   5,C   4)                  1.5022         0.413810   
      6. B(H   6,C   5)                  1.0885         0.362108   
      7. B(C   7,C   5)                  1.4994         0.418029   
      8. B(O   8,C   7)                  1.2909         0.805464   
      9. B(O   9,C   7)                  1.2561         0.915243   
     10. B(H  10,N   0)                  1.0141         0.426254   
     11. B(C  11,N   0)                  1.3607         0.623262   
     12. B(N  12,C   2)                  1.3456         0.658823   
     13. B(H  13,N  12)                  1.0677         0.350002   
     14. B(O  14,C  11)                  1.2349         0.989321   
     15. B(C  15,C  11)                  1.5318         0.371096   
     16. B(H  16,C  15)                  1.0939         0.354947   
     17. B(H  17,C  15)                  1.0938         0.355151   
     18. B(H  18,C  15)                  1.0935         0.355434   
     19. B(C  19,N  12)                  1.4587         0.434784   
     20. B(H  20,C  19)                  1.0952         0.353238   
     21. B(H  21,C  19)                  1.0918         0.357687   
     22. B(H  22,C  19)                  1.0968         0.351191   
     23. B(H  23,C   1)                  1.1008         0.346089   
     24. B(H  24,C   4)                  1.0947         0.353883   
     25. B(H  25,C   4)                  1.0973         0.350521   
     26. A(C   1,N   0,C  11)          123.1802         0.401269   
     27. A(H  10,N   0,C  11)          118.2796         0.358072   
     28. A(C   1,N   0,H  10)          112.5443         0.335968   
     29. A(N   0,C   1,H  23)          107.9660         0.327370   
     30. A(C   2,C   1,C   4)          116.6174         0.352466   
     31. A(C   2,C   1,H  23)          105.9932         0.317927   
     32. A(N   0,C   1,C   4)          113.2484         0.363333   
     33. A(C   4,C   1,H  23)          106.7881         0.317155   
     34. A(N   0,C   1,C   2)          105.7405         0.364262   
     35. A(O   3,C   2,N  12)          124.2736         0.467381   
     36. A(C   1,C   2,N  12)          116.9646         0.392689   
     37. A(C   1,C   2,O   3)          118.6764         0.418376   
     38. A(C   1,C   4,H  25)          105.3913         0.317813   
     39. A(C   5,C   4,H  24)          108.4513         0.328883   
     40. A(C   1,C   4,H  24)          107.3453         0.318308   
     41. A(C   5,C   4,H  25)          110.9742         0.328365   
     42. A(C   1,C   4,C   5)          116.5378         0.363686   
     43. A(H  24,C   4,H  25)          107.7732         0.288822   
     44. A(C   4,C   5,C   7)          121.9619         0.377014   
     45. A(C   4,C   5,H   6)          119.8819         0.330134   
     46. A(H   6,C   5,C   7)          117.9628         0.330688   
     47. A(O   8,C   7,O   9)          127.0819         0.482309   
     48. A(C   5,C   7,O   9)          117.0245         0.430863   
     49. A(C   5,C   7,O   8)          115.8829         0.421118   
     50. A(O  14,C  11,C  15)          120.7646         0.427685   
     51. A(N   0,C  11,C  15)          115.1783         0.394055   
     52. A(N   0,C  11,O  14)          124.0400         0.466725   
     53. A(H  13,N  12,C  19)          114.5592         0.326190   
     54. A(C   2,N  12,C  19)          118.7839         0.406550   
     55. A(C   2,N  12,H  13)          120.3119         0.349585   
     56. A(H  17,C  15,H  18)          109.5169         0.289615   
     57. A(H  16,C  15,H  18)          109.0880         0.289589   
     58. A(C  11,C  15,H  18)          113.4638         0.323272   
     59. A(H  16,C  15,H  17)          107.7643         0.289553   
     60. A(C  11,C  15,H  17)          108.5161         0.323230   
     61. A(C  11,C  15,H  16)          108.3335         0.323199   
     62. A(H  20,C  19,H  21)          109.5515         0.289657   
     63. A(N  12,C  19,H  21)          107.8434         0.330169   
     64. A(N  12,C  19,H  20)          110.9985         0.329487   
     65. A(H  21,C  19,H  22)          109.0538         0.289393   
     66. A(H  20,C  19,H  22)          107.6837         0.288826   
     67. A(N  12,C  19,H  22)          111.6856         0.329171   
     68. D(C   2,C   1,N   0,C  11)   -154.3295         0.015528   
     69. D(C   2,C   1,N   0,H  10)     -2.1580         0.015528   
     70. D(H  23,C   1,N   0,C  11)    -41.2302         0.015528   
     71. D(H  23,C   1,N   0,H  10)    110.9413         0.015528   
     72. D(C   4,C   1,N   0,C  11)     76.7895         0.015528   
     73. D(C   4,C   1,N   0,H  10)   -131.0390         0.015528   
     74. D(N  12,C   2,C   1,C   4)    -27.9880         0.008979   
     75. D(O   3,C   2,C   1,N   0)     28.3607         0.008979   
     76. D(N  12,C   2,C   1,H  23)     90.6790         0.008979   
     77. D(O   3,C   2,C   1,H  23)    -86.1055         0.008979   
     78. D(N  12,C   2,C   1,N   0)   -154.8549         0.008979   
     79. D(O   3,C   2,C   1,C   4)    155.2275         0.008979   
     80. D(C   5,C   4,C   1,H  23)   -171.8837         0.009314   
     81. D(C   5,C   4,C   1,C   2)    -53.6483         0.009314   
     82. D(H  25,C   4,C   1,H  23)     64.5802         0.009314   
     83. D(H  25,C   4,C   1,C   2)   -177.1844         0.009314   
     84. D(H  25,C   4,C   1,N   0)    -54.1224         0.009314   
     85. D(H  24,C   4,C   1,H  23)    -50.1073         0.009314   
     86. D(H  24,C   4,C   1,C   2)     68.1282         0.009314   
     87. D(H  24,C   4,C   1,N   0)   -168.8098         0.009314   
     88. D(C   5,C   4,C   1,N   0)     69.4137         0.009314   
     89. D(C   7,C   5,C   4,H  24)    -13.8863         0.012674   
     90. D(C   7,C   5,C   4,C   1)    107.3070         0.012674   
     91. D(H   6,C   5,C   4,H  25)     42.7569         0.012674   
     92. D(H   6,C   5,C   4,H  24)    160.9555         0.012674   
     93. D(C   7,C   5,C   4,H  25)   -132.0849         0.012674   
     94. D(H   6,C   5,C   4,C   1)    -77.8512         0.012674   
     95. D(O   9,C   7,C   5,H   6)    -15.1786         0.011964   
     96. D(O   9,C   7,C   5,C   4)    159.7581         0.011964   
     97. D(O   8,C   7,C   5,H   6)    165.9306         0.011964   
     98. D(O   8,C   7,C   5,C   4)    -19.1328         0.011964   
     99. D(C  15,C  11,N   0,H  10)     21.1730         0.031481   
    100. D(C  15,C  11,N   0,C   1)    171.8596         0.031481   
    101. D(O  14,C  11,N   0,H  10)   -160.3250         0.031481   
    102. D(O  14,C  11,N   0,C   1)     -9.6385         0.031481   
    103. D(C  19,N  12,C   2,O   3)     -4.1550         0.035507   
    104. D(C  19,N  12,C   2,C   1)    179.2592         0.035507   
    105. D(H  13,N  12,C   2,O   3)   -154.6737         0.035507   
    106. D(H  13,N  12,C   2,C   1)     28.7405         0.035507   
    107. D(H  18,C  15,C  11,O  14)    178.7393         0.010308   
    108. D(H  18,C  15,C  11,N   0)     -2.7053         0.010308   
    109. D(H  17,C  15,C  11,O  14)     56.7708         0.010308   
    110. D(H  17,C  15,C  11,N   0)   -124.6738         0.010308   
    111. D(H  16,C  15,C  11,O  14)    -59.9691         0.010308   
    112. D(H  16,C  15,C  11,N   0)    118.5863         0.010308   
    113. D(H  22,C  19,N  12,H  13)     96.5945         0.016117   
    114. D(H  22,C  19,N  12,C   2)    -55.5581         0.016117   
    115. D(H  21,C  19,N  12,H  13)    -23.2125         0.016117   
    116. D(H  21,C  19,N  12,C   2)   -175.3651         0.016117   
    117. D(H  20,C  19,N  12,H  13)   -143.2211         0.016117   
    118. D(H  20,C  19,N  12,C   2)     64.6263         0.016117   
    -----------------------------------------------------------------

Number of atoms                         .... 26
Number of degrees of freedom            .... 118

         *************************************************************
         *                GEOMETRY OPTIMIZATION CYCLE   1            *
         *************************************************************
---------------------------------
CARTESIAN COORDINATES (ANGSTROEM)
---------------------------------
  N     -3.814430   -0.002270   -0.039979
  C     -2.362869   -0.164275   -0.136599
  C     -1.843699   -0.189760    1.326102
  O     -2.602168   -0.610090    2.223502
  C     -1.692814    0.861280   -1.096585
  C     -1.673451    2.292821   -0.641845
  H     -2.572692    2.900473   -0.725078
  C     -0.414783    2.960127   -0.174253
  O      0.543379    2.170901    0.179821
  O     -0.395470    4.215979   -0.188372
  H     -4.140225    0.018946    0.920119
  C     -4.676665   -0.424613   -1.004136
  N     -0.567663    0.186820    1.527261
  H     -0.102318    0.887106    0.869137
  O     -4.325540   -0.824936   -2.118324
  C     -6.160563   -0.341510   -0.633204
  H     -6.652526    0.340283   -1.333060
  H     -6.606888   -1.331669   -0.762451
  H     -6.335132    0.007397    0.388383
  C     -0.043580    0.193475    2.888544
  H     -0.015596   -0.819814    3.303282
  H      0.968061    0.602850    2.855564
  H     -0.657713    0.809925    3.556259
  H     -2.159528   -1.164825   -0.548084
  H     -0.660182    0.533948   -1.254649
  H     -2.226229    0.759224   -2.050107

----------------------------
CARTESIAN COORDINATES (A.U.)
----------------------------
  NO LB      ZA    FRAG     MASS         X           Y           Z
   0 N     7.0000    0    14.007   -7.208228   -0.004289   -0.075549
   1 C     6.0000    0    12.011   -4.465176   -0.310436   -0.258134
   2 C     6.0000    0    12.011   -3.484086   -0.358594    2.505969
   3 O     8.0000    0    15.999   -4.917386   -1.152904    4.201809
   4 C     6.0000    0    12.011   -3.198954    1.627583   -2.072244
   5 C     6.0000    0    12.011   -3.162363    4.332803   -1.212911
   6 H     1.0000    0     1.008   -4.861682    5.481099   -1.370199
   7 C     6.0000    0    12.011   -0.783826    5.593830   -0.329290
   8 O     8.0000    0    15.999    1.026837    4.102408    0.339813
   9 O     8.0000    0    15.999   -0.747330    7.967047   -0.355971
  10 H     1.0000    0     1.008   -7.823891    0.035802    1.738772
  11 C     6.0000    0    12.011   -8.837616   -0.802403   -1.897541
  12 N     7.0000    0    14.007   -1.072727    0.353038    2.886106
  13 H     1.0000    0     1.008   -0.193354    1.676388    1.642430
  14 O     8.0000    0    15.999   -8.174085   -1.558903   -4.003053
  15 C     6.0000    0    12.011  -11.641776   -0.645360   -1.196582
  16 H     1.0000    0     1.008  -12.571452    0.643042   -2.519119
  17 H     1.0000    0     1.008  -12.485208   -2.516490   -1.440823
  18 H     1.0000    0     1.008  -11.971665    0.013979    0.733938
  19 C     6.0000    0    12.011   -0.082354    0.365615    5.458557
  20 H     1.0000    0     1.008   -0.029473   -1.549224    6.242298
  21 H     1.0000    0     1.008    1.829371    1.139221    5.396234
  22 H     1.0000    0     1.008   -1.242897    1.530537    6.720356
  23 H     1.0000    0     1.008   -4.080917   -2.201200   -1.035729
  24 H     1.0000    0     1.008   -1.247564    1.009015   -2.370944
  25 H     1.0000    0     1.008   -4.206963    1.434725   -3.874141

--------------------------------
INTERNAL COORDINATES (ANGSTROEM)
--------------------------------
 N      0   0   0     0.000000000000     0.00000000     0.00000000
 C      1   0   0     1.463765777273     0.00000000     0.00000000
 C      2   1   0     1.552314251087   105.74047469     0.00000000
 O      3   2   1     1.247910512718   118.67638786    28.36065608
 C      2   1   3     1.556377328483   113.24836107   231.11902890
 C      5   2   1     1.502156200397   116.53776830    69.41370299
 H      6   5   2     1.088486626288   119.88188479   282.14879112
 C      6   5   2     1.499394736642   121.96193416   107.30696332
 O      8   6   5     1.290860394583   115.88285856   340.86723841
 O      8   6   5     1.256079970193   117.02450351   159.75808706
 H      1   2   3     1.014090408934   112.54432291   357.84200009
 C      1   2   3     1.360669385067   123.18023934   205.67050432
 N      3   2   1     1.345565092271   116.96464985   205.14513419
 H     13   3   2     1.067742793800   120.31190796    28.74046187
 O     12   1   2     1.234894034642   124.03998026   350.36153493
 C     12   1   2     1.531812365950   115.17831402   171.85956748
 H     16  12   1     1.093923531874   108.33352701   118.58626418
 H     16  12   1     1.093767061909   108.51611365   235.32618962
 H     16  12   1     1.093549914077   113.46376456   357.29466990
 C     13   3   2     1.458697324054   118.78394113   179.25915582
 H     20  13   3     1.095237638303   110.99850091    64.62631695
 H     20  13   3     1.091830166299   107.84337552   184.63491091
 H     20  13   3     1.096819604175   111.68561049   304.44187347
 H      2   1   3     1.100802603164   107.96595387   113.09926793
 H      5   2   1     1.094740977113   107.34533527   191.19018137
 H      5   2   1     1.097338863956   105.39130718   305.87760390

---------------------------
INTERNAL COORDINATES (A.U.)
---------------------------
 N      0   0   0     0.000000000000     0.00000000     0.00000000
 C      1   0   0     2.766116443253     0.00000000     0.00000000
 C      2   1   0     2.933448808337   105.74047469     0.00000000
 O      3   2   1     2.358209108678   118.67638786    28.36065608
 C      2   1   3     2.941126911877   113.24836107   231.11902890
 C      5   2   1     2.838663829122   116.53776830    69.41370299
 H      6   5   2     2.056941624121   119.88188479   282.14879112
 C      6   5   2     2.833445418897   121.96193416   107.30696332
 O      8   6   5     2.439372622888   115.88285856   340.86723841
 O      8   6   5     2.373647145969   117.02450351   159.75808706
 H      1   2   3     1.916353147922   112.54432291   357.84200009
 C      1   2   3     2.571292496588   123.18023934   205.67050432
 N      3   2   1     2.542749519756   116.96464985   205.14513419
 H     13   3   2     2.017741461750   120.31190796    28.74046187
 O     12   1   2     2.333611529886   124.03998026   350.36153493
 C     12   1   2     2.894705860200   115.17831402   171.85956748
 H     16  12   1     2.067215886693   108.33352701   118.58626418
 H     16  12   1     2.066920201311   108.51611365   235.32618962
 H     16  12   1     2.066509851378   113.46376456   357.29466990
 C     13   3   2     2.756538454746   118.78394113   179.25915582
 H     20  13   3     2.069699187955   110.99850091    64.62631695
 H     20  13   3     2.063259999059   107.84337552   184.63491091
 H     20  13   3     2.072688670207   111.68561049   304.44187347
 H      2   1   3     2.080215447487   107.96595387   113.09926793
 H      5   2   1     2.068760634324   107.34533527   191.19018137
 H      5   2   1     2.073669928986   105.39130718   305.87760390

---------------------
BASIS SET INFORMATION
---------------------
There are 4 groups of distinct atoms

 Group   1 Type N   : 11s6p2d1f contracted to 5s3p2d1f pattern {62111/411/11/1}
 Group   2 Type C   : 11s6p2d1f contracted to 5s3p2d1f pattern {62111/411/11/1}
 Group   3 Type O   : 11s6p2d1f contracted to 5s3p2d1f pattern {62111/411/11/1}
 Group   4 Type H   : 5s1p contracted to 3s1p pattern {311/1}

Atom   0N    basis set group =>   1
Atom   1C    basis set group =>   2
Atom   2C    basis set group =>   2
Atom   3O    basis set group =>   3
Atom   4C    basis set group =>   2
Atom   5C    basis set group =>   2
Atom   6H    basis set group =>   4
Atom   7C    basis set group =>   2
Atom   8O    basis set group =>   3
Atom   9O    basis set group =>   3
Atom  10H    basis set group =>   4
Atom  11C    basis set group =>   2
Atom  12N    basis set group =>   1
Atom  13H    basis set group =>   4
Atom  14O    basis set group =>   3
Atom  15C    basis set group =>   2
Atom  16H    basis set group =>   4
Atom  17H    basis set group =>   4
Atom  18H    basis set group =>   4
Atom  19C    basis set group =>   2
Atom  20H    basis set group =>   4
Atom  21H    basis set group =>   4
Atom  22H    basis set group =>   4
Atom  23H    basis set group =>   4
Atom  24H    basis set group =>   4
Atom  25H    basis set group =>   4
---------------------------------
AUXILIARY/J BASIS SET INFORMATION
---------------------------------
There are 4 groups of distinct atoms

 Group   1 Type N   : 12s5p4d2f1g contracted to 6s4p3d1f1g pattern {711111/2111/211/2/1}
 Group   2 Type C   : 12s5p4d2f1g contracted to 6s4p3d1f1g pattern {711111/2111/211/2/1}
 Group   3 Type O   : 12s5p4d2f1g contracted to 6s4p3d1f1g pattern {711111/2111/211/2/1}
 Group   4 Type H   : 5s2p1d contracted to 3s1p1d pattern {311/2/1}

Atom   0N    basis set group =>   1
Atom   1C    basis set group =>   2
Atom   2C    basis set group =>   2
Atom   3O    basis set group =>   3
Atom   4C    basis set group =>   2
Atom   5C    basis set group =>   2
Atom   6H    basis set group =>   4
Atom   7C    basis set group =>   2
Atom   8O    basis set group =>   3
Atom   9O    basis set group =>   3
Atom  10H    basis set group =>   4
Atom  11C    basis set group =>   2
Atom  12N    basis set group =>   1
Atom  13H    basis set group =>   4
Atom  14O    basis set group =>   3
Atom  15C    basis set group =>   2
Atom  16H    basis set group =>   4
Atom  17H    basis set group =>   4
Atom  18H    basis set group =>   4
Atom  19C    basis set group =>   2
Atom  20H    basis set group =>   4
Atom  21H    basis set group =>   4
Atom  22H    basis set group =>   4
Atom  23H    basis set group =>   4
Atom  24H    basis set group =>   4
Atom  25H    basis set group =>   4


           ************************************************************
           *        Program running with 16 parallel MPI-processes    *
           *              working on a common directory               *
           ************************************************************
------------------------------------------------------------------------------
                           ORCA GTO INTEGRAL CALCULATION
                           -- RI-GTO INTEGRALS CHOSEN --
------------------------------------------------------------------------------
------------------------------------------------------------------------------
                   ___                                                        
                  /   \      - P O W E R E D   B Y -                         
                 /     \                                                     
                 |  |  |   _    _      __       _____    __    __             
                 |  |  |  | |  | |    /  \     |  _  \  |  |  /  |          
                  \  \/   | |  | |   /    \    | | | |  |  | /  /          
                 / \  \   | |__| |  /  /\  \   | |_| |  |  |/  /          
                |  |  |   |  __  | /  /__\  \  |    /   |      \           
                |  |  |   | |  | | |   __   |  |    \   |  |\   \          
                \     /   | |  | | |  |  |  |  | |\  \  |  | \   \       
                 \___/    |_|  |_| |__|  |__|  |_| \__\ |__|  \__/        
                                                                              
                      - O R C A' S   B I G   F R I E N D -                    
                                      &                                       
                       - I N T E G R A L  F E E D E R -                       
                                                                              
 v1 FN, 2020, v2 2021                                                         
------------------------------------------------------------------------------


Reading SHARK input file freq.SHARKINP.tmp ... ok
----------------------
SHARK INTEGRAL PACKAGE
----------------------

Number of atoms                             ...     26
Number of basis functions                   ...    506
Number of shells                            ...    202
Maximum angular momentum                    ...      3
Integral batch strategy                     ... SHARK/LIBINT Hybrid
RI-J (if used) integral strategy            ... SPLIT-RIJ (Revised 2003 algorithm where possible)
Printlevel                                  ...      1
Contraction scheme used                     ... SEGMENTED contraction
Coulomb Range Separation                    ... NOT USED
Exchange Range Separation                   ... NOT USED
Finite Nucleus Model                        ... NOT USED
Auxiliary Coulomb fitting basis             ... AVAILABLE
   # of basis functions in Aux-J            ...    818
   # of shells in Aux-J                     ...    270
   Maximum angular momentum in Aux-J        ...      4
Auxiliary J/K fitting basis                 ... NOT available
Auxiliary Correlation fitting basis         ... NOT available
Auxiliary 'external' fitting basis          ... NOT available
Integral threshold                          ...     2.500000e-11
Primitive cut-off                           ...     2.500000e-12
Primitive pair pre-selection threshold      ...     2.500000e-12

Calculating pre-screening integrals         ... done (  0.0 sec) Dimension = 202
Organizing shell pair data                  ... done (  0.1 sec)
Shell pair information
Total number of shell pairs                 ...     20503
Shell pairs after pre-screening             ...     16240
Total number of primitive shell pairs       ...     62472
Primitive shell pairs kept                  ...     34397
          la=0 lb=0:   4365 shell pairs
          la=1 lb=0:   4657 shell pairs
          la=1 lb=1:   1282 shell pairs
          la=2 lb=0:   2287 shell pairs
          la=2 lb=1:   1248 shell pairs
          la=2 lb=2:    320 shell pairs
          la=3 lb=0:   1100 shell pairs
          la=3 lb=1:    609 shell pairs
          la=3 lb=2:    295 shell pairs
          la=3 lb=3:     77 shell pairs

Calculating one electron integrals          ... done (  0.0 sec)
Calculating RI/J V-Matrix + Cholesky decomp.... done (  0.0 sec)
Calculating Nuclear repulsion               ... done (  0.0 sec) ENN=    914.342340245807 Eh

SHARK setup successfully completed in   0.4 seconds

Maximum memory used throughout the entire GTOINT-calculation: 28.6 MB


           ************************************************************
           *        Program running with 16 parallel MPI-processes    *
           *              working on a common directory               *
           ************************************************************
-------------------------------------------------------------------------------
                                 ORCA SCF
-------------------------------------------------------------------------------

------------
SCF SETTINGS
------------
Hamiltonian:
 Density Functional     Method          .... DFT(GTOs)
 Exchange Functional    Exchange        .... M062X
 Correlation Functional Correlation     .... M062X
 Gradients option       PostSCFGGA      .... off
 Hybrid DFT is turned on
   Fraction HF Exchange ScalHFX         ....  0.540000
   Scaling of DF-GGA-X  ScalDFX         ....  0.460000
   Scaling of DF-GGA-C  ScalDFC         ....  1.000000
   Scaling of DF-LDA-C  ScalLDAC        ....  1.000000
   Perturbative correction              ....  0.000000
   Density functional embedding theory  .... OFF
 RI-approximation to the Coulomb term is turned on
   Number of AuxJ basis functions       .... 818
   RIJ-COSX (HFX calculated with COS-X)).... on


General Settings:
 Integral files         IntName         .... freq
 Hartree-Fock type      HFTyp           .... UHF
 Total Charge           Charge          ....   -1
 Multiplicity           Mult            ....    2
 Number of Electrons    NEL             ....  107
 Basis Dimension        Dim             ....  506
 Nuclear Repulsion      ENuc            ....    914.3423402458 Eh

Convergence Acceleration:
 DIIS                   CNVDIIS         .... on
   Start iteration      DIISMaxIt       ....    12
   Startup error        DIISStart       ....  0.200000
   # of expansion vecs  DIISMaxEq       ....     5
   Bias factor          DIISBfac        ....   1.050
   Max. coefficient     DIISMaxC        ....  10.000
 Trust-Rad. Augm. Hess. CNVTRAH         .... auto
   Auto Start mean grad. ratio tolernc. ....  1.125000
   Auto Start start iteration           ....    20
   Auto Start num. interpolation iter.  ....    10
   Max. Number of Micro iterations      ....    16
   Max. Number of Macro iterations      .... Maxiter - #DIIS iter
   Number of Davidson start vectors     ....     2
   Converg. threshold I  (grad. norm)   ....   1.000e-05
   Converg. threshold II (energy diff.) ....   1.000e-08
   Grad. Scal. Fac. for Micro threshold ....   0.100
   Minimum threshold for Micro iter.    ....   0.010
   NR start threshold (gradient norm)   ....   0.001
   Initial trust radius                 ....   0.400
   Minimum AH scaling param. (alpha)    ....   1.000
   Maximum AH scaling param. (alpha)    .... 1000.000
   Orbital update algorithm             .... Taylor
   White noise on init. David. guess    .... on
   Maximum white noise                  ....   0.010
   Quad. conv. algorithm                .... NR
 SOSCF                  CNVSOSCF        .... off
 Level Shifting         CNVShift        .... on
   Level shift para.    LevelShift      ....    0.2500
   Turn off err/grad.   ShiftErr        ....    0.0010
 Zerner damping         CNVZerner       .... off
 Static damping         CNVDamp         .... on
   Fraction old density DampFac         ....    0.7000
   Max. Damping (<1)    DampMax         ....    0.9800
   Min. Damping (>=0)   DampMin         ....    0.0000
   Turn off err/grad.   DampErr         ....    0.1000
 Fernandez-Rico         CNVRico         .... off

SCF Procedure:
 Maximum # iterations   MaxIter         ....   125
 SCF integral mode      SCFMode         .... Direct
   Integral package                     .... SHARK and LIBINT hybrid scheme
 Reset frequency        DirectResetFreq ....    20
 Integral Threshold     Thresh          ....  2.500e-11 Eh
 Primitive CutOff       TCut            ....  2.500e-12 Eh

Convergence Tolerance:
 Convergence Check Mode ConvCheckMode   .... Total+1el-Energy
 Convergence forced     ConvForced      .... 0
 Energy Change          TolE            ....  1.000e-08 Eh
 1-El. energy change                    ....  1.000e-05 Eh
 DIIS Error             TolErr          ....  5.000e-07


Diagonalization of the overlap matrix:
Smallest eigenvalue                        ... 6.368e-05
Time for diagonalization                   ...    0.030 sec
Threshold for overlap eigenvalues          ... 1.000e-08
Number of eigenvalues below threshold      ... 0
Time for construction of square roots      ...    0.020 sec
Total time needed                          ...    0.051 sec

Time for model grid setup =    0.104 sec

------------------------------
INITIAL GUESS: MODEL POTENTIAL
------------------------------
Loading Hartree-Fock densities                     ... done
Calculating cut-offs                               ... done
Initializing the effective Hamiltonian             ... done
Setting up the integral package (SHARK)            ... done
Starting the Coulomb interaction                   ... done (   0.1 sec)
Reading the grid                                   ... done
Mapping shells                                     ... done
Starting the XC term evaluation                    ... done (   0.1 sec)
  promolecular density results
     # of electrons  =    105.989730719
     EX              =    -90.057333743
     EC              =     -3.549218236
     EX+EC           =    -93.606551979
Transforming the Hamiltonian                       ... done (   0.0 sec)
Diagonalizing the Hamiltonian                      ... done (   0.0 sec)
Back transforming the eigenvectors                 ... done (   0.0 sec)
Now organizing SCF variables                       ... done
                      ------------------
                      INITIAL GUESS DONE (   0.4 sec)
                      ------------------
-------------------
DFT GRID GENERATION
-------------------

General Integration Accuracy     IntAcc      ... 4.388
Radial Grid Type                 RadialGrid  ... OptM3 with GC (2021)
Angular Grid (max. ang.)         AngularGrid ... 4 (Lebedev-302)
Angular grid pruning method      GridPruning ... 4 (adaptive)
Weight generation scheme         WeightScheme... Becke
Basis function cutoff            BFCut       ... 1.0000e-11
Integration weight cutoff        WCut        ... 1.0000e-14
Angular grids for H and He will be reduced by one unit
Partially contracted basis set               ... off
Rotationally invariant grid construction     ... off

Total number of grid points                  ...   122612
Total number of batches                      ...     1930
Average number of points per batch           ...       63
Average number of grid points per atom       ...     4716
Time for grid setup =    0.542 sec

--------------------
COSX GRID GENERATION
--------------------

GRIDX 1
-------
General Integration Accuracy     IntAcc      ... 3.816
Radial Grid Type                 RadialGrid  ... OptM3 with GC (2021)
Angular Grid (max. ang.)         AngularGrid ... 1 (Lebedev-50)
Angular grid pruning method      GridPruning ... 4 (adaptive)
Weight generation scheme         WeightScheme... Becke
Basis function cutoff            BFCut       ... 1.0000e-11
Integration weight cutoff        WCut        ... 1.0000e-14
Angular grids for H and He will be reduced by one unit
Partially contracted basis set               ... on
Rotationally invariant grid construction     ... off

Total number of grid points                  ...    15614
Total number of batches                      ...      257
Average number of points per batch           ...       60
Average number of grid points per atom       ...      601
UseSFitting                                  ... on

GRIDX 2
-------
General Integration Accuracy     IntAcc      ... 4.020
Radial Grid Type                 RadialGrid  ... OptM3 with GC (2021)
Angular Grid (max. ang.)         AngularGrid ... 2 (Lebedev-110)
Angular grid pruning method      GridPruning ... 4 (adaptive)
Weight generation scheme         WeightScheme... Becke
Basis function cutoff            BFCut       ... 1.0000e-11
Integration weight cutoff        WCut        ... 1.0000e-14
Angular grids for H and He will be reduced by one unit
Partially contracted basis set               ... on
Rotationally invariant grid construction     ... off

Total number of grid points                  ...    33973
Total number of batches                      ...      543
Average number of points per batch           ...       62
Average number of grid points per atom       ...     1307
UseSFitting                                  ... on

GRIDX 3
-------
General Integration Accuracy     IntAcc      ... 4.338
Radial Grid Type                 RadialGrid  ... OptM3 with GC (2021)
Angular Grid (max. ang.)         AngularGrid ... 3 (Lebedev-194)
Angular grid pruning method      GridPruning ... 4 (adaptive)
Weight generation scheme         WeightScheme... Becke
Basis function cutoff            BFCut       ... 1.0000e-11
Integration weight cutoff        WCut        ... 1.0000e-14
Angular grids for H and He will be reduced by one unit
Partially contracted basis set               ... on
Rotationally invariant grid construction     ... off

Total number of grid points                  ...    74391
Total number of batches                      ...     1175
Average number of points per batch           ...       63
Average number of grid points per atom       ...     2861
UseSFitting                                  ... on

Time for X-Grid setup             =    0.701 sec

--------------
SCF ITERATIONS
--------------
ITER       Energy         Delta-E        Max-DP      RMS-DP      [F,P]     Damp
               ***  Starting incremental Fock matrix formation  ***
  0   -721.9748017160   0.000000000000 0.09583048  0.00059455  0.1665757 0.7000
  1   -722.2255804981  -0.250778782126 0.09939254  0.00050779  0.0825242 0.7000
                               ***Turning on DIIS***
  2   -722.3340656822  -0.108485184122 0.17896374  0.00091175  0.0319766 0.0000
  3   -722.5109904913  -0.176924809093 0.09306133  0.00038512  0.0427502 0.0000
  4   -722.5427721732  -0.031781681934 0.02802241  0.00012828  0.0059849 0.0000
  5   -722.5442611881  -0.001489014847 0.01091329  0.00005468  0.0029861 0.0000
  6   -722.5445569565  -0.000295768451 0.00409111  0.00002930  0.0017975 0.0000
  7   -722.5446526808  -0.000095724279 0.00380534  0.00002916  0.0009631 0.0000
               *** Restarting incremental Fock matrix formation ***
                                   *** Resetting DIIS ***
  8   -722.5447547183  -0.000102037512 0.00079353  0.00000788  0.0005100 0.0000
  9   -722.5447580178  -0.000003299459 0.00030921  0.00000317  0.0006536 0.0000
 10   -722.5447620196  -0.000004001855 0.00036515  0.00000293  0.0001662 0.0000
 11   -722.5447632336  -0.000001213927 0.00021608  0.00000159  0.0001203 0.0000
 12   -722.5447636644  -0.000000430836 0.00008733  0.00000080  0.0000734 0.0000
 13   -722.5447638049  -0.000000140447 0.00006588  0.00000042  0.0000477 0.0000
 14   -722.5447638469  -0.000000042009 0.00002717  0.00000026  0.0000215 0.0000
 15   -722.5447638704  -0.000000023543 0.00002498  0.00000017  0.0000143 0.0000
 16   -722.5447638759  -0.000000005468 0.00001247  0.00000010  0.0000093 0.0000
 17   -722.5447638901  -0.000000014237 0.00000709  0.00000005  0.0000033 0.0000
 18   -722.5447638730   0.000000017061 0.00000217  0.00000002  0.0000015 0.0000
                 **** Energy Check signals convergence ****

               *****************************************************
               *                     SUCCESS                       *
               *           SCF CONVERGED AFTER  19 CYCLES          *
               *****************************************************

Old exchange energy                            =    -49.711554077 Eh
New exchange energy                            =    -49.711560700 Eh
Exchange energy change after final integration =     -0.000006624 Eh
Total energy after final integration           =   -722.544770502 Eh
Final COS-X integration done in                =     4.027 sec

----------------
TOTAL SCF ENERGY
----------------

Total Energy       :         -722.54477050 Eh          -19661.44277 eV

Components:
Nuclear Repulsion  :          914.34234025 Eh           24880.51998 eV
Electronic Energy  :        -1636.88711075 Eh          -44541.96275 eV
One Electron Energy:        -2815.97369643 Eh          -76626.53990 eV
Two Electron Energy:         1179.08658569 Eh           32084.57714 eV
Max COSX asymmetry :            0.00000097 Eh               0.00003 eV

Virial components:
Potential Energy   :        -1441.33819156 Eh          -39220.80614 eV
Kinetic Energy     :          718.79342106 Eh           19559.36337 eV
Virial Ratio       :            2.00521895


DFT components:
N(Alpha)           :       54.000085951351 electrons
N(Beta)            :       53.000052811871 electrons
N(Total)           :      107.000138763222 electrons
E(XC)              :      -46.349385498453 Eh       
DFET-embed. en.    :        0.000000000000 Eh       

---------------
SCF CONVERGENCE
---------------

  Last Energy change         ...   -4.8401e-09  Tolerance :   1.0000e-08
  Last MAX-Density change    ...    0.0000e+00  Tolerance :   1.0000e-07
  Last RMS-Density change    ...    0.0000e+00  Tolerance :   5.0000e-09
  Last DIIS Error            ...    1.0801e-06  Tolerance :   5.0000e-07

             **** THE GBW FILE WAS UPDATED (freq.gbw) ****
             **** DENSITY freq.scfp WAS UPDATED ****
             **** ENERGY FILE WAS UPDATED (freq.en.tmp) ****
----------------------
UHF SPIN CONTAMINATION
----------------------

Warning: in a DFT calculation there is little theoretical justification to 
         calculate <S**2> as in Hartree-Fock theory. We will do it anyways
         but you should keep in mind that the values have only limited relevance

Expectation value of <S**2>     :     0.757989
Ideal value S*(S+1) for S=0.5   :     0.750000
Deviation                       :     0.007989

             **** THE GBW FILE WAS UPDATED (freq.gbw) ****
             **** DENSITY freq.scfp WAS UPDATED ****
----------------
ORBITAL ENERGIES
----------------
                 SPIN UP ORBITALS
  NO   OCC          E(Eh)            E(eV) 
   0   1.0000     -19.491612      -530.3937 
   1   1.0000     -19.478890      -530.0475 
   2   1.0000     -19.415070      -528.3109 
   3   1.0000     -19.409867      -528.1693 
   4   1.0000     -14.665441      -399.0669 
   5   1.0000     -14.634212      -398.2171 
   6   1.0000     -10.546830      -286.9938 
   7   1.0000     -10.525698      -286.4188 
   8   1.0000     -10.478390      -285.1315 
   9   1.0000     -10.474868      -285.0357 
  10   1.0000     -10.455112      -284.4981 
  11   1.0000     -10.449682      -284.3503 
  12   1.0000     -10.420241      -283.5492 
  13   1.0000     -10.416774      -283.4548 
  14   1.0000      -1.052368       -28.6364 
  15   1.0000      -1.034954       -28.1625 
  16   1.0000      -0.987549       -26.8726 
  17   1.0000      -0.925204       -25.1761 
  18   1.0000      -0.904991       -24.6261 
  19   1.0000      -0.889536       -24.2055 
  20   1.0000      -0.777196       -21.1486 
  21   1.0000      -0.734931       -19.9985 
  22   1.0000      -0.692427       -18.8419 
  23   1.0000      -0.654261       -17.8033 
  24   1.0000      -0.592657       -16.1270 
  25   1.0000      -0.549761       -14.9598 
  26   1.0000      -0.523705       -14.2507 
  27   1.0000      -0.499846       -13.6015 
  28   1.0000      -0.463233       -12.6052 
  29   1.0000      -0.448144       -12.1946 
  30   1.0000      -0.436306       -11.8725 
  31   1.0000      -0.423966       -11.5367 
  32   1.0000      -0.418468       -11.3871 
  33   1.0000      -0.403587       -10.9821 
  34   1.0000      -0.391835       -10.6624 
  35   1.0000      -0.382217       -10.4006 
  36   1.0000      -0.377615       -10.2754 
  37   1.0000      -0.366746        -9.9797 
  38   1.0000      -0.357370        -9.7245 
  39   1.0000      -0.340560        -9.2671 
  40   1.0000      -0.339035        -9.2256 
  41   1.0000      -0.331923        -9.0321 
  42   1.0000      -0.322122        -8.7654 
  43   1.0000      -0.309268        -8.4156 
  44   1.0000      -0.304037        -8.2733 
  45   1.0000      -0.291533        -7.9330 
  46   1.0000      -0.233013        -6.3406 
  47   1.0000      -0.226974        -6.1763 
  48   1.0000      -0.217719        -5.9244 
  49   1.0000      -0.199344        -5.4244 
  50   1.0000      -0.172554        -4.6954 
  51   1.0000      -0.171960        -4.6793 
  52   1.0000      -0.159590        -4.3427 
  53   1.0000      -0.127340        -3.4651 
  54   0.0000       0.150754         4.1022 
  55   0.0000       0.158743         4.3196 
  56   0.0000       0.170787         4.6473 
  57   0.0000       0.192005         5.2247 
  58   0.0000       0.205914         5.6032 
  59   0.0000       0.210715         5.7339 
  60   0.0000       0.224492         6.1087 
  61   0.0000       0.238159         6.4806 
  62   0.0000       0.243126         6.6158 
  63   0.0000       0.249924         6.8008 
  64   0.0000       0.250908         6.8276 
  65   0.0000       0.257006         6.9935 
  66   0.0000       0.267113         7.2685 
  67   0.0000       0.271441         7.3863 
  68   0.0000       0.273931         7.4541 
  69   0.0000       0.285984         7.7820 
  70   0.0000       0.295654         8.0452 
  71   0.0000       0.309920         8.4333 
  72   0.0000       0.325891         8.8680 
  73   0.0000       0.329533         8.9670 
  74   0.0000       0.331916         9.0319 
  75   0.0000       0.335872         9.1395 
  76   0.0000       0.355569         9.6755 
  77   0.0000       0.361190         9.8285 
  78   0.0000       0.361389         9.8339 
  79   0.0000       0.374270        10.1844 
  80   0.0000       0.382626        10.4118 
  81   0.0000       0.390071        10.6144 
  82   0.0000       0.398799        10.8519 
  83   0.0000       0.407948        11.1008 
  84   0.0000       0.410882        11.1807 
  85   0.0000       0.428238        11.6529 
  86   0.0000       0.435999        11.8641 
  87   0.0000       0.441435        12.0121 
  88   0.0000       0.461666        12.5626 
  89   0.0000       0.468004        12.7350 
  90   0.0000       0.476611        12.9692 
  91   0.0000       0.478814        13.0292 
  92   0.0000       0.486824        13.2472 
  93   0.0000       0.497931        13.5494 
  94   0.0000       0.501163        13.6373 
  95   0.0000       0.511914        13.9299 
  96   0.0000       0.516150        14.0452 
  97   0.0000       0.521968        14.2035 
  98   0.0000       0.531732        14.4692 
  99   0.0000       0.535952        14.5840 
 100   0.0000       0.540694        14.7130 
 101   0.0000       0.547358        14.8944 
 102   0.0000       0.550417        14.9776 
 103   0.0000       0.562047        15.2941 
 104   0.0000       0.568539        15.4707 
 105   0.0000       0.576926        15.6990 
 106   0.0000       0.580137        15.7863 
 107   0.0000       0.588323        16.0091 
 108   0.0000       0.596297        16.2261 
 109   0.0000       0.605996        16.4900 
 110   0.0000       0.610998        16.6261 
 111   0.0000       0.617019        16.7900 
 112   0.0000       0.620901        16.8956 
 113   0.0000       0.629835        17.1387 
 114   0.0000       0.633646        17.2424 
 115   0.0000       0.642300        17.4779 
 116   0.0000       0.657574        17.8935 
 117   0.0000       0.659147        17.9363 
 118   0.0000       0.664346        18.0778 
 119   0.0000       0.673233        18.3196 
 120   0.0000       0.677141        18.4259 
 121   0.0000       0.683917        18.6103 
 122   0.0000       0.686851        18.6902 
 123   0.0000       0.695024        18.9126 
 124   0.0000       0.708516        19.2797 
 125   0.0000       0.716682        19.5019 
 126   0.0000       0.724690        19.7198 
 127   0.0000       0.729459        19.8496 
 128   0.0000       0.730091        19.8668 
 129   0.0000       0.741954        20.1896 
 130   0.0000       0.764208        20.7952 
 131   0.0000       0.772678        21.0256 
 132   0.0000       0.780994        21.2519 
 133   0.0000       0.787236        21.4218 
 134   0.0000       0.798582        21.7305 
 135   0.0000       0.811708        22.0877 
 136   0.0000       0.828043        22.5322 
 137   0.0000       0.839234        22.8367 
 138   0.0000       0.844375        22.9766 
 139   0.0000       0.868637        23.6368 
 140   0.0000       0.876232        23.8435 
 141   0.0000       0.880874        23.9698 
 142   0.0000       0.894396        24.3378 
 143   0.0000       0.899680        24.4815 
 144   0.0000       0.906316        24.6621 
 145   0.0000       0.921994        25.0887 
 146   0.0000       0.944057        25.6891 
 147   0.0000       0.960068        26.1248 
 148   0.0000       0.977873        26.6093 
 149   0.0000       0.986981        26.8571 
 150   0.0000       0.997205        27.1353 
 151   0.0000       1.000009        27.2116 
 152   0.0000       1.020111        27.7586 
 153   0.0000       1.034740        28.1567 
 154   0.0000       1.045711        28.4553 
 155   0.0000       1.053315        28.6622 
 156   0.0000       1.064186        28.9580 
 157   0.0000       1.068746        29.0821 
 158   0.0000       1.080037        29.3893 
 159   0.0000       1.087927        29.6040 
 160   0.0000       1.100303        29.9408 
 161   0.0000       1.111808        30.2538 
 162   0.0000       1.118054        30.4238 
 163   0.0000       1.132781        30.8245 
 164   0.0000       1.155056        31.4307 
 165   0.0000       1.166748        31.7488 
 166   0.0000       1.172319        31.9004 
 167   0.0000       1.184233        32.2246 
 168   0.0000       1.208743        32.8916 
 169   0.0000       1.224451        33.3190 
 170   0.0000       1.242373        33.8067 
 171   0.0000       1.264578        34.4109 
 172   0.0000       1.267880        34.5008 
 173   0.0000       1.270008        34.5587 
 174   0.0000       1.287965        35.0473 
 175   0.0000       1.305526        35.5252 
 176   0.0000       1.313705        35.7477 
 177   0.0000       1.330404        36.2021 
 178   0.0000       1.334634        36.3172 
 179   0.0000       1.368180        37.2301 
 180   0.0000       1.386440        37.7269 
 181   0.0000       1.421130        38.6709 
 182   0.0000       1.440531        39.1988 
 183   0.0000       1.444714        39.3127 
 184   0.0000       1.450023        39.4571 
 185   0.0000       1.463820        39.8326 
 186   0.0000       1.481974        40.3266 
 187   0.0000       1.484830        40.4043 
 188   0.0000       1.529917        41.6312 
 189   0.0000       1.535836        41.7922 
 190   0.0000       1.556238        42.3474 
 191   0.0000       1.568436        42.6793 
 192   0.0000       1.590732        43.2860 
 193   0.0000       1.591831        43.3159 
 194   0.0000       1.615244        43.9530 
 195   0.0000       1.623286        44.1719 
 196   0.0000       1.632350        44.4185 
 197   0.0000       1.637412        44.5562 
 198   0.0000       1.648455        44.8568 
 199   0.0000       1.659547        45.1586 
 200   0.0000       1.667347        45.3708 
 201   0.0000       1.674258        45.5589 
 202   0.0000       1.676080        45.6085 
 203   0.0000       1.689702        45.9791 
 204   0.0000       1.695907        46.1480 
 205   0.0000       1.700408        46.2704 
 206   0.0000       1.709339        46.5135 
 207   0.0000       1.722126        46.8614 
 208   0.0000       1.726683        46.9854 
 209   0.0000       1.731985        47.1297 
 210   0.0000       1.736098        47.2416 
 211   0.0000       1.749288        47.6006 
 212   0.0000       1.781114        48.4666 
 213   0.0000       1.786518        48.6136 
 214   0.0000       1.795569        48.8599 
 215   0.0000       1.802476        49.0479 
 216   0.0000       1.808048        49.1995 
 217   0.0000       1.827729        49.7350 
 218   0.0000       1.841623        50.1131 
 219   0.0000       1.851810        50.3903 
 220   0.0000       1.871970        50.9389 
 221   0.0000       1.876500        51.0622 
 222   0.0000       1.897358        51.6297 
 223   0.0000       1.904607        51.8270 
 224   0.0000       1.926518        52.4232 
 225   0.0000       1.937219        52.7144 
 226   0.0000       1.962625        53.4057 
 227   0.0000       1.977342        53.8062 
 228   0.0000       1.982820        53.9553 
 229   0.0000       1.992570        54.2206 
 230   0.0000       2.003999        54.5316 
 231   0.0000       2.027117        55.1606 
 232   0.0000       2.037558        55.4448 
 233   0.0000       2.044107        55.6230 
 234   0.0000       2.074054        56.4379 
 235   0.0000       2.079605        56.5889 
 236   0.0000       2.100077        57.1460 
 237   0.0000       2.106827        57.3297 
 238   0.0000       2.110882        57.4400 
 239   0.0000       2.138997        58.2051 
 240   0.0000       2.149120        58.4805 
 241   0.0000       2.152676        58.5773 
 242   0.0000       2.164070        58.8873 
 243   0.0000       2.172707        59.1224 
 244   0.0000       2.182177        59.3800 
 245   0.0000       2.193840        59.6974 
 246   0.0000       2.208892        60.1070 
 247   0.0000       2.230506        60.6951 
 248   0.0000       2.235273        60.8249 
 249   0.0000       2.257073        61.4181 
 250   0.0000       2.273353        61.8611 
 251   0.0000       2.283724        62.1433 
 252   0.0000       2.301886        62.6375 
 253   0.0000       2.314605        62.9836 
 254   0.0000       2.338532        63.6347 
 255   0.0000       2.362974        64.2998 
 256   0.0000       2.370772        64.5120 
 257   0.0000       2.375218        64.6330 
 258   0.0000       2.380575        64.7787 
 259   0.0000       2.409462        65.5648 
 260   0.0000       2.418957        65.8232 
 261   0.0000       2.420111        65.8546 
 262   0.0000       2.426124        66.0182 
 263   0.0000       2.436602        66.3033 
 264   0.0000       2.441726        66.4427 
 265   0.0000       2.453414        66.7608 
 266   0.0000       2.459288        66.9206 
 267   0.0000       2.467779        67.1517 
 268   0.0000       2.472257        67.2735 
 269   0.0000       2.493719        67.8576 
 270   0.0000       2.514970        68.4358 
 271   0.0000       2.517983        68.5178 
 272   0.0000       2.537171        69.0399 
 273   0.0000       2.544058        69.2273 
 274   0.0000       2.566346        69.8338 
 275   0.0000       2.579880        70.2021 
 276   0.0000       2.592317        70.5405 
 277   0.0000       2.607058        70.9417 
 278   0.0000       2.639477        71.8238 
 279   0.0000       2.646244        72.0080 
 280   0.0000       2.655050        72.2476 
 281   0.0000       2.658980        72.3545 
 282   0.0000       2.676082        72.8199 
 283   0.0000       2.691767        73.2467 
 284   0.0000       2.702121        73.5284 
 285   0.0000       2.715372        73.8890 
 286   0.0000       2.727730        74.2253 
 287   0.0000       2.747708        74.7689 
 288   0.0000       2.763784        75.2064 
 289   0.0000       2.769842        75.3712 
 290   0.0000       2.782164        75.7065 
 291   0.0000       2.793173        76.0061 
 292   0.0000       2.806852        76.3783 
 293   0.0000       2.820190        76.7413 
 294   0.0000       2.822978        76.8171 
 295   0.0000       2.859269        77.8047 
 296   0.0000       2.864703        77.9525 
 297   0.0000       2.878081        78.3166 
 298   0.0000       2.898134        78.8622 
 299   0.0000       2.905442        79.0611 
 300   0.0000       2.913811        79.2888 
 301   0.0000       2.942080        80.0581 
 302   0.0000       2.953926        80.3804 
 303   0.0000       2.962840        80.6230 
 304   0.0000       2.975978        80.9805 
 305   0.0000       2.985427        81.2376 
 306   0.0000       3.001122        81.6647 
 307   0.0000       3.029787        82.4447 
 308   0.0000       3.035292        82.5945 
 309   0.0000       3.049746        82.9878 
 310   0.0000       3.051820        83.0442 
 311   0.0000       3.070457        83.5514 
 312   0.0000       3.096006        84.2466 
 313   0.0000       3.105143        84.4952 
 314   0.0000       3.123811        85.0032 
 315   0.0000       3.131436        85.2107 
 316   0.0000       3.137383        85.3725 
 317   0.0000       3.155383        85.8623 
 318   0.0000       3.160161        85.9924 
 319   0.0000       3.170419        86.2715 
 320   0.0000       3.182452        86.5989 
 321   0.0000       3.204648        87.2029 
 322   0.0000       3.207558        87.2821 
 323   0.0000       3.219281        87.6011 
 324   0.0000       3.235180        88.0337 
 325   0.0000       3.236334        88.0651 
 326   0.0000       3.240944        88.1906 
 327   0.0000       3.247880        88.3793 
 328   0.0000       3.261210        88.7420 
 329   0.0000       3.272941        89.0612 
 330   0.0000       3.277391        89.1823 
 331   0.0000       3.288098        89.4737 
 332   0.0000       3.304682        89.9250 
 333   0.0000       3.314344        90.1879 
 334   0.0000       3.327110        90.5353 
 335   0.0000       3.333429        90.7072 
 336   0.0000       3.341808        90.9352 
 337   0.0000       3.354947        91.2927 
 338   0.0000       3.375184        91.8434 
 339   0.0000       3.385109        92.1135 
 340   0.0000       3.392990        92.3280 
 341   0.0000       3.403255        92.6073 
 342   0.0000       3.413223        92.8785 
 343   0.0000       3.416716        92.9736 
 344   0.0000       3.427304        93.2617 
 345   0.0000       3.432270        93.3968 
 346   0.0000       3.443150        93.6929 
 347   0.0000       3.467480        94.3549 
 348   0.0000       3.473346        94.5146 
 349   0.0000       3.476585        94.6027 
 350   0.0000       3.484290        94.8123 
 351   0.0000       3.485004        94.8318 
 352   0.0000       3.504842        95.3716 
 353   0.0000       3.513722        95.6132 
 354   0.0000       3.523005        95.8659 
 355   0.0000       3.537395        96.2574 
 356   0.0000       3.542038        96.3837 
 357   0.0000       3.554810        96.7313 
 358   0.0000       3.568779        97.1114 
 359   0.0000       3.591709        97.7354 
 360   0.0000       3.611151        98.2644 
 361   0.0000       3.621481        98.5455 
 362   0.0000       3.625268        98.6486 
 363   0.0000       3.634104        98.8890 
 364   0.0000       3.645515        99.1995 
 365   0.0000       3.662453        99.6604 
 366   0.0000       3.681017       100.1656 
 367   0.0000       3.695989       100.5730 
 368   0.0000       3.697420       100.6119 
 369   0.0000       3.713169       101.0405 
 370   0.0000       3.729816       101.4935 
 371   0.0000       3.769593       102.5759 
 372   0.0000       3.780835       102.8818 
 373   0.0000       3.782774       102.9345 
 374   0.0000       3.802882       103.4817 
 375   0.0000       3.827561       104.1532 
 376   0.0000       3.834499       104.3420 
 377   0.0000       3.862625       105.1074 
 378   0.0000       3.878637       105.5431 
 379   0.0000       3.909023       106.3699 
 380   0.0000       3.927846       106.8821 
 381   0.0000       3.948873       107.4543 
 382   0.0000       3.952599       107.5557 
 383   0.0000       3.989082       108.5484 
 384   0.0000       3.991272       108.6080 
 385   0.0000       4.020774       109.4108 
 386   0.0000       4.038154       109.8837 
 387   0.0000       4.057824       110.4190 
 388   0.0000       4.065969       110.6406 
 389   0.0000       4.077477       110.9538 
 390   0.0000       4.139391       112.6386 
 391   0.0000       4.172221       113.5319 
 392   0.0000       4.189761       114.0092 
 393   0.0000       4.194777       114.1457 
 394   0.0000       4.206459       114.4636 
 395   0.0000       4.224662       114.9589 
 396   0.0000       4.244568       115.5006 
 397   0.0000       4.282944       116.5448 
 398   0.0000       4.309655       117.2717 
 399   0.0000       4.318934       117.5242 
 400   0.0000       4.348145       118.3190 
 401   0.0000       4.378481       119.1445 
 402   0.0000       4.427541       120.4795 
 403   0.0000       4.465627       121.5159 
 404   0.0000       4.468098       121.5831 
 405   0.0000       4.481376       121.9444 
 406   0.0000       4.490409       122.1902 
 407   0.0000       4.505528       122.6016 
 408   0.0000       4.547167       123.7347 
 409   0.0000       4.578772       124.5947 
 410   0.0000       4.590587       124.9162 
 411   0.0000       4.599376       125.1554 
 412   0.0000       4.673296       127.1669 
 413   0.0000       4.695526       127.7718 
 414   0.0000       4.729182       128.6876 
 415   0.0000       4.777936       130.0142 
 416   0.0000       4.788215       130.2939 
 417   0.0000       4.819220       131.1376 
 418   0.0000       4.867157       132.4421 
 419   0.0000       4.870259       132.5265 
 420   0.0000       4.899330       133.3175 
 421   0.0000       4.948823       134.6643 
 422   0.0000       4.968461       135.1987 
 423   0.0000       4.992647       135.8568 
 424   0.0000       5.010239       136.3355 
 425   0.0000       5.054540       137.5410 
 426   0.0000       5.100503       138.7917 
 427   0.0000       5.121694       139.3684 
 428   0.0000       5.157202       140.3346 
 429   0.0000       5.182688       141.0281 
 430   0.0000       5.225190       142.1847 
 431   0.0000       5.237203       142.5115 
 432   0.0000       5.262567       143.2017 
 433   0.0000       5.289249       143.9278 
 434   0.0000       5.303617       144.3188 
 435   0.0000       5.327467       144.9678 
 436   0.0000       5.357230       145.7777 
 437   0.0000       5.364519       145.9760 
 438   0.0000       5.398880       146.9110 
 439   0.0000       5.403555       147.0382 
 440   0.0000       5.409722       147.2060 
 441   0.0000       5.419625       147.4755 
 442   0.0000       5.431223       147.7911 
 443   0.0000       5.486755       149.3022 
 444   0.0000       5.514478       150.0566 
 445   0.0000       5.518479       150.1655 
 446   0.0000       5.553031       151.1057 
 447   0.0000       5.577175       151.7626 
 448   0.0000       5.604964       152.5188 
 449   0.0000       5.666427       154.1913 
 450   0.0000       5.677759       154.4997 
 451   0.0000       5.713721       155.4783 
 452   0.0000       5.726903       155.8369 
 453   0.0000       5.772528       157.0785 
 454   0.0000       5.778123       157.2307 
 455   0.0000       5.785194       157.4231 
 456   0.0000       5.886753       160.1867 
 457   0.0000       5.922093       161.1484 
 458   0.0000       5.947208       161.8318 
 459   0.0000       5.983458       162.8182 
 460   0.0000       6.035232       164.2270 
 461   0.0000       6.182668       168.2389 
 462   0.0000       6.194042       168.5485 
 463   0.0000       6.201932       168.7632 
 464   0.0000       6.241283       169.8340 
 465   0.0000       6.279477       170.8732 
 466   0.0000       6.381900       173.6603 
 467   0.0000       6.388483       173.8395 
 468   0.0000       6.504241       176.9894 
 469   0.0000       6.516262       177.3165 
 470   0.0000       6.551070       178.2637 
 471   0.0000       6.555588       178.3866 
 472   0.0000       6.613502       179.9625 
 473   0.0000       6.642483       180.7512 
 474   0.0000       6.652432       181.0219 
 475   0.0000       6.694593       182.1691 
 476   0.0000       6.750505       183.6906 
 477   0.0000       6.755455       183.8253 
 478   0.0000       6.812397       185.3747 
 479   0.0000       6.885789       187.3718 
 480   0.0000       6.927108       188.4962 
 481   0.0000       6.951462       189.1589 
 482   0.0000       6.966619       189.5713 
 483   0.0000       7.031719       191.3428 
 484   0.0000       7.134705       194.1452 
 485   0.0000       7.145644       194.4429 
 486   0.0000       7.157710       194.7712 
 487   0.0000       7.175991       195.2686 
 488   0.0000       7.214646       196.3205 
 489   0.0000       7.279915       198.0966 
 490   0.0000       7.312566       198.9850 
 491   0.0000       7.389544       201.0797 
 492   0.0000      22.484101       611.8235 
 493   0.0000      22.590139       614.7089 
 494   0.0000      22.597861       614.9191 
 495   0.0000      22.773050       619.6862 
 496   0.0000      22.885656       622.7503 
 497   0.0000      23.447641       638.0428 
 498   0.0000      23.503765       639.5700 
 499   0.0000      23.596134       642.0834 
 500   0.0000      32.711184       890.1166 
 501   0.0000      32.782405       892.0546 
 502   0.0000      44.145005      1201.2467 
 503   0.0000      44.176358      1202.0998 
 504   0.0000      44.215354      1203.1610 
 505   0.0000      44.235621      1203.7124 

                 SPIN DOWN ORBITALS
  NO   OCC          E(Eh)            E(eV) 
   0   1.0000     -19.491586      -530.3930 
   1   1.0000     -19.478874      -530.0471 
   2   1.0000     -19.414501      -528.2954 
   3   1.0000     -19.407608      -528.1079 
   4   1.0000     -14.665492      -399.0683 
   5   1.0000     -14.634215      -398.2172 
   6   1.0000     -10.546831      -286.9939 
   7   1.0000     -10.525728      -286.4196 
   8   1.0000     -10.477431      -285.1054 
   9   1.0000     -10.475656      -285.0571 
  10   1.0000     -10.455112      -284.4981 
  11   1.0000     -10.449683      -284.3503 
  12   1.0000     -10.420905      -283.5673 
  13   1.0000     -10.410773      -283.2915 
  14   1.0000      -1.052306       -28.6347 
  15   1.0000      -1.034891       -28.1608 
  16   1.0000      -0.983897       -26.7732 
  17   1.0000      -0.924925       -25.1685 
  18   1.0000      -0.902668       -24.5629 
  19   1.0000      -0.887259       -24.1436 
  20   1.0000      -0.772584       -21.0231 
  21   1.0000      -0.730322       -19.8731 
  22   1.0000      -0.685221       -18.6458 
  23   1.0000      -0.646647       -17.5962 
  24   1.0000      -0.581078       -15.8119 
  25   1.0000      -0.547613       -14.9013 
  26   1.0000      -0.521947       -14.2029 
  27   1.0000      -0.499346       -13.5879 
  28   1.0000      -0.460484       -12.5304 
  29   1.0000      -0.447075       -12.1655 
  30   1.0000      -0.430920       -11.7259 
  31   1.0000      -0.421974       -11.4825 
  32   1.0000      -0.416367       -11.3299 
  33   1.0000      -0.402406       -10.9500 
  34   1.0000      -0.389824       -10.6076 
  35   1.0000      -0.381945       -10.3932 
  36   1.0000      -0.373057       -10.1514 
  37   1.0000      -0.363261        -9.8848 
  38   1.0000      -0.352507        -9.5922 
  39   1.0000      -0.338954        -9.2234 
  40   1.0000      -0.336089        -9.1454 
  41   1.0000      -0.324830        -8.8391 
  42   1.0000      -0.320070        -8.7095 
  43   1.0000      -0.305279        -8.3071 
  44   1.0000      -0.298869        -8.1326 
  45   1.0000      -0.287294        -7.8177 
  46   1.0000      -0.232421        -6.3245 
  47   1.0000      -0.224630        -6.1125 
  48   1.0000      -0.216667        -5.8958 
  49   1.0000      -0.198503        -5.4015 
  50   1.0000      -0.168174        -4.5762 
  51   1.0000      -0.156512        -4.2589 
  52   1.0000      -0.151421        -4.1204 
  53   0.0000       0.097237         2.6460 
  54   0.0000       0.151181         4.1138 
  55   0.0000       0.158777         4.3205 
  56   0.0000       0.171720         4.6727 
  57   0.0000       0.191183         5.2023 
  58   0.0000       0.204861         5.5745 
  59   0.0000       0.209265         5.6944 
  60   0.0000       0.224306         6.1037 
  61   0.0000       0.236514         6.4359 
  62   0.0000       0.242653         6.6029 
  63   0.0000       0.247067         6.7230 
  64   0.0000       0.250936         6.8283 
  65   0.0000       0.257022         6.9939 
  66   0.0000       0.268269         7.3000 
  67   0.0000       0.272390         7.4121 
  68   0.0000       0.278452         7.5771 
  69   0.0000       0.288273         7.8443 
  70   0.0000       0.293623         7.9899 
  71   0.0000       0.309510         8.4222 
  72   0.0000       0.326655         8.8887 
  73   0.0000       0.329162         8.9570 
  74   0.0000       0.331539         9.0216 
  75   0.0000       0.335750         9.1362 
  76   0.0000       0.354482         9.6459 
  77   0.0000       0.360808         9.8181 
  78   0.0000       0.361153         9.8275 
  79   0.0000       0.375399        10.2151 
  80   0.0000       0.381150        10.3716 
  81   0.0000       0.390473        10.6253 
  82   0.0000       0.399675        10.8757 
  83   0.0000       0.408039        11.1033 
  84   0.0000       0.409171        11.1341 
  85   0.0000       0.426065        11.5938 
  86   0.0000       0.430335        11.7100 
  87   0.0000       0.443762        12.0754 
  88   0.0000       0.461989        12.5714 
  89   0.0000       0.468507        12.7487 
  90   0.0000       0.476397        12.9634 
  91   0.0000       0.480262        13.0686 
  92   0.0000       0.486099        13.2274 
  93   0.0000       0.498617        13.5681 
  94   0.0000       0.500450        13.6179 
  95   0.0000       0.511050        13.9064 
  96   0.0000       0.516851        14.0642 
  97   0.0000       0.523736        14.2516 
  98   0.0000       0.531277        14.4568 
  99   0.0000       0.534283        14.5386 
 100   0.0000       0.541156        14.7256 
 101   0.0000       0.546702        14.8765 
 102   0.0000       0.551776        15.0146 
 103   0.0000       0.562760        15.3135 
 104   0.0000       0.569746        15.5036 
 105   0.0000       0.577531        15.7154 
 106   0.0000       0.581277        15.8174 
 107   0.0000       0.593505        16.1501 
 108   0.0000       0.602542        16.3960 
 109   0.0000       0.606258        16.4971 
 110   0.0000       0.612243        16.6600 
 111   0.0000       0.615108        16.7379 
 112   0.0000       0.620110        16.8741 
 113   0.0000       0.629615        17.1327 
 114   0.0000       0.634549        17.2670 
 115   0.0000       0.643506        17.5107 
 116   0.0000       0.659793        17.9539 
 117   0.0000       0.661447        17.9989 
 118   0.0000       0.665205        18.1011 
 119   0.0000       0.674943        18.3661 
 120   0.0000       0.677661        18.4401 
 121   0.0000       0.683591        18.6015 
 122   0.0000       0.687717        18.7137 
 123   0.0000       0.695770        18.9329 
 124   0.0000       0.711345        19.3567 
 125   0.0000       0.716702        19.5025 
 126   0.0000       0.723200        19.6793 
 127   0.0000       0.727134        19.7863 
 128   0.0000       0.731546        19.9064 
 129   0.0000       0.742744        20.2111 
 130   0.0000       0.765854        20.8399 
 131   0.0000       0.771968        21.0063 
 132   0.0000       0.780392        21.2355 
 133   0.0000       0.786180        21.3930 
 134   0.0000       0.798614        21.7314 
 135   0.0000       0.811035        22.0694 
 136   0.0000       0.827695        22.5227 
 137   0.0000       0.840132        22.8611 
 138   0.0000       0.843937        22.9647 
 139   0.0000       0.867440        23.6042 
 140   0.0000       0.876193        23.8424 
 141   0.0000       0.876826        23.8596 
 142   0.0000       0.893851        24.3229 
 143   0.0000       0.899400        24.4739 
 144   0.0000       0.907648        24.6984 
 145   0.0000       0.923190        25.1213 
 146   0.0000       0.945485        25.7279 
 147   0.0000       0.961457        26.1626 
 148   0.0000       0.978591        26.6288 
 149   0.0000       0.989011        26.9124 
 150   0.0000       0.999453        27.1965 
 151   0.0000       1.001883        27.2626 
 152   0.0000       1.021410        27.7940 
 153   0.0000       1.035655        28.1816 
 154   0.0000       1.045632        28.4531 
 155   0.0000       1.052483        28.6395 
 156   0.0000       1.064877        28.9768 
 157   0.0000       1.070953        29.1421 
 158   0.0000       1.082484        29.4559 
 159   0.0000       1.088561        29.6213 
 160   0.0000       1.100823        29.9549 
 161   0.0000       1.113291        30.2942 
 162   0.0000       1.118123        30.4257 
 163   0.0000       1.133713        30.8499 
 164   0.0000       1.155280        31.4368 
 165   0.0000       1.167385        31.7662 
 166   0.0000       1.172325        31.9006 
 167   0.0000       1.184469        32.2310 
 168   0.0000       1.208978        32.8980 
 169   0.0000       1.224969        33.3331 
 170   0.0000       1.242981        33.8232 
[...]
     16      -0.003150   0.000039   0.000067  -0.000085   0.044857   0.000056
     17       0.000132  -0.000005  -0.000000   0.000015  -0.004255   0.000018
     18      -0.062071   0.001182   0.000880  -0.001947   0.841554   0.000871
     19       0.034544  -0.000664  -0.000645   0.001181  -0.526260  -0.000753
     20      -0.001506   0.000100   0.000015  -0.000024   0.049637  -0.000048
     21      -0.000829  -0.000002   0.000078   0.000000   0.001077  -0.000128
     22       0.000365   0.000005  -0.000075  -0.000013   0.003702  -0.000013
     23      -0.000492   0.000008   0.000043  -0.000001   0.000329  -0.000055
     24       0.000068  -0.000026  -0.000066   0.000016   0.000295   0.000043
     25      -0.000529   0.000013  -0.000038  -0.000004  -0.000636  -0.000063
     26      -0.000096  -0.000012  -0.000046  -0.000016   0.000067   0.000069
     27       0.000124  -0.000036  -0.000010   0.000020   0.000064   0.000019
     28       0.000048  -0.000002   0.000023   0.000002  -0.001029   0.000010
     29       0.000052  -0.000004  -0.000023   0.000002   0.000022   0.000015
     30      -0.000389  -0.000369  -0.000438  -0.004204  -0.000182   0.359716
     31      -0.000030  -0.000616   0.000140   0.000810   0.001165  -0.100432
     32       0.001196  -0.000271   0.000228   0.003773   0.000915  -0.924698
     33       0.000105   0.000157   0.000002   0.001439   0.000085  -0.001089
     34       0.000132  -0.001066  -0.000004   0.000949   0.000111  -0.000241
     35       0.000133   0.000409  -0.000004   0.002342   0.000226   0.000174
     36      -0.000264   0.000032  -0.000332   0.000063   0.000242  -0.000508
     37      -0.000419   0.000024  -0.000085   0.000025   0.000271  -0.000359
     38       0.000281  -0.000028  -0.000846  -0.000022  -0.000360   0.000253
     39       0.004723  -0.000158   0.002233  -0.000189  -0.001393   0.001607
     40       0.005792  -0.000278   0.002391  -0.000263  -0.004320   0.002588
     41      -0.004888   0.000315   0.004315   0.000272   0.005867  -0.003573
     42      -0.000196  -0.000010   0.000002  -0.000114   0.000056   0.000090
     43      -0.000174   0.000169  -0.000001  -0.000248  -0.000045  -0.000688
     44      -0.000055  -0.000034   0.000023  -0.000617  -0.000098  -0.001576
     45       0.000053  -0.000359   0.000198   0.017524   0.000060   0.000016
     46      -0.000040  -0.084700   0.000531   0.035766   0.000179   0.000315
     47       0.000147   0.035945   0.000876   0.084701   0.000140   0.000275
     48      -0.000944  -0.304091  -0.001060  -0.145780   0.000137  -0.000894
     49       0.001489   0.462868   0.001888   0.246015   0.000080   0.000094
     50      -0.001397  -0.481743  -0.001628  -0.226239   0.000050  -0.000581
     51      -0.000189   0.299170  -0.002706  -0.202758  -0.000874  -0.000528
     52      -0.000434   0.592100  -0.005552  -0.417612  -0.001761  -0.001274
     53       0.000010   0.096109  -0.000655  -0.045787  -0.000254  -0.000157
     54       0.000046   0.008905   0.001380   0.127768   0.000349  -0.000930
     55      -0.000103  -0.032832  -0.002778  -0.259026  -0.000484  -0.001501
     56      -0.000267  -0.047439  -0.008111  -0.746376  -0.001646  -0.005739
     57      -0.000284   0.000154   0.076893  -0.000829  -0.000118   0.000074
     58       0.000380   0.000064   0.046608  -0.000484   0.000004  -0.000040
     59       0.000395  -0.000042  -0.022236   0.000224   0.000117   0.000050
     60      -0.000237   0.000065   0.031116  -0.000295  -0.000034   0.000100
     61       0.000178  -0.000365  -0.312151   0.003018   0.000458   0.000378
     62      -0.000321   0.000140   0.120500  -0.001165  -0.000218  -0.000238
     63      -0.000226  -0.001430  -0.834383   0.009298   0.000799  -0.000451
     64       0.000061  -0.000641  -0.371763   0.004117   0.000281  -0.000142
     65      -0.000007   0.000053   0.037125  -0.000442   0.000038   0.000074
     66       0.004711  -0.000260  -0.110918   0.001332   0.000801   0.000032
     67      -0.004432   0.000277   0.127708  -0.001480  -0.000777   0.000136
     68      -0.005249   0.000287   0.118078  -0.001365  -0.000950  -0.000139
     69       0.005705  -0.000135   0.000072   0.000881   0.000541   0.003945
     70      -0.031972  -0.000358  -0.000066  -0.001948   0.000966  -0.006129
     71      -0.011219  -0.000147   0.000149  -0.000711  -0.000761  -0.000853
     72       0.823154  -0.001239   0.001595  -0.000787   0.053985   0.001320
     73      -0.238687   0.000408  -0.000416   0.000346  -0.018377  -0.000026
     74      -0.120940   0.000151  -0.000224  -0.000035  -0.008532  -0.000297
     75       0.227064  -0.000076   0.000264  -0.000679   0.018727   0.000058
     76       0.046434  -0.000064  -0.000017  -0.000007   0.007736  -0.000502
     77       0.427048  -0.000181   0.000528  -0.001502   0.035246   0.001340


-----------
IR SPECTRUM
-----------

 Mode   freq       eps      Int      T**2         TX        TY        TZ
       cm**-1   L/(mol*cm) km/mol    a.u.
----------------------------------------------------------------------------
  6:     38.36   0.000444    2.24  0.003609  ( 0.059300  0.002110  0.009407)
  7:     66.86   0.000511    2.58  0.002387  (-0.029196 -0.001894  0.039132)
  8:     77.87   0.001121    5.67  0.004494  (-0.013776 -0.047577  0.045177)
  9:     94.38   0.000724    3.66  0.002395  (-0.005183 -0.048622  0.002019)
 10:    104.71   0.001380    6.98  0.004114  (-0.044536  0.042188  0.018716)
 11:    135.88   0.000534    2.70  0.001227  (-0.028204 -0.020762 -0.000911)
 12:    150.82   0.000036    0.18  0.000074  ( 0.006062  0.005368 -0.002842)
 13:    161.22   0.002615   13.21  0.005061  (-0.013371  0.036483 -0.059593)
 14:    179.27   0.003363   17.00  0.005855  (-0.015356  0.043571 -0.060994)
 15:    196.96   0.006175   31.21  0.009784  ( 0.022859  0.089037 -0.036524)
 16:    207.44   0.002226   11.25  0.003348  (-0.044804 -0.031575  0.018541)
 17:    251.51   0.006830   34.51  0.008474  (-0.046849 -0.075250  0.024827)
 18:    273.45   0.002114   10.68  0.002413  ( 0.032365 -0.006672  0.036343)
 19:    306.30   0.001507    7.62  0.001535  (-0.006880  0.036965 -0.011025)
 20:    353.00   0.003416   17.26  0.003019  (-0.007827  0.034621 -0.041948)
 21:    392.01   0.002799   14.15  0.002228  ( 0.042370 -0.004550  0.020310)
 22:    434.78   0.001610    8.14  0.001155  (-0.013261 -0.030991  0.004368)
 23:    492.26   0.001330    6.72  0.000843  ( 0.023855 -0.001677 -0.016468)
 24:    518.60   0.002570   12.99  0.001547  (-0.033179 -0.020877  0.003134)
 25:    555.17   0.009903   50.05  0.005566  (-0.016554  0.072479  0.006258)
 26:    577.22   0.007605   38.43  0.004112  (-0.023109 -0.054837 -0.023885)
 27:    622.26   0.001147    5.79  0.000575  (-0.004915  0.023429 -0.001393)
 28:    659.62   0.000129    0.65  0.000061  (-0.002850 -0.000992  0.007211)
 29:    664.15   0.002384   12.05  0.001120  ( 0.020902  0.020829 -0.015795)
 30:    692.35   0.001184    5.99  0.000534  ( 0.021350  0.008603  0.001991)
 31:    770.92   0.002636   13.32  0.001067  (-0.001271  0.004823 -0.032282)
 32:    808.14   0.005123   25.89  0.001978  ( 0.008684  0.028985 -0.032602)
 33:    852.89   0.015195   76.79  0.005560  (-0.033188 -0.066403 -0.006999)
 34:    901.95   0.005718   28.90  0.001978  ( 0.043872 -0.006922  0.002396)
 35:    936.64   0.000918    4.64  0.000306  ( 0.009952  0.013940  0.003519)
 36:    995.81   0.002735   13.82  0.000857  (-0.018093  0.016985 -0.015531)
 37:   1021.78   0.002501   12.64  0.000764  (-0.000048  0.027176  0.005015)
 38:   1034.11   0.007967   40.26  0.002404  ( 0.004102  0.048093 -0.008621)
 39:   1036.04   0.024436  123.49  0.007360  (-0.044438  0.069568 -0.023367)
 40:   1065.78   0.001551    7.84  0.000454  ( 0.002374  0.020800 -0.003977)
 41:   1101.23   0.000288    1.46  0.000082  ( 0.005333  0.007091 -0.001728)
 42:   1143.92   0.000646    3.27  0.000176  ( 0.002548  0.010791 -0.007309)
 43:   1152.80   0.000964    4.87  0.000261  (-0.012828 -0.007988  0.005710)
 44:   1163.67   0.000784    3.96  0.000210  ( 0.013722 -0.001545  0.004413)
 45:   1191.73   0.002367   11.96  0.000620  ( 0.020010  0.010889 -0.010037)
 46:   1232.70   0.003291   16.63  0.000833  ( 0.024202  0.015405 -0.003190)
 47:   1254.38   0.000866    4.37  0.000215  ( 0.011001 -0.000180  0.009709)
 48:   1302.14   0.003383   17.10  0.000811  (-0.026449 -0.010423 -0.001621)
 49:   1324.92   0.021328  107.78  0.005023  ( 0.061055  0.021923  0.028549)
 50:   1343.56   0.002454   12.40  0.000570  (-0.002499 -0.004495 -0.023316)
 51:   1379.05   0.017984   90.89  0.004070  ( 0.051191 -0.017724  0.033689)
 52:   1399.08   0.005253   26.55  0.001172  (-0.033340  0.006452  0.004310)
 53:   1402.96   0.012827   64.82  0.002853  ( 0.037035 -0.009393  0.037328)
 54:   1419.08   0.012060   60.95  0.002652  ( 0.038569  0.010144  0.032582)
 55:   1455.66   0.003669   18.54  0.000786  (-0.001304  0.008379 -0.026731)
 56:   1478.35   0.001023    5.17  0.000216  ( 0.001013 -0.013979  0.004415)
 57:   1488.15   0.013360   67.52  0.002802  (-0.019739 -0.010776 -0.047915)
 58:   1489.10   0.002429   12.28  0.000509  ( 0.013961 -0.015012 -0.009427)
 59:   1491.74   0.000879    4.44  0.000184  (-0.002144 -0.005878  0.012034)
 60:   1507.50   0.000776    3.92  0.000161  ( 0.003178  0.012125 -0.001867)
 61:   1555.21   0.096860  489.49  0.019436  ( 0.125211  0.036853  0.048987)
 62:   1657.46   0.096062  485.46  0.018086  (-0.055145 -0.122588  0.004219)
 63:   1691.82   0.084660  427.84  0.015616  (-0.044706  0.104743 -0.051442)
 64:   1732.10   0.058080  293.51  0.010464  ( 0.088439  0.019108 -0.047721)
 65:   1772.57   0.059971  303.07  0.010558  ( 0.010760  0.041734  0.093276)
 66:   2579.84   0.319228  1613.25  0.038615  ( 0.071348  0.147390 -0.108629)
 67:   3045.20   0.003921   19.81  0.000402  ( 0.009542 -0.015688  0.008039)
 68:   3059.45   0.009216   46.57  0.000940  ( 0.014287  0.003967  0.026836)
 69:   3070.28   0.002244   11.34  0.000228  (-0.002164  0.009377  0.011639)
 70:   3084.68   0.001513    7.64  0.000153  ( 0.011845 -0.000337 -0.003549)
 71:   3117.77   0.005527   27.93  0.000553  (-0.012397  0.019986 -0.000188)
 72:   3125.82   0.000938    4.74  0.000094  (-0.004541  0.008306 -0.002010)
 73:   3167.78   0.000878    4.44  0.000087  (-0.001259 -0.008465  0.003643)
 74:   3172.74   0.001738    8.78  0.000171  ( 0.010942  0.006590 -0.002791)
 75:   3174.15   0.002426   12.26  0.000239  ( 0.000388  0.006175  0.014152)
 76:   3206.44   0.002843   14.37  0.000277  (-0.013663  0.009204 -0.002300)
 77:   3611.24   0.019765   99.88  0.001708  (-0.009138 -0.003603 -0.040143)

* The epsilon (eps) is given for a Dirac delta lineshape.
** The dipole moment derivative (T) already includes vibrational overlap.

The first frequency considered to be a vibration is 6
The total number of vibrations considered is 72


--------------------------
THERMOCHEMISTRY AT 298.15K
--------------------------

Temperature         ... 298.15 K
Pressure            ... 1.00 atm
Total Mass          ... 200.19 AMU

Throughout the following assumptions are being made:
  (1) The electronic state is orbitally nondegenerate
      but the spin degeneracy is treated
  (2) There are no thermally accessible electronically excited states
  (3) Hindered rotations indicated by low frequency modes are not
      treated as such but are treated as vibrations and this may
      cause some error
  (4) All equations used are the standard statistical mechanics
      equations for an ideal gas
  (5) All vibrations are strictly harmonic

freq.      38.36  E(vib)   ...       0.54 
freq.      66.86  E(vib)   ...       0.50 
freq.      77.87  E(vib)   ...       0.49 
freq.      94.38  E(vib)   ...       0.47 
freq.     104.71  E(vib)   ...       0.46 
freq.     135.88  E(vib)   ...       0.42 
freq.     150.82  E(vib)   ...       0.40 
freq.     161.22  E(vib)   ...       0.39 
freq.     179.27  E(vib)   ...       0.37 
freq.     196.96  E(vib)   ...       0.35 
freq.     207.44  E(vib)   ...       0.34 
freq.     251.51  E(vib)   ...       0.30 
freq.     273.45  E(vib)   ...       0.29 
freq.     306.30  E(vib)   ...       0.26 
freq.     353.00  E(vib)   ...       0.22 
freq.     392.01  E(vib)   ...       0.20 
freq.     434.78  E(vib)   ...       0.17 
freq.     492.26  E(vib)   ...       0.14 
freq.     518.60  E(vib)   ...       0.13 
freq.     555.17  E(vib)   ...       0.12 
freq.     577.22  E(vib)   ...       0.11 
freq.     622.26  E(vib)   ...       0.09 
freq.     659.62  E(vib)   ...       0.08 
freq.     664.15  E(vib)   ...       0.08 
freq.     692.35  E(vib)   ...       0.07 
freq.     770.92  E(vib)   ...       0.05 
freq.     808.14  E(vib)   ...       0.05 
freq.     852.89  E(vib)   ...       0.04 
freq.     901.95  E(vib)   ...       0.03 
freq.     936.64  E(vib)   ...       0.03 
freq.     995.81  E(vib)   ...       0.02 
freq.    1021.78  E(vib)   ...       0.02 
freq.    1034.11  E(vib)   ...       0.02 
freq.    1036.04  E(vib)   ...       0.02 
freq.    1065.78  E(vib)   ...       0.02 
freq.    1101.23  E(vib)   ...       0.02 
freq.    1143.92  E(vib)   ...       0.01 
freq.    1152.80  E(vib)   ...       0.01 
freq.    1163.67  E(vib)   ...       0.01 
freq.    1191.73  E(vib)   ...       0.01 
freq.    1232.70  E(vib)   ...       0.01 
freq.    1254.38  E(vib)   ...       0.01 
freq.    1302.14  E(vib)   ...       0.01 
freq.    1324.92  E(vib)   ...       0.01 
freq.    1343.56  E(vib)   ...       0.01 
freq.    1379.05  E(vib)   ...       0.01 
freq.    1399.08  E(vib)   ...       0.00 
freq.    1402.96  E(vib)   ...       0.00 
freq.    1419.08  E(vib)   ...       0.00 
freq.    1455.66  E(vib)   ...       0.00 
freq.    1478.35  E(vib)   ...       0.00 
freq.    1488.15  E(vib)   ...       0.00 
freq.    1489.10  E(vib)   ...       0.00 
freq.    1491.74  E(vib)   ...       0.00 
freq.    1507.50  E(vib)   ...       0.00 
freq.    1555.21  E(vib)   ...       0.00 
freq.    1657.46  E(vib)   ...       0.00 
freq.    1691.82  E(vib)   ...       0.00 
freq.    1732.10  E(vib)   ...       0.00 
freq.    1772.57  E(vib)   ...       0.00 
freq.    2579.84  E(vib)   ...       0.00 
freq.    3045.20  E(vib)   ...       0.00 
freq.    3059.45  E(vib)   ...       0.00 
freq.    3070.28  E(vib)   ...       0.00 
freq.    3084.68  E(vib)   ...       0.00 
freq.    3117.77  E(vib)   ...       0.00 
freq.    3125.82  E(vib)   ...       0.00 
freq.    3167.78  E(vib)   ...       0.00 
freq.    3172.74  E(vib)   ...       0.00 
freq.    3174.15  E(vib)   ...       0.00 
freq.    3206.44  E(vib)   ...       0.00 
freq.    3611.24  E(vib)   ...       0.00 

------------
INNER ENERGY
------------

The inner energy is: U= E(el) + E(ZPE) + E(vib) + E(rot) + E(trans)
    E(el)   - is the total energy from the electronic structure calculation
              = E(kin-el) + E(nuc-el) + E(el-el) + E(nuc-nuc)
    E(ZPE)  - the the zero temperature vibrational energy from the frequency calculation
    E(vib)  - the the finite temperature correction to E(ZPE) due to population
              of excited vibrational states
    E(rot)  - is the rotational thermal energy
    E(trans)- is the translational thermal energy

Summary of contributions to the inner energy U:
Electronic energy                ...   -722.54825633 Eh
Zero point energy                ...      0.20543782 Eh     128.91 kcal/mol
Thermal vibrational correction   ...      0.01190415 Eh       7.47 kcal/mol
Thermal rotational correction    ...      0.00141627 Eh       0.89 kcal/mol
Thermal translational correction ...      0.00141627 Eh       0.89 kcal/mol
-----------------------------------------------------------------------
Total thermal energy                   -722.32808182 Eh


Summary of corrections to the electronic energy:
(perhaps to be used in another calculation)
Total thermal correction                  0.01473669 Eh       9.25 kcal/mol
Non-thermal (ZPE) correction              0.20543782 Eh     128.91 kcal/mol
-----------------------------------------------------------------------
Total correction                          0.22017452 Eh     138.16 kcal/mol


--------
ENTHALPY
--------

The enthalpy is H = U + kB*T
                kB is Boltzmann's constant
Total free energy                 ...   -722.32808182 Eh 
Thermal Enthalpy correction       ...      0.00094421 Eh       0.59 kcal/mol
-----------------------------------------------------------------------
Total Enthalpy                    ...   -722.32713761 Eh


Note: Only C1 symmetry has been detected, increase convergence thresholds 
      if your molecule has a higher symmetry. Symmetry factor of 1.0 is   
      used for the rotational entropy correction. 
 

Note: Rotational entropy computed according to Herzberg 
Infrared and Raman Spectra, Chapter V,1, Van Nostrand Reinhold, 1945 
Point Group:  C1, Symmetry Number:   1  
Rotational constants in cm-1:     0.031265     0.014961     0.011462 

Vibrational entropy computed according to the QRRHO of S. Grimme
Chem.Eur.J. 2012 18 9955


-------
ENTROPY
-------

The entropy contributions are T*S = T*(S(el)+S(vib)+S(rot)+S(trans))
     S(el)   - electronic entropy
     S(vib)  - vibrational entropy
     S(rot)  - rotational entropy
     S(trans)- translational entropy
The entropies will be listed as multiplied by the temperature to get
units of energy

Electronic entropy                ...      0.00065446 Eh      0.41 kcal/mol
Vibrational entropy               ...      0.02123583 Eh     13.33 kcal/mol
Rotational entropy                ...      0.01524025 Eh      9.56 kcal/mol
Translational entropy             ...      0.01985430 Eh     12.46 kcal/mol
-----------------------------------------------------------------------
Final entropy term                ...      0.05698484 Eh     35.76 kcal/mol

In case the symmetry of your molecule has not been determined correctly
or in case you have a reason to use a different symmetry number we print 
out the resulting rotational entropy values for sn=1,12 :
 --------------------------------------------------------
|  sn= 1 | S(rot)=       0.01524025 Eh      9.56 kcal/mol|
|  sn= 2 | S(rot)=       0.01458579 Eh      9.15 kcal/mol|
|  sn= 3 | S(rot)=       0.01420296 Eh      8.91 kcal/mol|
|  sn= 4 | S(rot)=       0.01393134 Eh      8.74 kcal/mol|
|  sn= 5 | S(rot)=       0.01372065 Eh      8.61 kcal/mol|
|  sn= 6 | S(rot)=       0.01354850 Eh      8.50 kcal/mol|
|  sn= 7 | S(rot)=       0.01340296 Eh      8.41 kcal/mol|
|  sn= 8 | S(rot)=       0.01327688 Eh      8.33 kcal/mol|
|  sn= 9 | S(rot)=       0.01316567 Eh      8.26 kcal/mol|
|  sn=10 | S(rot)=       0.01306619 Eh      8.20 kcal/mol|
|  sn=11 | S(rot)=       0.01297620 Eh      8.14 kcal/mol|
|  sn=12 | S(rot)=       0.01289405 Eh      8.09 kcal/mol|
 --------------------------------------------------------


-------------------
GIBBS FREE ENERGY
-------------------

The Gibbs free energy is G = H - T*S

Total enthalpy                    ...   -722.32713761 Eh 
Total entropy correction          ...     -0.05698484 Eh    -35.76 kcal/mol
-----------------------------------------------------------------------
Final Gibbs free energy         ...   -722.38412245 Eh

For completeness - the Gibbs free energy minus the electronic energy
G-E(el)                           ...      0.16413389 Eh    103.00 kcal/mol


Timings for individual modules:

Sum of individual times         ...     1472.625 sec (=  24.544 min)
GTO integral calculation        ...       39.377 sec (=   0.656 min)   2.7 %
SCF iterations                  ...      634.697 sec (=  10.578 min)  43.1 %
SCF Gradient evaluation         ...      147.964 sec (=   2.466 min)  10.0 %
Geometry relaxation             ...        0.461 sec (=   0.008 min)   0.0 %
Analytical frequency calculation...      650.127 sec (=  10.835 min)  44.1 %
                             ****ORCA TERMINATED NORMALLY****
TOTAL RUN TIME: 0 days 0 hours 25 minutes 6 seconds 91 msec
