26
Energy: -7.222464167228627E+02
 N        -3.811555340056     -0.030527223673     -0.027607507014
 C        -2.370479402502     -0.175754302050     -0.120611095671
 C        -1.844839292546     -0.188261365878      1.334905490502
 O        -2.583615303850     -0.573950965375      2.239280000679
 C        -1.713638650338      0.857160723549     -1.079054289943
 C        -1.692152182063      2.281357785356     -0.607562553253
 H        -2.599009516816      2.883792288728     -0.648019814273
 C        -0.420799090676      2.954776394599     -0.161557768676
 O         0.549865656941      2.181792576908      0.104492138840
 O        -0.439452680837      4.194269061258     -0.100007537862
 H        -4.154060390075      0.060501462225      0.920250584252
 C        -4.657584992404     -0.427774643394     -1.001271431102
 N        -0.572359389095      0.176192147838      1.518654753724
 H        -0.096527908991      0.814436881205      0.838855717950
 O        -4.292931225905     -0.830428651888     -2.093419864777
 C        -6.143763582720     -0.328353263475     -0.659486655550
 H        -6.625310628869      0.318931961110     -1.401281484472
 H        -6.585488574947     -1.327850145421     -0.747116803039
 H        -6.330874996203      0.068194727771      0.344129492586
 C        -0.033801673872      0.202202219092      2.863872431940
 H        -0.016082410695     -0.806550023690      3.296510154599
 H         0.983739930109      0.601001018671      2.809994339826
 H        -0.638209285055      0.840413011286      3.523883518215
 H        -2.156600946512     -1.174717993428     -0.534080385738
 H        -0.680365829509      0.534904864406     -1.257215790823
 H        -2.265384352515      0.762032474271     -2.025286540918
