
                                 *****************
                                 * O   R   C   A *
                                 *****************

                                            #,                                       
                                            ###                                      
                                            ####                                     
                                            #####                                    
                                            ######                                   
                                           ########,                                 
                                     ,,################,,,,,                         
                               ,,#################################,,                 
                          ,,##########################################,,             
                       ,#########################################, ''#####,          
                    ,#############################################,,   '####,        
                  ,##################################################,,,,####,       
                ,###########''''           ''''###############################       
              ,#####''   ,,,,##########,,,,          '''####'''          '####       
            ,##' ,,,,###########################,,,                        '##       
           ' ,,###''''                  '''############,,,                           
         ,,##''                                '''############,,,,        ,,,,,,###''
      ,#''                                            '''#######################'''  
     '                                                          ''''####''''         
             ,#######,   #######,   ,#######,      ##                                
            ,#'     '#,  ##    ##  ,#'     '#,    #''#        ######   ,####,        
            ##       ##  ##   ,#'  ##            #'  '#       #        #'  '#        
            ##       ##  #######   ##           ,######,      #####,   #    #        
            '#,     ,#'  ##    ##  '#,     ,#' ,#      #,         ##   #,  ,#        
             '#######'   ##     ##  '#######'  #'      '#     #####' # '####'        



                  #######################################################
                  #                        -***-                        #
                  #          Department of theory and spectroscopy      #
                  #    Directorship and core code : Frank Neese         #
                  #        Max Planck Institute fuer Kohlenforschung    #
                  #                Kaiser Wilhelm Platz 1               #
                  #                 D-45470 Muelheim/Ruhr               #
                  #                      Germany                        #
                  #                                                     #
                  #                  All rights reserved                #
                  #                        -***-                        #
                  #######################################################


                         Program Version 5.0.4 -  RELEASE  -


 With contributions from (in alphabetic order):
   Daniel Aravena         : Magnetic Suceptibility
   Michael Atanasov       : Ab Initio Ligand Field Theory (pilot matlab implementation)
   Alexander A. Auer      : GIAO ZORA, VPT2 properties, NMR spectrum
   Ute Becker             : Parallelization
   Giovanni Bistoni       : ED, misc. LED, open-shell LED, HFLD
   Martin Brehm           : Molecular dynamics
   Dmytro Bykov           : SCF Hessian
   Vijay G. Chilkuri      : MRCI spin determinant printing, contributions to CSF-ICE
   Dipayan Datta          : RHF DLPNO-CCSD density
   Achintya Kumar Dutta   : EOM-CC, STEOM-CC
   Dmitry Ganyushin       : Spin-Orbit,Spin-Spin,Magnetic field MRCI
   Miquel Garcia          : C-PCM and meta-GGA Hessian, CC/C-PCM, Gaussian charge scheme
   Yang Guo               : DLPNO-NEVPT2, F12-NEVPT2, CIM, IAO-localization
   Andreas Hansen         : Spin unrestricted coupled pair/coupled cluster methods
   Benjamin Helmich-Paris : MC-RPA, TRAH-SCF, COSX integrals
   Lee Huntington         : MR-EOM, pCC
   Robert Izsak           : Overlap fitted RIJCOSX, COSX-SCS-MP3, EOM
   Marcus Kettner         : VPT2
   Christian Kollmar      : KDIIS, OOCD, Brueckner-CCSD(T), CCSD density, CASPT2, CASPT2-K
   Simone Kossmann        : Meta GGA functionals, TD-DFT gradient, OOMP2, MP2 Hessian
   Martin Krupicka        : Initial AUTO-CI
   Lucas Lang             : DCDCAS
   Marvin Lechner         : AUTO-CI (C++ implementation), FIC-MRCC
   Dagmar Lenk            : GEPOL surface, SMD
   Dimitrios Liakos       : Extrapolation schemes; Compound Job, initial MDCI parallelization
   Dimitrios Manganas     : Further ROCIS development; embedding schemes
   Dimitrios Pantazis     : SARC Basis sets
   Anastasios Papadopoulos: AUTO-CI, single reference methods and gradients
   Taras Petrenko         : DFT Hessian,TD-DFT gradient, ASA, ECA, R-Raman, ABS, FL, XAS/XES, NRVS
   Peter Pinski           : DLPNO-MP2, DLPNO-MP2 Gradient
   Christoph Reimann      : Effective Core Potentials
   Marius Retegan         : Local ZFS, SOC
   Christoph Riplinger    : Optimizer, TS searches, QM/MM, DLPNO-CCSD(T), (RO)-DLPNO pert. Triples
   Tobias Risthaus        : Range-separated hybrids, TD-DFT gradient, RPA, STAB
   Michael Roemelt        : Original ROCIS implementation
   Masaaki Saitow         : Open-shell DLPNO-CCSD energy and density
   Barbara Sandhoefer     : DKH picture change effects
   Avijit Sen             : IP-ROCIS
   Kantharuban Sivalingam : CASSCF convergence, NEVPT2, FIC-MRCI
   Bernardo de Souza      : ESD, SOC TD-DFT
   Georgi Stoychev        : AutoAux, RI-MP2 NMR, DLPNO-MP2 response
   Willem Van den Heuvel  : Paramagnetic NMR
   Boris Wezisla          : Elementary symmetry handling
   Frank Wennmohs         : Technical directorship


 We gratefully acknowledge several colleagues who have allowed us to
 interface, adapt or use parts of their codes:
   Stefan Grimme, W. Hujo, H. Kruse, P. Pracht,  : VdW corrections, initial TS optimization,
                  C. Bannwarth, S. Ehlert          DFT functionals, gCP, sTDA/sTD-DF
   Ed Valeev, F. Pavosevic, A. Kumar             : LibInt (2-el integral package), F12 methods
   Garnet Chan, S. Sharma, J. Yang, R. Olivares  : DMRG
   Ulf Ekstrom                                   : XCFun DFT Library
   Mihaly Kallay                                 : mrcc  (arbitrary order and MRCC methods)
   Jiri Pittner, Ondrej Demel                    : Mk-CCSD
   Frank Weinhold                                : gennbo (NPA and NBO analysis)
   Christopher J. Cramer and Donald G. Truhlar   : smd solvation model
   Lars Goerigk                                  : TD-DFT with DH, B97 family of functionals
   V. Asgeirsson, H. Jonsson                     : NEB implementation
   FAccTs GmbH                                   : IRC, NEB, NEB-TS, DLPNO-Multilevel, CI-OPT
                                                   MM, QMMM, 2- and 3-layer-ONIOM, Crystal-QMMM,
                                                   LR-CPCM, SF, NACMEs, symmetry and pop. for TD-DFT,
                                                   nearIR, NL-DFT gradient (VV10), updates on ESD,
                                                   ML-optimized integration grids
   S Lehtola, MJT Oliveira, MAL Marques          : LibXC Library
   Liviu Ungur et al                             : ANISO software


 Your calculation uses the libint2 library for the computation of 2-el integrals
 For citations please refer to: http://libint.valeyev.net

 Your ORCA version has been built with support for libXC version: 5.1.0
 For citations please refer to: https://tddft.org/programs/libxc/

 This ORCA versions uses:
   CBLAS   interface :  Fast vector & matrix operations
   LAPACKE interface :  Fast linear algebra routines
   SCALAPACK package :  Parallel linear algebra routines
   Shared memory     :  Shared parallel matrices
   BLAS/LAPACK       :  OpenBLAS 0.3.15  USE64BITINT DYNAMIC_ARCH NO_AFFINITY Zen SINGLE_THREADED
        Core in use  :  Zen
   Copyright (c) 2011-2014, The OpenBLAS Project




***************************************
The coordinates will be read from file: model.xyz
***************************************


================================================================================

----- Orbital basis set information -----
Your calculation utilizes the basis: EPR-II
   V. Barone, in Recent Advances in Density Functional Methods, Part 1 (ed. D. P. Chong), World Scientific, Singapore, 1995, p. 287.

----- AuxJ basis set information -----
Your calculation utilizes the auxiliary basis: def2/J
   F. Weigend, Phys. Chem. Chem. Phys. 8, 1057 (2006).

================================================================================
                                        WARNINGS
                       Please study these warnings very carefully!
================================================================================


WARNING: your system is open-shell and RHF/RKS was chosen
  ===> : WILL SWITCH to UHF/UKS


WARNING: Geometry Optimization
  ===> : Switching off AutoStart
         For restart on a previous wavefunction, please use MOREAD

INFO   : the flag for use of the SHARK integral package has been found!

================================================================================
                                       INPUT FILE
================================================================================
NAME = opt.inp
|  1> ! B3LYP EPR-II OPT
|  2> %pal nprocs 16 end
|  3> *XYZFile -1 2 model.xyz
|  4> 
|  5>                          ****END OF INPUT****
================================================================================

                       *****************************
                       * Geometry Optimization Run *
                       *****************************

Geometry optimization settings:
Update method            Update   .... BFGS
Choice of coordinates    CoordSys .... Z-matrix Internals
Initial Hessian          InHess   .... Almoef's Model

Convergence Tolerances:
Energy Change            TolE     ....  5.0000e-06 Eh
Max. Gradient            TolMAXG  ....  3.0000e-04 Eh/bohr
RMS Gradient             TolRMSG  ....  1.0000e-04 Eh/bohr
Max. Displacement        TolMAXD  ....  4.0000e-03 bohr
RMS Displacement         TolRMSD  ....  2.0000e-03 bohr
Strict Convergence                ....  False
------------------------------------------------------------------------------
                        ORCA OPTIMIZATION COORDINATE SETUP
------------------------------------------------------------------------------

The optimization will be done in new redundant internal coordinates
Making redundant internal coordinates   ...  (new redundants) done
Evaluating the initial hessian          ...  (Almloef) done
Evaluating the coordinates              ...  done
Calculating the B-matrix                .... done
Calculating the G-matrix                .... done
Diagonalizing the G-matrix              .... done
Small eigenvalue found = 7.369e-03
Small eigenvalue found = 1.295e-02
Small eigenvalue found = 1.682e-02
The first mode is                       ....   46
The number of degrees of freedom        ....   72

    -----------------------------------------------------------------
                    Redundant Internal Coordinates


    -----------------------------------------------------------------
         Definition                    Initial Value    Approx d2E/dq
    -----------------------------------------------------------------
      1. B(C   1,N   0)                  1.4514         0.446666   
      2. B(C   2,C   1)                  1.5476         0.350220   
      3. B(O   3,C   2)                  1.2298         1.007961   
      4. B(C   4,C   1)                  1.5547         0.341220   
      5. B(C   5,C   4)                  1.5004         0.416537   
      6. B(H   6,C   5)                  1.0895         0.360796   
      7. B(C   7,C   5)                  1.5062         0.407651   
      8. B(O   8,C   7)                  1.2690         0.872671   
      9. B(O   9,C   7)                  1.2412         0.966807   
     10. B(H  10,N   0)                  1.0119         0.429629   
     11. B(C  11,N   0)                  1.3497         0.648976   
     12. B(N  12,C   2)                  1.3363         0.681541   
     13. B(H  13,N  12)                  1.0469         0.377920   
     14. B(O  14,C  11)                  1.2198         1.045761   
     15. B(C  15,C  11)                  1.5282         0.376038   
     16. B(H  16,C  15)                  1.0960         0.352303   
     17. B(H  17,C  15)                  1.0963         0.351909   
     18. B(H  18,C  15)                  1.0952         0.353261   
     19. B(C  19,N  12)                  1.4493         0.450135   
     20. B(H  20,C  19)                  1.0978         0.349983   
     21. B(H  21,C  19)                  1.0942         0.354551   
     22. B(H  22,C  19)                  1.0992         0.348136   
     23. B(H  23,C   1)                  1.1021         0.344441   
     24. B(H  24,C   4)                  1.0969         0.351055   
     25. B(H  25,C   4)                  1.0995         0.347791   
     26. A(C   1,N   0,C  11)          123.1425         0.407407   
     27. A(H  10,N   0,C  11)          119.3431         0.361031   
     28. A(C   1,N   0,H  10)          113.8966         0.338975   
     29. A(N   0,C   1,H  23)          107.9043         0.329582   
     30. A(C   2,C   1,C   4)          116.2118         0.353885   
     31. A(C   2,C   1,H  23)          106.2368         0.318584   
     32. A(N   0,C   1,C   4)          113.1119         0.366574   
     33. A(C   4,C   1,H  23)          106.7947         0.317235   
     34. A(N   0,C   1,C   2)          106.1282         0.368215   
     35. A(O   3,C   2,N  12)          123.8094         0.476077   
     36. A(C   1,C   2,N  12)          116.7785         0.396237   
     37. A(C   1,C   2,O   3)          119.3491         0.424691   
     38. A(C   1,C   4,H  25)          105.1334         0.317735   
     39. A(C   5,C   4,H  24)          108.4464         0.328804   
     40. A(C   1,C   4,H  24)          107.6333         0.318219   
     41. A(C   5,C   4,H  25)          111.0860         0.328298   
     42. A(C   1,C   4,C   5)          116.2945         0.364488   
     43. A(H  24,C   4,H  25)          107.9092         0.288107   
     44. A(C   4,C   5,C   7)          121.9736         0.375806   
     45. A(C   4,C   5,H   6)          120.0858         0.330294   
     46. A(H   6,C   5,C   7)          117.7979         0.329119   
     47. A(O   8,C   7,O   9)          127.5452         0.494507   
     48. A(C   5,C   7,O   9)          116.6465         0.433166   
     49. A(C   5,C   7,O   8)          115.8079         0.425278   
     50. A(O  14,C  11,C  15)          120.8270         0.432994   
     51. A(N   0,C  11,C  15)          115.4112         0.397782   
     52. A(N   0,C  11,O  14)          123.7580         0.475014   
     53. A(H  13,N  12,C  19)          115.0183         0.332249   
     54. A(C   2,N  12,C  19)          119.1029         0.411519   
     55. A(C   2,N  12,H  13)          120.6506         0.356193   
     56. A(H  17,C  15,H  18)          109.5435         0.288921   
     57. A(H  16,C  15,H  18)          109.3492         0.288972   
     58. A(C  11,C  15,H  18)          113.2438         0.323649   
     59. A(H  16,C  15,H  17)          107.8984         0.288799   
     60. A(C  11,C  15,H  17)          108.3404         0.323445   
     61. A(C  11,C  15,H  16)          108.3214         0.323504   
     62. A(H  20,C  19,H  21)          109.8344         0.288838   
     63. A(N  12,C  19,H  21)          107.8427         0.331587   
     64. A(N  12,C  19,H  20)          110.8134         0.330876   
     65. A(H  21,C  19,H  22)          109.2252         0.288599   
     66. A(H  20,C  19,H  22)          107.8046         0.288014   
     67. A(N  12,C  19,H  22)          111.3110         0.330586   
     68. D(C   2,C   1,N   0,C  11)   -156.4131         0.017017   
     69. D(C   2,C   1,N   0,H  10)      1.9323         0.017017   
     70. D(H  23,C   1,N   0,C  11)    -42.8787         0.017017   
     71. D(H  23,C   1,N   0,H  10)    115.4668         0.017017   
     72. D(C   4,C   1,N   0,C  11)     75.0277         0.017017   
     73. D(C   4,C   1,N   0,H  10)   -126.6268         0.017017   
     74. D(N  12,C   2,C   1,C   4)    -29.4087         0.009267   
     75. D(O   3,C   2,C   1,N   0)     26.6541         0.009267   
     76. D(N  12,C   2,C   1,H  23)     89.1994         0.009267   
     77. D(O   3,C   2,C   1,H  23)    -88.0247         0.009267   
     78. D(N  12,C   2,C   1,N   0)   -156.1218         0.009267   
     79. D(O   3,C   2,C   1,C   4)    153.3672         0.009267   
     80. D(C   5,C   4,C   1,H  23)   -170.9137         0.009421   
     81. D(C   5,C   4,C   1,C   2)    -52.6109         0.009421   
     82. D(H  25,C   4,C   1,H  23)     65.7647         0.009421   
     83. D(H  25,C   4,C   1,C   2)   -175.9325         0.009421   
     84. D(H  25,C   4,C   1,N   0)    -52.7875         0.009421   
     85. D(H  24,C   4,C   1,H  23)    -49.0842         0.009421   
     86. D(H  24,C   4,C   1,C   2)     69.2187         0.009421   
     87. D(H  24,C   4,C   1,N   0)   -167.6363         0.009421   
     88. D(C   5,C   4,C   1,N   0)     70.5341         0.009421   
     89. D(C   7,C   5,C   4,H  24)    -13.2787         0.012836   
     90. D(C   7,C   5,C   4,C   1)    108.1207         0.012836   
     91. D(H   6,C   5,C   4,H  25)     43.8537         0.012836   
     92. D(H   6,C   5,C   4,H  24)    162.2810         0.012836   
     93. D(C   7,C   5,C   4,H  25)   -131.7059         0.012836   
     94. D(H   6,C   5,C   4,C   1)    -76.3197         0.012836   
     95. D(O   9,C   7,C   5,H   6)    -12.4556         0.011404   
     96. D(O   9,C   7,C   5,C   4)    163.2012         0.011404   
     97. D(O   8,C   7,C   5,H   6)    167.7503         0.011404   
     98. D(O   8,C   7,C   5,C   4)    -16.5929         0.011404   
     99. D(C  15,C  11,N   0,H  10)     16.5431         0.034362   
    100. D(C  15,C  11,N   0,C   1)    173.7730         0.034362   
    101. D(O  14,C  11,N   0,H  10)   -164.1651         0.034362   
    102. D(O  14,C  11,N   0,C   1)     -6.9351         0.034362   
    103. D(C  19,N  12,C   2,O   3)     -3.8398         0.038237   
    104. D(C  19,N  12,C   2,C   1)    179.0724         0.038237   
    105. D(H  13,N  12,C   2,O   3)   -157.0273         0.038237   
    106. D(H  13,N  12,C   2,C   1)     25.8848         0.038237   
    107. D(H  18,C  15,C  11,O  14)   -178.7385         0.010566   
    108. D(H  18,C  15,C  11,N   0)      0.5759         0.010566   
    109. D(H  17,C  15,C  11,O  14)     59.5302         0.010566   
    110. D(H  17,C  15,C  11,N   0)   -121.1554         0.010566   
    111. D(H  16,C  15,C  11,O  14)    -57.2672         0.010566   
    112. D(H  16,C  15,C  11,N   0)    122.0472         0.010566   
    113. D(H  22,C  19,N  12,H  13)     99.0067         0.017285   
    114. D(H  22,C  19,N  12,C   2)    -55.6378         0.017285   
    115. D(H  21,C  19,N  12,H  13)    -20.7871         0.017285   
    116. D(H  21,C  19,N  12,C   2)   -175.4316         0.017285   
    117. D(H  20,C  19,N  12,H  13)   -141.0317         0.017285   
    118. D(H  20,C  19,N  12,C   2)     64.3238         0.017285   
    -----------------------------------------------------------------

Number of atoms                         .... 26
Number of degrees of freedom            .... 118

         *************************************************************
         *                GEOMETRY OPTIMIZATION CYCLE   1            *
         *************************************************************
---------------------------------
CARTESIAN COORDINATES (ANGSTROEM)
---------------------------------
  N     -3.811555   -0.030527   -0.027608
  C     -2.370479   -0.175754   -0.120611
  C     -1.844839   -0.188261    1.334905
  O     -2.583615   -0.573951    2.239280
  C     -1.713639    0.857161   -1.079054
  C     -1.692152    2.281358   -0.607563
  H     -2.599010    2.883792   -0.648020
  C     -0.420799    2.954776   -0.161558
  O      0.549866    2.181793    0.104492
  O     -0.439453    4.194269   -0.100008
  H     -4.154060    0.060501    0.920251
  C     -4.657585   -0.427775   -1.001271
  N     -0.572359    0.176192    1.518655
  H     -0.096528    0.814437    0.838856
  O     -4.292931   -0.830429   -2.093420
  C     -6.143764   -0.328353   -0.659487
  H     -6.625311    0.318932   -1.401281
  H     -6.585489   -1.327850   -0.747117
  H     -6.330875    0.068195    0.344129
  C     -0.033802    0.202202    2.863872
  H     -0.016082   -0.806550    3.296510
  H      0.983740    0.601001    2.809994
  H     -0.638209    0.840413    3.523884
  H     -2.156601   -1.174718   -0.534080
  H     -0.680366    0.534905   -1.257216
  H     -2.265384    0.762032   -2.025287

----------------------------
CARTESIAN COORDINATES (A.U.)
----------------------------
  NO LB      ZA    FRAG     MASS         X           Y           Z
   0 N     7.0000    0    14.007   -7.202796   -0.057688   -0.052171
   1 C     6.0000    0    12.011   -4.479557   -0.332127   -0.227922
   2 C     6.0000    0    12.011   -3.486241   -0.355762    2.522606
   3 O     8.0000    0    15.999   -4.882325   -1.084610    4.231626
   4 C     6.0000    0    12.011   -3.238308    1.619799   -2.039117
   5 C     6.0000    0    12.011   -3.197704    4.311141   -1.148127
   6 H     1.0000    0     1.008   -4.911416    5.449578   -1.224580
   7 C     6.0000    0    12.011   -0.795195    5.583718   -0.305300
   8 O     8.0000    0    15.999    1.039096    4.122990    0.197462
   9 O     8.0000    0    15.999   -0.830445    7.926020   -0.188987
  10 H     1.0000    0     1.008   -7.850036    0.114331    1.739022
  11 C     6.0000    0    12.011   -8.801560   -0.808377   -1.892129
  12 N     7.0000    0    14.007   -1.081602    0.332955    2.869842
  13 H     1.0000    0     1.008   -0.182411    1.539063    1.585208
  14 O     8.0000    0    15.999   -8.112464   -1.569283   -3.955990
  15 C     6.0000    0    12.011  -11.610031   -0.620498   -1.246249
  16 H     1.0000    0     1.008  -12.520023    0.602694   -2.648038
  17 H     1.0000    0     1.008  -12.444770   -2.509273   -1.411846
  18 H     1.0000    0     1.008  -11.963620    0.128869    0.650310
  19 C     6.0000    0    12.011   -0.063876    0.382107    5.411935
  20 H     1.0000    0     1.008   -0.030391   -1.524159    6.229501
  21 H     1.0000    0     1.008    1.858999    1.135727    5.310120
  22 H     1.0000    0     1.008   -1.206041    1.588150    6.659175
  23 H     1.0000    0     1.008   -4.075385   -2.219895   -1.009266
  24 H     1.0000    0     1.008   -1.285705    1.010824   -2.375794
  25 H     1.0000    0     1.008   -4.280956    1.440033   -3.827237

--------------------------------
INTERNAL COORDINATES (ANGSTROEM)
--------------------------------
 N      0   0   0     0.000000000000     0.00000000     0.00000000
 C      1   0   0     1.451358132783     0.00000000     0.00000000
 C      2   1   0     1.547573095031   106.12824489     0.00000000
 O      3   2   1     1.229812878732   119.34905091    26.65409221
 C      2   1   3     1.554659634923   113.11192510   231.44082244
 C      5   2   1     1.500367753901   116.29449347    70.53413596
 H      6   5   2     1.089474344084   120.08579919   283.68031508
 C      6   5   2     1.506237555673   121.97355440   108.12069988
 O      8   6   5     1.269045542117   115.80792954   343.40708088
 O      8   6   5     1.241160125866   116.64649694   163.20122489
 H      1   2   3     1.011944115119   113.89663240     1.93234363
 C      1   2   3     1.349664077538   123.14253958   203.58688654
 N      3   2   1     1.336336507052   116.77852996   203.87821291
 H     13   3   2     1.046851788062   120.65056376    25.88481179
 O     12   1   2     1.219791302296   123.75799072   353.06492412
 C     12   1   2     1.528210798908   115.41117874   173.77304310
 H     16  12   1     1.095958615932   108.32135504   122.04720915
 H     16  12   1     1.096263667430   108.34041218   238.84456855
 H     16  12   1     1.095219778499   113.24380471     0.57592067
 C     13   3   2     1.449252061657   119.10291119   179.07235268
 H     20  13   3     1.097757012582   110.81340433    64.32384253
 H     20  13   3     1.094227694398   107.84268388   184.56835964
 H     20  13   3     1.099197984776   111.31102058   304.36219178
 H      2   1   3     1.102102220512   107.90433097   113.53440656
 H      5   2   1     1.096924373606   107.63333905   192.36367956
 H      5   2   1     1.099467223917   105.13339327   307.21252025

---------------------------
INTERNAL COORDINATES (A.U.)
---------------------------
 N      0   0   0     0.000000000000     0.00000000     0.00000000
 C      1   0   0     2.742669393198     0.00000000     0.00000000
 C      2   1   0     2.924489321834   106.12824489     0.00000000
 O      3   2   1     2.324009536774   119.34905091    26.65409221
 C      2   1   3     2.937880941466   113.11192510   231.44082244
 C      5   2   1     2.835284155039   116.29449347    70.53413596
 H      6   5   2     2.058808140253   120.08579919   283.68031508
 C      6   5   2     2.846376472849   121.97355440   108.12069988
 O      8   6   5     2.398148526075   115.80792954   343.40708088
 O      8   6   5     2.345452726231   116.64649694   163.20122489
 H      1   2   3     1.912297240408   113.89663240     1.93234363
 C      1   2   3     2.550495479339   123.14253958   203.58688654
 N      3   2   1     2.525310021090   116.77852996   203.87821291
 H     13   3   2     1.978263182242   120.65056376    25.88481179
 O     12   1   2     2.305071501879   123.75799072   353.06492412
 C     12   1   2     2.887899884836   115.41117874   173.77304310
 H     16  12   1     2.071061638223   108.32135504   122.04720915
 H     16  12   1     2.071638102010   108.34041218   238.84456855
 H     16  12   1     2.069665437818   113.24380471     0.57592067
 C     13   3   2     2.738689495553   119.10291119   179.07235268
 H     20  13   3     2.074460115371   110.81340433    64.32384253
 H     20  13   3     2.067790670564   107.84268388   184.56835964
 H     20  13   3     2.077183158184   111.31102058   304.36219178
 H      2   1   3     2.082671368354   107.90433097   113.53440656
 H      5   2   1     2.072886655739   107.63333905   192.36367956
 H      5   2   1     2.077691946425   105.13339327   307.21252025

---------------------
BASIS SET INFORMATION
---------------------
There are 4 groups of distinct atoms

 Group   1 Type N   : 10s5p1d contracted to 6s2p1d pattern {511111/41/1}
 Group   2 Type C   : 10s5p1d contracted to 6s2p1d pattern {511111/41/1}
 Group   3 Type O   : 10s5p1d contracted to 6s2p1d pattern {511111/41/1}
 Group   4 Type H   : 6s1p contracted to 4s1p pattern {3111/1}

Atom   0N    basis set group =>   1
Atom   1C    basis set group =>   2
Atom   2C    basis set group =>   2
Atom   3O    basis set group =>   3
Atom   4C    basis set group =>   2
Atom   5C    basis set group =>   2
Atom   6H    basis set group =>   4
Atom   7C    basis set group =>   2
Atom   8O    basis set group =>   3
Atom   9O    basis set group =>   3
Atom  10H    basis set group =>   4
Atom  11C    basis set group =>   2
Atom  12N    basis set group =>   1
Atom  13H    basis set group =>   4
Atom  14O    basis set group =>   3
Atom  15C    basis set group =>   2
Atom  16H    basis set group =>   4
Atom  17H    basis set group =>   4
Atom  18H    basis set group =>   4
Atom  19C    basis set group =>   2
Atom  20H    basis set group =>   4
Atom  21H    basis set group =>   4
Atom  22H    basis set group =>   4
Atom  23H    basis set group =>   4
Atom  24H    basis set group =>   4
Atom  25H    basis set group =>   4
---------------------------------
AUXILIARY/J BASIS SET INFORMATION
---------------------------------
There are 4 groups of distinct atoms

 Group   1 Type N   : 12s5p4d2f1g contracted to 6s4p3d1f1g pattern {711111/2111/211/2/1}
 Group   2 Type C   : 12s5p4d2f1g contracted to 6s4p3d1f1g pattern {711111/2111/211/2/1}
 Group   3 Type O   : 12s5p4d2f1g contracted to 6s4p3d1f1g pattern {711111/2111/211/2/1}
 Group   4 Type H   : 5s2p1d contracted to 3s1p1d pattern {311/2/1}

Atom   0N    basis set group =>   1
Atom   1C    basis set group =>   2
Atom   2C    basis set group =>   2
Atom   3O    basis set group =>   3
Atom   4C    basis set group =>   2
Atom   5C    basis set group =>   2
Atom   6H    basis set group =>   4
Atom   7C    basis set group =>   2
Atom   8O    basis set group =>   3
Atom   9O    basis set group =>   3
Atom  10H    basis set group =>   4
Atom  11C    basis set group =>   2
Atom  12N    basis set group =>   1
Atom  13H    basis set group =>   4
Atom  14O    basis set group =>   3
Atom  15C    basis set group =>   2
Atom  16H    basis set group =>   4
Atom  17H    basis set group =>   4
Atom  18H    basis set group =>   4
Atom  19C    basis set group =>   2
Atom  20H    basis set group =>   4
Atom  21H    basis set group =>   4
Atom  22H    basis set group =>   4
Atom  23H    basis set group =>   4
Atom  24H    basis set group =>   4
Atom  25H    basis set group =>   4


           ************************************************************
           *        Program running with 16 parallel MPI-processes    *
           *              working on a common directory               *
           ************************************************************
------------------------------------------------------------------------------
                           ORCA GTO INTEGRAL CALCULATION
                           -- RI-GTO INTEGRALS CHOSEN --
------------------------------------------------------------------------------
------------------------------------------------------------------------------
                   ___                                                        
                  /   \      - P O W E R E D   B Y -                         
                 /     \                                                     
                 |  |  |   _    _      __       _____    __    __             
                 |  |  |  | |  | |    /  \     |  _  \  |  |  /  |          
                  \  \/   | |  | |   /    \    | | | |  |  | /  /          
                 / \  \   | |__| |  /  /\  \   | |_| |  |  |/  /          
                |  |  |   |  __  | /  /__\  \  |    /   |      \           
                |  |  |   | |  | | |   __   |  |    \   |  |\   \          
                \     /   | |  | | |  |  |  |  | |\  \  |  | \   \       
                 \___/    |_|  |_| |__|  |__|  |_| \__\ |__|  \__/        
                                                                              
                      - O R C A' S   B I G   F R I E N D -                    
                                      &                                       
                       - I N T E G R A L  F E E D E R -                       
                                                                              
 v1 FN, 2020, v2 2021                                                         
------------------------------------------------------------------------------


Reading SHARK input file opt.SHARKINP.tmp ... ok
----------------------
SHARK INTEGRAL PACKAGE
----------------------

Number of atoms                             ...     26
Number of basis functions                   ...    322
Number of shells                            ...    186
Maximum angular momentum                    ...      2
Integral batch strategy                     ... SHARK/LIBINT Hybrid
RI-J (if used) integral strategy            ... SPLIT-RIJ (Revised 2003 algorithm where possible)
Printlevel                                  ...      1
Contraction scheme used                     ... SEGMENTED contraction
Coulomb Range Separation                    ... NOT USED
Exchange Range Separation                   ... NOT USED
Finite Nucleus Model                        ... NOT USED
Auxiliary Coulomb fitting basis             ... AVAILABLE
   # of basis functions in Aux-J            ...    818
   # of shells in Aux-J                     ...    270
   Maximum angular momentum in Aux-J        ...      4
Auxiliary J/K fitting basis                 ... NOT available
Auxiliary Correlation fitting basis         ... NOT available
Auxiliary 'external' fitting basis          ... NOT available
Integral threshold                          ...     2.500000e-11
Primitive cut-off                           ...     2.500000e-12
Primitive pair pre-selection threshold      ...     2.500000e-12

Calculating pre-screening integrals         ... done (  0.0 sec) Dimension = 186
Organizing shell pair data                  ... done (  0.0 sec)
Shell pair information
Total number of shell pairs                 ...     17391
Shell pairs after pre-screening             ...     12490
Total number of primitive shell pairs       ...     47846
Primitive shell pairs kept                  ...     24971
          la=0 lb=0:   5620 shell pairs
          la=1 lb=0:   4239 shell pairs
          la=1 lb=1:    740 shell pairs
          la=2 lb=0:   1324 shell pairs
          la=2 lb=1:    481 shell pairs
          la=2 lb=2:     86 shell pairs

Calculating one electron integrals          ... done (  0.0 sec)
Calculating RI/J V-Matrix + Cholesky decomp.... done (  0.1 sec)
Calculating Nuclear repulsion               ... done (  0.0 sec) ENN=    918.902291049184 Eh

SHARK setup successfully completed in   0.3 seconds

Maximum memory used throughout the entire GTOINT-calculation: 19.4 MB


           ************************************************************
           *        Program running with 16 parallel MPI-processes    *
           *              working on a common directory               *
           ************************************************************
-------------------------------------------------------------------------------
                                 ORCA SCF
-------------------------------------------------------------------------------

------------
SCF SETTINGS
------------
Hamiltonian:
 Density Functional     Method          .... DFT(GTOs)
 Exchange Functional    Exchange        .... B88
   X-Alpha parameter    XAlpha          ....  0.666667
   Becke's b parameter  XBeta           ....  0.004200
 Correlation Functional Correlation     .... LYP
 LDA part of GGA corr.  LDAOpt          .... VWN-5
 Gradients option       PostSCFGGA      .... off
 Hybrid DFT is turned on
   Fraction HF Exchange ScalHFX         ....  0.200000
   Scaling of DF-GGA-X  ScalDFX         ....  0.720000
   Scaling of DF-GGA-C  ScalDFC         ....  0.810000
   Scaling of DF-LDA-C  ScalLDAC        ....  1.000000
   Perturbative correction              ....  0.000000
   Density functional embedding theory  .... OFF
   NL short-range parameter             ....  4.800000
 RI-approximation to the Coulomb term is turned on
   Number of AuxJ basis functions       .... 818
   RIJ-COSX (HFX calculated with COS-X)).... on


General Settings:
 Integral files         IntName         .... opt
 Hartree-Fock type      HFTyp           .... UHF
 Total Charge           Charge          ....   -1
 Multiplicity           Mult            ....    2
 Number of Electrons    NEL             ....  107
 Basis Dimension        Dim             ....  322
 Nuclear Repulsion      ENuc            ....    918.9022910492 Eh

Convergence Acceleration:
 DIIS                   CNVDIIS         .... on
   Start iteration      DIISMaxIt       ....    12
   Startup error        DIISStart       ....  0.200000
   # of expansion vecs  DIISMaxEq       ....     5
   Bias factor          DIISBfac        ....   1.050
   Max. coefficient     DIISMaxC        ....  10.000
 Trust-Rad. Augm. Hess. CNVTRAH         .... auto
   Auto Start mean grad. ratio tolernc. ....  1.125000
   Auto Start start iteration           ....    20
   Auto Start num. interpolation iter.  ....    10
   Max. Number of Micro iterations      ....    16
   Max. Number of Macro iterations      .... Maxiter - #DIIS iter
   Number of Davidson start vectors     ....     2
   Converg. threshold I  (grad. norm)   ....   1.000e-05
   Converg. threshold II (energy diff.) ....   1.000e-08
   Grad. Scal. Fac. for Micro threshold ....   0.100
   Minimum threshold for Micro iter.    ....   0.010
   NR start threshold (gradient norm)   ....   0.001
   Initial trust radius                 ....   0.400
   Minimum AH scaling param. (alpha)    ....   1.000
   Maximum AH scaling param. (alpha)    .... 1000.000
   Orbital update algorithm             .... Taylor
   White noise on init. David. guess    .... on
   Maximum white noise                  ....   0.010
   Quad. conv. algorithm                .... NR
 SOSCF                  CNVSOSCF        .... off
 Level Shifting         CNVShift        .... on
   Level shift para.    LevelShift      ....    0.2500
   Turn off err/grad.   ShiftErr        ....    0.0010
 Zerner damping         CNVZerner       .... off
 Static damping         CNVDamp         .... on
   Fraction old density DampFac         ....    0.7000
   Max. Damping (<1)    DampMax         ....    0.9800
   Min. Damping (>=0)   DampMin         ....    0.0000
   Turn off err/grad.   DampErr         ....    0.1000
 Fernandez-Rico         CNVRico         .... off

SCF Procedure:
 Maximum # iterations   MaxIter         ....   125
 SCF integral mode      SCFMode         .... Direct
   Integral package                     .... SHARK and LIBINT hybrid scheme
 Reset frequency        DirectResetFreq ....    20
 Integral Threshold     Thresh          ....  2.500e-11 Eh
 Primitive CutOff       TCut            ....  2.500e-12 Eh

Convergence Tolerance:
 Convergence Check Mode ConvCheckMode   .... Total+1el-Energy
 Convergence forced     ConvForced      .... 0
 Energy Change          TolE            ....  1.000e-08 Eh
 1-El. energy change                    ....  1.000e-05 Eh
 DIIS Error             TolErr          ....  5.000e-07


Diagonalization of the overlap matrix:
Smallest eigenvalue                        ... 8.375e-04
Time for diagonalization                   ...    0.012 sec
Threshold for overlap eigenvalues          ... 1.000e-08
Number of eigenvalues below threshold      ... 0
Time for construction of square roots      ...    0.009 sec
Total time needed                          ...    0.022 sec

Time for model grid setup =    0.099 sec

------------------------------
INITIAL GUESS: MODEL POTENTIAL
------------------------------
Loading Hartree-Fock densities                     ... done
Calculating cut-offs                               ... done
Initializing the effective Hamiltonian             ... done
Setting up the integral package (SHARK)            ... done
Starting the Coulomb interaction                   ... done (   0.1 sec)
Reading the grid                                   ... done
Mapping shells                                     ... done
Starting the XC term evaluation                    ... done (   0.0 sec)
  promolecular density results
     # of electrons  =    105.989116702
     EX              =    -90.595310945
     EC              =     -3.651699094
     EX+EC           =    -94.247010039
Transforming the Hamiltonian                       ... done (   0.0 sec)
Diagonalizing the Hamiltonian                      ... done (   0.0 sec)
Back transforming the eigenvectors                 ... done (   0.0 sec)
Now organizing SCF variables                       ... done
                      ------------------
                      INITIAL GUESS DONE (   0.3 sec)
                      ------------------
-------------------
DFT GRID GENERATION
-------------------

General Integration Accuracy     IntAcc      ... 4.388
Radial Grid Type                 RadialGrid  ... OptM3 with GC (2021)
Angular Grid (max. ang.)         AngularGrid ... 4 (Lebedev-302)
Angular grid pruning method      GridPruning ... 4 (adaptive)
Weight generation scheme         WeightScheme... Becke
Basis function cutoff            BFCut       ... 1.0000e-11
Integration weight cutoff        WCut        ... 1.0000e-14
Angular grids for H and He will be reduced by one unit
Partially contracted basis set               ... off
Rotationally invariant grid construction     ... off

Total number of grid points                  ...   122580
Total number of batches                      ...     1927
Average number of points per batch           ...       63
Average number of grid points per atom       ...     4715
Time for grid setup =    0.534 sec

--------------------
COSX GRID GENERATION
--------------------

GRIDX 1
-------
General Integration Accuracy     IntAcc      ... 3.816
Radial Grid Type                 RadialGrid  ... OptM3 with GC (2021)
Angular Grid (max. ang.)         AngularGrid ... 1 (Lebedev-50)
Angular grid pruning method      GridPruning ... 4 (adaptive)
Weight generation scheme         WeightScheme... Becke
Basis function cutoff            BFCut       ... 1.0000e-11
Integration weight cutoff        WCut        ... 1.0000e-14
Angular grids for H and He will be reduced by one unit
Partially contracted basis set               ... on
Rotationally invariant grid construction     ... off

Total number of grid points                  ...    15609
Total number of batches                      ...      257
Average number of points per batch           ...       60
Average number of grid points per atom       ...      600
UseSFitting                                  ... on

GRIDX 2
-------
General Integration Accuracy     IntAcc      ... 4.020
Radial Grid Type                 RadialGrid  ... OptM3 with GC (2021)
Angular Grid (max. ang.)         AngularGrid ... 2 (Lebedev-110)
Angular grid pruning method      GridPruning ... 4 (adaptive)
Weight generation scheme         WeightScheme... Becke
Basis function cutoff            BFCut       ... 1.0000e-11
Integration weight cutoff        WCut        ... 1.0000e-14
Angular grids for H and He will be reduced by one unit
Partially contracted basis set               ... on
Rotationally invariant grid construction     ... off

Total number of grid points                  ...    33939
Total number of batches                      ...      544
Average number of points per batch           ...       62
Average number of grid points per atom       ...     1305
UseSFitting                                  ... on

GRIDX 3
-------
General Integration Accuracy     IntAcc      ... 4.338
Radial Grid Type                 RadialGrid  ... OptM3 with GC (2021)
Angular Grid (max. ang.)         AngularGrid ... 3 (Lebedev-194)
Angular grid pruning method      GridPruning ... 4 (adaptive)
Weight generation scheme         WeightScheme... Becke
Basis function cutoff            BFCut       ... 1.0000e-11
Integration weight cutoff        WCut        ... 1.0000e-14
Angular grids for H and He will be reduced by one unit
Partially contracted basis set               ... on
Rotationally invariant grid construction     ... off

Total number of grid points                  ...    74358
Total number of batches                      ...     1172
Average number of points per batch           ...       63
Average number of grid points per atom       ...     2860
UseSFitting                                  ... on

Time for X-Grid setup             =    0.692 sec

--------------
SCF ITERATIONS
--------------
ITER       Energy         Delta-E        Max-DP      RMS-DP      [F,P]     Damp
               ***  Starting incremental Fock matrix formation  ***
  0   -721.7341256532   0.000000000000 0.06451863  0.00131822  0.1428952 0.7000
  1   -722.0117486192  -0.277622965979 0.05595811  0.00101164  0.0593997 0.7000
                               ***Turning on DIIS***
  2   -722.1085277044  -0.096779085208 0.09703402  0.00159273  0.0190676 0.0000
  3   -722.2748699031  -0.166342198743 0.05017143  0.00077236  0.0342351 0.0000
  4   -722.3074480920  -0.032578188812 0.02128189  0.00028372  0.0076235 0.0000
  5   -722.3099754279  -0.002527335948 0.01017577  0.00012025  0.0030565 0.0000
  6   -722.3102337954  -0.000258367492 0.00882321  0.00010051  0.0009532 0.0000
               *** Restarting incremental Fock matrix formation ***
                                   *** Resetting DIIS ***
  7   -722.3102267946   0.000007000804 0.00186773  0.00002325  0.0010314 0.0000
  8   -722.3102256511   0.000001143489 0.00075242  0.00000920  0.0012110 0.0000
  9   -722.3102491970  -0.000023545873 0.00048312  0.00000799  0.0002738 0.0000
 10   -722.3102521935  -0.000002996533 0.00046738  0.00000321  0.0001828 0.0000
 11   -722.3102525618  -0.000000368256 0.00024032  0.00000227  0.0001583 0.0000
 12   -722.3102528549  -0.000000293130 0.00015455  0.00000104  0.0000801 0.0000
 13   -722.3102528845  -0.000000029620 0.00007803  0.00000070  0.0000514 0.0000
 14   -722.3102529182  -0.000000033656 0.00002870  0.00000023  0.0000101 0.0000
 15   -722.3102529173   0.000000000909 0.00002143  0.00000018  0.0000166 0.0000
 16   -722.3102529202  -0.000000002976 0.00000861  0.00000009  0.0000047 0.0000
 17   -722.3102529178   0.000000002473 0.00000971  0.00000006  0.0000037 0.0000
 18   -722.3102529269  -0.000000009092 0.00000835  0.00000006  0.0000039 0.0000
 19   -722.3102529190   0.000000007908 0.00000262  0.00000003  0.0000027 0.0000
                 **** Energy Check signals convergence ****

               *****************************************************
               *                     SUCCESS                       *
               *           SCF CONVERGED AFTER  20 CYCLES          *
               *****************************************************

Old exchange energy                            =    -18.416254192 Eh
New exchange energy                            =    -18.416286796 Eh
Exchange energy change after final integration =     -0.000032604 Eh
Total energy after final integration           =   -722.310285524 Eh
Final COS-X integration done in                =     1.791 sec

----------------
TOTAL SCF ENERGY
----------------

Total Energy       :         -722.31028552 Eh          -19655.06211 eV

Components:
Nuclear Repulsion  :          918.90229105 Eh           25004.60255 eV
Electronic Energy  :        -1641.21257657 Eh          -44659.66466 eV
One Electron Energy:        -2825.38430328 Eh          -76882.61553 eV
Two Electron Energy:         1184.17172671 Eh           32222.95087 eV
Max COSX asymmetry :            0.00000111 Eh               0.00003 eV

Virial components:
Potential Energy   :        -1440.17345317 Eh          -39189.11200 eV
Kinetic Energy     :          717.86316765 Eh           19534.04988 eV
Virial Ratio       :            2.00619494


DFT components:
N(Alpha)           :       54.000089818635 electrons
N(Beta)            :       53.000054760889 electrons
N(Total)           :      107.000144579524 electrons
E(X)               :      -73.246923528208 Eh       
E(C)               :       -4.331023375107 Eh       
E(XC)              :      -77.577946903315 Eh       
DFET-embed. en.    :        0.000000000000 Eh       

---------------
SCF CONVERGENCE
---------------

  Last Energy change         ...   -1.0232e-09  Tolerance :   1.0000e-08
  Last MAX-Density change    ...    0.0000e+00  Tolerance :   1.0000e-07
  Last RMS-Density change    ...    0.0000e+00  Tolerance :   5.0000e-09
  Last DIIS Error            ...    1.2954e-06  Tolerance :   5.0000e-07

             **** THE GBW FILE WAS UPDATED (opt.gbw) ****
             **** DENSITY opt.scfp WAS UPDATED ****
             **** ENERGY FILE WAS UPDATED (opt.en.tmp) ****
----------------------
UHF SPIN CONTAMINATION
----------------------

Warning: in a DFT calculation there is little theoretical justification to 
         calculate <S**2> as in Hartree-Fock theory. We will do it anyways
         but you should keep in mind that the values have only limited relevance

Expectation value of <S**2>     :     0.755663
Ideal value S*(S+1) for S=0.5   :     0.750000
Deviation                       :     0.005663

             **** THE GBW FILE WAS UPDATED (opt.gbw) ****
             **** DENSITY opt.scfp WAS UPDATED ****
----------------
ORBITAL ENERGIES
----------------
                 SPIN UP ORBITALS
  NO   OCC          E(Eh)            E(eV) 
   0   1.0000     -19.002841      -517.0936 
   1   1.0000     -18.993359      -516.8356 
   2   1.0000     -18.922946      -514.9195 
   3   1.0000     -18.920226      -514.8455 
   4   1.0000     -14.244524      -387.6132 
   5   1.0000     -14.217142      -386.8681 
   6   1.0000     -10.187891      -277.2266 
   7   1.0000     -10.168769      -276.7063 
   8   1.0000     -10.120074      -275.3812 
   9   1.0000     -10.113919      -275.2137 
  10   1.0000     -10.099537      -274.8224 
  11   1.0000     -10.095407      -274.7100 
  12   1.0000     -10.061929      -273.7990 
  13   1.0000     -10.054905      -273.6079 
  14   1.0000      -0.933267       -25.3955 
  15   1.0000      -0.919134       -25.0109 
  16   1.0000      -0.862934       -23.4816 
  17   1.0000      -0.815466       -22.1900 
  18   1.0000      -0.793606       -21.5951 
  19   1.0000      -0.774070       -21.0635 
  20   1.0000      -0.673109       -18.3162 
  21   1.0000      -0.633427       -17.2364 
  22   1.0000      -0.594550       -16.1785 
  23   1.0000      -0.560368       -15.2484 
  24   1.0000      -0.499381       -13.5889 
  25   1.0000      -0.462992       -12.5987 
  26   1.0000      -0.442388       -12.0380 
  27   1.0000      -0.420154       -11.4330 
  28   1.0000      -0.377564       -10.2740 
  29   1.0000      -0.367994       -10.0136 
  30   1.0000      -0.349913        -9.5216 
  31   1.0000      -0.345951        -9.4138 
  32   1.0000      -0.336834        -9.1657 
  33   1.0000      -0.328133        -8.9289 
  34   1.0000      -0.316136        -8.6025 
  35   1.0000      -0.306121        -8.3300 
  36   1.0000      -0.295855        -8.0506 
  37   1.0000      -0.290500        -7.9049 
  38   1.0000      -0.284508        -7.7418 
  39   1.0000      -0.270962        -7.3733 
  40   1.0000      -0.263956        -7.1826 
  41   1.0000      -0.254382        -6.9221 
  42   1.0000      -0.242389        -6.5957 
  43   1.0000      -0.234686        -6.3861 
  44   1.0000      -0.228841        -6.2271 
  45   1.0000      -0.217865        -5.9284 
  46   1.0000      -0.155377        -4.2280 
  47   1.0000      -0.149596        -4.0707 
  48   1.0000      -0.144047        -3.9197 
  49   1.0000      -0.131948        -3.5905 
  50   1.0000      -0.094345        -2.5672 
  51   1.0000      -0.087317        -2.3760 
  52   1.0000      -0.073808        -2.0084 
  53   1.0000      -0.059989        -1.6324 
  54   0.0000       0.102507         2.7894 
  55   0.0000       0.122351         3.3293 
  56   0.0000       0.130278         3.5450 
  57   0.0000       0.139731         3.8023 
  58   0.0000       0.154340         4.1998 
  59   0.0000       0.166144         4.5210 
  60   0.0000       0.174264         4.7420 
  61   0.0000       0.184681         5.0254 
  62   0.0000       0.203928         5.5492 
  63   0.0000       0.213660         5.8140 
  64   0.0000       0.225855         6.1458 
  65   0.0000       0.236071         6.4238 
  66   0.0000       0.247087         6.7236 
  67   0.0000       0.247924         6.7463 
  68   0.0000       0.271689         7.3930 
  69   0.0000       0.283127         7.7043 
  70   0.0000       0.295864         8.0509 
  71   0.0000       0.298137         8.1127 
  72   0.0000       0.301249         8.1974 
  73   0.0000       0.313638         8.5345 
  74   0.0000       0.318946         8.6790 
  75   0.0000       0.324320         8.8252 
  76   0.0000       0.330176         8.9845 
  77   0.0000       0.343914         9.3584 
  78   0.0000       0.344733         9.3807 
  79   0.0000       0.358596         9.7579 
  80   0.0000       0.363374         9.8879 
  81   0.0000       0.366814         9.9815 
  82   0.0000       0.376341        10.2408 
  83   0.0000       0.378188        10.2910 
  84   0.0000       0.390554        10.6275 
  85   0.0000       0.397830        10.8255 
  86   0.0000       0.403114        10.9693 
  87   0.0000       0.405900        11.0451 
  88   0.0000       0.416863        11.3434 
  89   0.0000       0.418931        11.3997 
  90   0.0000       0.427002        11.6193 
  91   0.0000       0.439066        11.9476 
  92   0.0000       0.454139        12.3577 
  93   0.0000       0.459103        12.4928 
  94   0.0000       0.469631        12.7793 
  95   0.0000       0.478192        13.0123 
  96   0.0000       0.495325        13.4785 
  97   0.0000       0.504209        13.7202 
  98   0.0000       0.517772        14.0893 
  99   0.0000       0.525569        14.3014 
 100   0.0000       0.529903        14.4194 
 101   0.0000       0.537838        14.6353 
 102   0.0000       0.551605        15.0099 
 103   0.0000       0.555967        15.1286 
 104   0.0000       0.575036        15.6475 
 105   0.0000       0.577645        15.7185 
 106   0.0000       0.593310        16.1448 
 107   0.0000       0.595598        16.2071 
 108   0.0000       0.611233        16.6325 
 109   0.0000       0.628019        17.0893 
 110   0.0000       0.641242        17.4491 
 111   0.0000       0.644962        17.5503 
 112   0.0000       0.655166        17.8280 
 113   0.0000       0.659096        17.9349 
 114   0.0000       0.680674        18.5221 
 115   0.0000       0.685964        18.6660 
 116   0.0000       0.708181        19.2706 
 117   0.0000       0.715263        19.4633 
 118   0.0000       0.745064        20.2742 
 119   0.0000       0.751981        20.4625 
 120   0.0000       0.764837        20.8123 
 121   0.0000       0.784519        21.3478 
 122   0.0000       0.822794        22.3894 
 123   0.0000       0.837700        22.7950 
 124   0.0000       0.868977        23.6461 
 125   0.0000       0.883943        24.0533 
 126   0.0000       0.890847        24.2412 
 127   0.0000       0.894301        24.3352 
 128   0.0000       0.912538        24.8314 
 129   0.0000       0.918405        24.9911 
 130   0.0000       0.939202        25.5570 
 131   0.0000       0.954781        25.9809 
 132   0.0000       0.962586        26.1933 
 133   0.0000       0.972747        26.4698 
 134   0.0000       0.979224        26.6460 
 135   0.0000       0.981749        26.7147 
 136   0.0000       0.985941        26.8288 
 137   0.0000       0.990901        26.9638 
 138   0.0000       1.001780        27.2598 
 139   0.0000       1.011408        27.5218 
 140   0.0000       1.021269        27.7901 
 141   0.0000       1.026016        27.9193 
 142   0.0000       1.031493        28.0684 
 143   0.0000       1.047898        28.5148 
 144   0.0000       1.048317        28.5262 
 145   0.0000       1.055292        28.7160 
 146   0.0000       1.077340        29.3159 
 147   0.0000       1.096260        29.8308 
 148   0.0000       1.099899        29.9298 
 149   0.0000       1.122539        30.5458 
 150   0.0000       1.124036        30.5866 
 151   0.0000       1.131039        30.7771 
 152   0.0000       1.148455        31.2510 
 153   0.0000       1.155298        31.4373 
 154   0.0000       1.173487        31.9322 
 155   0.0000       1.182392        32.1745 
 156   0.0000       1.185528        32.2599 
 157   0.0000       1.205970        32.8161 
 158   0.0000       1.220458        33.2104 
 159   0.0000       1.240819        33.7644 
 160   0.0000       1.263227        34.3742 
 161   0.0000       1.276927        34.7470 
 162   0.0000       1.291112        35.1329 
 163   0.0000       1.319469        35.9046 
 164   0.0000       1.324705        36.0470 
 165   0.0000       1.342478        36.5307 
 166   0.0000       1.381239        37.5854 
 167   0.0000       1.393761        37.9262 
 168   0.0000       1.412460        38.4350 
 169   0.0000       1.436479        39.0886 
 170   0.0000       1.451666        39.5018 
 171   0.0000       1.459562        39.7167 
 172   0.0000       1.493288        40.6344 
 173   0.0000       1.497097        40.7381 
 174   0.0000       1.510597        41.1054 
 175   0.0000       1.526905        41.5492 
 176   0.0000       1.544470        42.0272 
 177   0.0000       1.569368        42.7047 
 178   0.0000       1.578861        42.9630 
 179   0.0000       1.588120        43.2150 
 180   0.0000       1.601498        43.5790 
 181   0.0000       1.609447        43.7953 
 182   0.0000       1.629790        44.3488 
 183   0.0000       1.638053        44.5737 
 184   0.0000       1.645062        44.7644 
 185   0.0000       1.661935        45.2235 
 186   0.0000       1.683386        45.8072 
 187   0.0000       1.691928        46.0397 
 188   0.0000       1.694876        46.1199 
 189   0.0000       1.715319        46.6762 
 190   0.0000       1.724438        46.9243 
 191   0.0000       1.745861        47.5073 
 192   0.0000       1.756902        47.8077 
 193   0.0000       1.772900        48.2431 
 194   0.0000       1.786698        48.6185 
 195   0.0000       1.796211        48.8774 
 196   0.0000       1.821702        49.5710 
 197   0.0000       1.830322        49.8056 
 198   0.0000       1.840915        50.0938 
 199   0.0000       1.851957        50.3943 
 200   0.0000       1.861169        50.6450 
 201   0.0000       1.890840        51.4524 
 202   0.0000       1.910175        51.9785 
 203   0.0000       1.928618        52.4804 
 204   0.0000       1.945250        52.9330 
 205   0.0000       1.945413        52.9374 
 206   0.0000       1.966336        53.5067 
 207   0.0000       1.967987        53.5517 
 208   0.0000       1.988532        54.1107 
 209   0.0000       2.014864        54.8272 
 210   0.0000       2.029080        55.2141 
 211   0.0000       2.053977        55.8915 
 212   0.0000       2.065222        56.1975 
 213   0.0000       2.101037        57.1721 
 214   0.0000       2.125479        57.8372 
 215   0.0000       2.148872        58.4738 
 216   0.0000       2.150115        58.5076 
 217   0.0000       2.162438        58.8429 
 218   0.0000       2.181199        59.3534 
 219   0.0000       2.218829        60.3774 
 220   0.0000       2.239123        60.9296 
 221   0.0000       2.252141        61.2839 
 222   0.0000       2.257122        61.4194 
 223   0.0000       2.267800        61.7100 
 224   0.0000       2.312881        62.9367 
 225   0.0000       2.332042        63.4581 
 226   0.0000       2.349371        63.9296 
 227   0.0000       2.375102        64.6298 
 228   0.0000       2.394477        65.1570 
 229   0.0000       2.425414        65.9989 
 230   0.0000       2.450307        66.6762 
 231   0.0000       2.470657        67.2300 
 232   0.0000       2.479333        67.4661 
 233   0.0000       2.481550        67.5264 
 234   0.0000       2.499083        68.0035 
 235   0.0000       2.563649        69.7604 
 236   0.0000       2.575987        70.0962 
 237   0.0000       2.591446        70.5168 
 238   0.0000       2.617677        71.2306 
 239   0.0000       2.634535        71.6893 
 240   0.0000       2.648229        72.0620 
 241   0.0000       2.669286        72.6350 
 242   0.0000       2.686478        73.1028 
 243   0.0000       2.712058        73.7989 
 244   0.0000       2.745975        74.7218 
 245   0.0000       2.774766        75.5052 
 246   0.0000       2.812936        76.5439 
 247   0.0000       2.821313        76.7718 
 248   0.0000       2.834283        77.1248 
 249   0.0000       2.861856        77.8750 
 250   0.0000       2.865111        77.9636 
 251   0.0000       2.887520        78.5734 
 252   0.0000       2.898668        78.8768 
 253   0.0000       2.918491        79.4162 
 254   0.0000       2.926526        79.6348 
 255   0.0000       3.030598        82.4668 
 256   0.0000       3.101005        84.3826 
 257   0.0000       3.131140        85.2027 
 258   0.0000       3.216244        87.5185 
 259   0.0000       3.226364        87.7938 
 260   0.0000       3.258147        88.6587 
 261   0.0000       3.362081        91.4869 
 262   0.0000       3.374951        91.8371 
 263   0.0000       3.493463        95.0620 
 264   0.0000       3.503008        95.3217 
 265   0.0000       3.534048        96.1663 
 266   0.0000       3.552462        96.6674 
 267   0.0000       3.571006        97.1720 
 268   0.0000       3.629128        98.7536 
 269   0.0000       3.698808       100.6497 
 270   0.0000       5.070492       137.9751 
 271   0.0000       5.099915       138.7758 
 272   0.0000       5.111695       139.0963 
 273   0.0000       5.119311       139.3035 
 274   0.0000       5.136619       139.7745 
 275   0.0000       5.168761       140.6491 
 276   0.0000       5.196546       141.4052 
 277   0.0000       5.282905       143.7551 
 278   0.0000       5.308833       144.4607 
 279   0.0000       5.351759       145.6288 
 280   0.0000       5.365619       146.0059 
 281   0.0000       5.386150       146.5646 
 282   0.0000       5.424579       147.6103 
 283   0.0000       5.438227       147.9817 
 284   0.0000       5.478333       149.0730 
 285   0.0000       5.629998       153.2000 
 286   0.0000       5.737795       156.1333 
 287   0.0000       5.797495       157.7579 
 288   0.0000       5.826657       158.5514 
 289   0.0000       5.933770       161.4661 
 290   0.0000       7.428093       202.1287 
 291   0.0000       7.489666       203.8042 
 292   0.0000       9.163743       249.3581 
 293   0.0000       9.178855       249.7693 
 294   0.0000       9.239000       251.4060 
 295   0.0000       9.356661       254.6077 
 296   0.0000      29.677295       807.5603 
 297   0.0000      29.712916       808.5295 
 298   0.0000      29.804775       811.0292 
 299   0.0000      30.003098       816.4258 
 300   0.0000      30.093299       818.8803 
 301   0.0000      30.159994       820.6952 
 302   0.0000      30.219493       822.3142 
 303   0.0000      30.349704       825.8574 
 304   0.0000      36.691273       998.4203 
 305   0.0000      36.721470       999.2420 
 306   0.0000      36.733535       999.5703 
 307   0.0000      36.749778      1000.0123 
 308   0.0000      36.789813      1001.1017 
 309   0.0000      36.818023      1001.8693 
 310   0.0000      36.897737      1004.0385 
 311   0.0000      36.911354      1004.4090 
 312   0.0000      36.933056      1004.9995 
 313   0.0000      37.005820      1006.9796 
 314   0.0000      37.019661      1007.3562 
 315   0.0000      37.058417      1008.4108 
 316   0.0000      41.361253      1125.4969 
 317   0.0000      41.435295      1127.5117 
 318   0.0000      53.706610      1461.4312 
 319   0.0000      53.717420      1461.7253 
 320   0.0000      53.776103      1463.3222 
 321   0.0000      53.893568      1466.5186 

                 SPIN DOWN ORBITALS
  NO   OCC          E(Eh)            E(eV) 
   0   1.0000     -19.002797      -517.0924 
   1   1.0000     -18.993343      -516.8351 
   2   1.0000     -18.922019      -514.8943 
   3   1.0000     -18.917244      -514.7644 
   4   1.0000     -14.244573      -387.6145 
   5   1.0000     -14.217106      -386.8671 
   6   1.0000     -10.187891      -277.2266 
   7   1.0000     -10.168803      -276.7072 
   8   1.0000     -10.118743      -275.3450 
   9   1.0000     -10.115062      -275.2448 
  10   1.0000     -10.099538      -274.8224 
  11   1.0000     -10.095410      -274.7101 
  12   1.0000     -10.062760      -273.8216 
  13   1.0000     -10.042250      -273.2635 
  14   1.0000      -0.933188       -25.3933 
  15   1.0000      -0.919070       -25.0092 
  16   1.0000      -0.859538       -23.3892 
  17   1.0000      -0.815197       -22.1826 
  18   1.0000      -0.793039       -21.5797 
  19   1.0000      -0.770198       -20.9581 
  20   1.0000      -0.669752       -18.2249 
  21   1.0000      -0.629912       -17.1408 
  22   1.0000      -0.588870       -16.0240 
  23   1.0000      -0.553604       -15.0643 
  24   1.0000      -0.489914       -13.3312 
  25   1.0000      -0.459772       -12.5110 
  26   1.0000      -0.440095       -11.9756 
  27   1.0000      -0.419749       -11.4219 
  28   1.0000      -0.376350       -10.2410 
  29   1.0000      -0.367437        -9.9985 
  30   1.0000      -0.348418        -9.4809 
  31   1.0000      -0.342381        -9.3167 
  32   1.0000      -0.334410        -9.0998 
  33   1.0000      -0.327484        -8.9113 
  34   1.0000      -0.314154        -8.5486 
  35   1.0000      -0.305622        -8.3164 
  36   1.0000      -0.292693        -7.9646 
  37   1.0000      -0.289051        -7.8655 
  38   1.0000      -0.280883        -7.6432 
  39   1.0000      -0.269526        -7.3342 
  40   1.0000      -0.262679        -7.1479 
  41   1.0000      -0.250239        -6.8093 
  42   1.0000      -0.240486        -6.5440 
  43   1.0000      -0.231111        -6.2888 
  44   1.0000      -0.222295        -6.0490 
  45   1.0000      -0.214189        -5.8284 
  46   1.0000      -0.153497        -4.1769 
  47   1.0000      -0.149328        -4.0634 
  48   1.0000      -0.143316        -3.8998 
  49   1.0000      -0.131550        -3.5797 
  50   1.0000      -0.082973        -2.2578 
  51   1.0000      -0.081421        -2.2156 
  52   1.0000      -0.065689        -1.7875 
  53   0.0000       0.065234         1.7751 
  54   0.0000       0.102820         2.7979 
  55   0.0000       0.123171         3.3516 
  56   0.0000       0.130339         3.5467 
  57   0.0000       0.140205         3.8152 
  58   0.0000       0.154699         4.2096 
  59   0.0000       0.166795         4.5387 
  60   0.0000       0.175843         4.7849 
  61   0.0000       0.185195         5.0394 
  62   0.0000       0.205628         5.5954 
  63   0.0000       0.214001         5.8233 
  64   0.0000       0.226916         6.1747 
  65   0.0000       0.236592         6.4380 
  66   0.0000       0.247943         6.7469 
  67   0.0000       0.256632         6.9833 
  68   0.0000       0.273530         7.4431 
  69   0.0000       0.285051         7.7566 
  70   0.0000       0.296763         8.0753 
  71   0.0000       0.298737         8.1290 
  72   0.0000       0.302047         8.2191 
  73   0.0000       0.314013         8.5447 
  74   0.0000       0.320701         8.7267 
  75   0.0000       0.325433         8.8555 
  76   0.0000       0.331156         9.0112 
  77   0.0000       0.346060         9.4168 
  78   0.0000       0.348919         9.4946 
  79   0.0000       0.361069         9.8252 
  80   0.0000       0.364452         9.9172 
  81   0.0000       0.367376         9.9968 
  82   0.0000       0.378048        10.2872 
  83   0.0000       0.382729        10.4146 
  84   0.0000       0.392602        10.6832 
  85   0.0000       0.399852        10.8805 
  86   0.0000       0.406642        11.0653 
  87   0.0000       0.408642        11.1197 
  88   0.0000       0.417895        11.3715 
  89   0.0000       0.421882        11.4800 
  90   0.0000       0.429534        11.6882 
  91   0.0000       0.439858        11.9691 
  92   0.0000       0.456673        12.4267 
  93   0.0000       0.459829        12.5126 
  94   0.0000       0.471175        12.8213 
  95   0.0000       0.481795        13.1103 
  96   0.0000       0.499321        13.5872 
  97   0.0000       0.506693        13.7878 
  98   0.0000       0.520436        14.1618 
  99   0.0000       0.527524        14.3547 
 100   0.0000       0.533833        14.5263 
 101   0.0000       0.541929        14.7466 
 102   0.0000       0.554094        15.0777 
 103   0.0000       0.556845        15.1525 
 104   0.0000       0.575921        15.6716 
 105   0.0000       0.583123        15.8676 
 106   0.0000       0.594672        16.1818 
 107   0.0000       0.598153        16.2766 
 108   0.0000       0.624689        16.9987 
 109   0.0000       0.630273        17.1506 
 110   0.0000       0.644267        17.5314 
 111   0.0000       0.646729        17.5984 
 112   0.0000       0.658691        17.9239 
 113   0.0000       0.663495        18.0546 
 114   0.0000       0.684883        18.6366 
 115   0.0000       0.689590        18.7647 
 116   0.0000       0.710058        19.3217 
 117   0.0000       0.717558        19.5257 
 118   0.0000       0.747009        20.3271 
 119   0.0000       0.753089        20.4926 
 120   0.0000       0.767422        20.8826 
 121   0.0000       0.787060        21.4170 
 122   0.0000       0.823389        22.4056 
 123   0.0000       0.838483        22.8163 
 124   0.0000       0.869344        23.6560 
 125   0.0000       0.885992        24.1091 
 126   0.0000       0.891624        24.2623 
 127   0.0000       0.895316        24.3628 
 128   0.0000       0.914122        24.8745 
 129   0.0000       0.919191        25.0125 
 130   0.0000       0.940122        25.5820 
 131   0.0000       0.955093        25.9894 
 132   0.0000       0.965586        26.2749 
 133   0.0000       0.974550        26.5188 
 134   0.0000       0.980077        26.6692 
 135   0.0000       0.985285        26.8110 
 136   0.0000       0.989090        26.9145 
 137   0.0000       0.991972        26.9929 
 138   0.0000       1.002918        27.2908 
 139   0.0000       1.012186        27.5430 
 140   0.0000       1.024106        27.8674 
 141   0.0000       1.027921        27.9712 
 142   0.0000       1.032541        28.0969 
 143   0.0000       1.048184        28.5225 
 144   0.0000       1.051678        28.6176 
 145   0.0000       1.058508        28.8035 
 146   0.0000       1.079365        29.3710 
 147   0.0000       1.098587        29.8941 
 148   0.0000       1.101254        29.9666 
 149   0.0000       1.124122        30.5889 
 150   0.0000       1.125728        30.6326 
 151   0.0000       1.132513        30.8172 
 152   0.0000       1.149637        31.2832 
 153   0.0000       1.157767        31.5044 
 154   0.0000       1.177542        32.0426 
 155   0.0000       1.187506        32.3137 
 156   0.0000       1.190687        32.4002 
 157   0.0000       1.209111        32.9016 
 158   0.0000       1.224728        33.3265 
 159   0.0000       1.247660        33.9505 
 160   0.0000       1.267608        34.4934 
 161   0.0000       1.279366        34.8133 
 162   0.0000       1.292434        35.1689 
 163   0.0000       1.320784        35.9403 
 164   0.0000       1.331084        36.2206 
 165   0.0000       1.346490        36.6398 
 166   0.0000       1.382190        37.6113 
 167   0.0000       1.396417        37.9984 
 168   0.0000       1.414656        38.4948 
 169   0.0000       1.437921        39.1278 
 170   0.0000       1.451894        39.5080 
 171   0.0000       1.460007        39.7288 
 172   0.0000       1.494325        40.6627 
 173   0.0000       1.499497        40.8034 
 174   0.0000       1.512596        41.1598 
 175   0.0000       1.527455        41.5642 
 176   0.0000       1.549251        42.1573 
 177   0.0000       1.569958        42.7207 
 178   0.0000       1.582476        43.0614 
 179   0.0000       1.589120        43.2422 
 180   0.0000       1.607568        43.7442 
 181   0.0000       1.610476        43.8233 
 182   0.0000       1.631404        44.3928 
 183   0.0000       1.641710        44.6732 
 184   0.0000       1.649485        44.8848 
 185   0.0000       1.662755        45.2459 
 186   0.0000       1.685128        45.8547 
 187   0.0000       1.694768        46.1170 
 188   0.0000       1.698128        46.2084 
 189   0.0000       1.716141        46.6986 
 190   0.0000       1.726889        46.9910 
 191   0.0000       1.747423        47.5498 
 192   0.0000       1.760153        47.8962 
 193   0.0000       1.774945        48.2987 
 194   0.0000       1.790842        48.7313 
 195   0.0000       1.804307        49.0977 
 196   0.0000       1.823837        49.6291 
 197   0.0000       1.831045        49.8253 
 198   0.0000       1.842011        50.1237 
 199   0.0000       1.855898        50.5016 
 200   0.0000       1.864392        50.7327 
 201   0.0000       1.895502        51.5792 
 202   0.0000       1.912277        52.0357 
 203   0.0000       1.931281        52.5528 
 204   0.0000       1.947360        52.9904 
 205   0.0000       1.948212        53.0135 
 206   0.0000       1.967513        53.5387 
 207   0.0000       1.970079        53.6086 
 208   0.0000       1.992831        54.2277 
 209   0.0000       2.017703        54.9045 
 210   0.0000       2.032456        55.3060 
 211   0.0000       2.057194        55.9791 
 212   0.0000       2.070692        56.3464 
 213   0.0000       2.102089        57.2007 
 214   0.0000       2.131736        58.0075 
 215   0.0000       2.150193        58.5097 
 216   0.0000       2.152385        58.5694 
 217   0.0000       2.165219        58.9186 
 218   0.0000       2.183180        59.4074 
 219   0.0000       2.226751        60.5930 
 220   0.0000       2.240827        60.9760 
 221   0.0000       2.256431        61.4006 
 222   0.0000       2.257737        61.4361 
 223   0.0000       2.270122        61.7732 
 224   0.0000       2.315106        62.9972 
 225   0.0000       2.335064        63.5403 
 226   0.0000       2.350000        63.9467 
 227   0.0000       2.376254        64.6612 
 228   0.0000       2.395718        65.1908 
 229   0.0000       2.427295        66.0500 
 230   0.0000       2.452886        66.7464 
 231   0.0000       2.471383        67.2497 
 232   0.0000       2.479522        67.4712 
 233   0.0000       2.482088        67.5410 
 234   0.0000       2.499523        68.0155 
 235   0.0000       2.564126        69.7734 
 236   0.0000       2.576119        70.0998 
 237   0.0000       2.592793        70.5535 
 238   0.0000       2.617870        71.2359 
 239   0.0000       2.637022        71.7570 
 240   0.0000       2.648497        72.0693 
 241   0.0000       2.670728        72.6742 
 242   0.0000       2.687498        73.1305 
 243   0.0000       2.715312        73.8874 
 244   0.0000       2.747502        74.7633 
 245   0.0000       2.775978        75.5382 
 246   0.0000       2.813405        76.5566 
 247   0.0000       2.822008        76.7907 
 248   0.0000       2.840871        77.3040 
 249   0.0000       2.864209        77.9391 
 250   0.0000       2.867187        78.0201 
 251   0.0000       2.890235        78.6473 
 252   0.0000       2.900207        78.9186 
 253   0.0000       2.919148        79.4341 
 254   0.0000       2.931400        79.7675 
 255   0.0000       3.033281        82.5398 
 256   0.0000       3.102568        84.4252 
 257   0.0000       3.133040        85.2544 
 258   0.0000       3.216309        87.5202 
 259   0.0000       3.226659        87.8019 
 260   0.0000       3.259472        88.6948 
 261   0.0000       3.364948        91.5649 
 262   0.0000       3.380277        91.9820 
 263   0.0000       3.494947        95.1023 
 264   0.0000       3.503997        95.3486 
 265   0.0000       3.534241        96.1716 
 266   0.0000       3.552592        96.6709 
 267   0.0000       3.571172        97.1765 
 268   0.0000       3.631283        98.8122 
 269   0.0000       3.700539       100.6968 
 270   0.0000       5.070501       137.9753 
 271   0.0000       5.099954       138.7768 
 272   0.0000       5.111727       139.0972 
 273   0.0000       5.120649       139.3399 
 274   0.0000       5.137581       139.8007 
 275   0.0000       5.173009       140.7647 
 276   0.0000       5.203302       141.5891 
 277   0.0000       5.282310       143.7390 
 278   0.0000       5.309177       144.4701 
 279   0.0000       5.352763       145.6561 
 280   0.0000       5.365939       146.0146 
 281   0.0000       5.386870       146.5842 
 282   0.0000       5.425024       147.6224 
 283   0.0000       5.438248       147.9822 
 284   0.0000       5.481591       149.1617 
 285   0.0000       5.630541       153.2148 
 286   0.0000       5.739381       156.1765 
 287   0.0000       5.798471       157.7844 
 288   0.0000       5.836600       158.8220 
 289   0.0000       5.938881       161.6052 
 290   0.0000       7.428084       202.1284 
 291   0.0000       7.489770       203.8070 
 292   0.0000       9.168122       249.4773 
 293   0.0000       9.178951       249.7719 
 294   0.0000       9.239070       251.4079 
 295   0.0000       9.361035       254.7267 
 296   0.0000      29.682200       807.6937 
 297   0.0000      29.712966       808.5309 
 298   0.0000      29.805151       811.0394 
 299   0.0000      30.003535       816.4377 
 300   0.0000      30.096114       818.9569 
 301   0.0000      30.160218       820.7012 
 302   0.0000      30.227546       822.5333 
 303   0.0000      30.350861       825.8889 
 304   0.0000      36.691286       998.4206 
 305   0.0000      36.721480       999.2423 
 306   0.0000      36.733579       999.5715 
 307   0.0000      36.749846      1000.0142 
 308   0.0000      36.795865      1001.2664 
 309   0.0000      36.817990      1001.8684 
 310   0.0000      36.893863      1003.9331 
 311   0.0000      36.909162      1004.3494 
 312   0.0000      36.933671      1005.0163 
 313   0.0000      37.005932      1006.9826 
 314   0.0000      37.019799      1007.3600 
 315   0.0000      37.061480      1008.4941 
 316   0.0000      41.361197      1125.4954 
 317   0.0000      41.435341      1127.5129 
 318   0.0000      53.708883      1461.4930 
 319   0.0000      53.717474      1461.7268 
 320   0.0000      53.776145      1463.3233 
 321   0.0000      53.895889      1466.5817 

                    ********************************
                    * MULLIKEN POPULATION ANALYSIS *
                    ********************************

--------------------------------------------
MULLIKEN ATOMIC CHARGES AND SPIN POPULATIONS
--------------------------------------------
   0 N :   -0.077766   -0.002046
   1 C :   -0.056019    0.048334
   2 C :    0.019019    0.007764
   3 O :   -0.392144   -0.001306
   4 C :   -0.339666   -0.051273
   5 C :   -0.150665    0.943273
   6 H :    0.119670   -0.044186
   7 C :    0.090568   -0.070980
   8 O :   -0.445865    0.035032
   9 O :   -0.424075    0.107959
  10 H :    0.235954    0.000285
  11 C :    0.173001   -0.001172
  12 N :   -0.041821   -0.002964
  13 H :    0.252907   -0.001548
  14 O :   -0.340938    0.001423
  15 C :   -0.578739    0.000105
  16 H :    0.174868    0.000022
  17 H :    0.171293    0.000049
  18 H :    0.146021    0.000016
  19 C :   -0.471077   -0.000568
  20 H :    0.149538    0.000106
  21 H :    0.156362   -0.000003
  22 H :    0.161265    0.000323
  23 H :    0.157150    0.004878
  24 H :    0.164498    0.004118
  25 H :    0.146658    0.022358
Sum of atomic charges         :   -1.0000000
Sum of atomic spin populations:    1.0000000

-----------------------------------------------------
MULLIKEN REDUCED ORBITAL CHARGES AND SPIN POPULATIONS
-----------------------------------------------------
CHARGE
  0 N s       :     3.354054  s :     3.354054
      pz      :     1.110357  p :     3.687918
      px      :     1.005627
      py      :     1.571934
      dz2     :     0.009632  d :     0.035794
      dxz     :     0.012394
      dyz     :     0.002171
      dx2y2   :     0.005472
      dxy     :     0.006126
  1 C s       :     3.133799  s :     3.133799
      pz      :     0.959177  p :     2.817839
      px      :     0.830316
      py      :     1.028346
      dz2     :     0.022530  d :     0.104381
      dxz     :     0.016826
      dyz     :     0.014413
      dx2y2   :     0.030606
      dxy     :     0.020006
[...]
  16 H :    0.048245    0.000048
  17 H :    0.046460   -0.000002
  18 H :    0.031361    0.000011
  19 C :   -0.014418   -0.000002
  20 H :    0.027510    0.000117
  21 H :    0.034300   -0.000004
  22 H :    0.032080    0.000073
  23 H :    0.066812    0.003095
  24 H :    0.057081    0.002987
  25 H :    0.056262    0.016762

----------------------------------------------------
LOEWDIN REDUCED ORBITAL CHARGES AND SPIN POPULATIONS
----------------------------------------------------
CHARGE
  0 N s       :     3.072404  s :     3.072404
      pz      :     1.143648  p :     3.779089
      px      :     1.140927
      py      :     1.494514
      dz2     :     0.019812  d :     0.082223
      dxz     :     0.027289
      dyz     :     0.006064
      dx2y2   :     0.014937
      dxy     :     0.014121
  1 C s       :     2.861088  s :     2.861088
      pz      :     1.020086  p :     2.926840
      px      :     0.883081
      py      :     1.023673
      dz2     :     0.059793  d :     0.251719
      dxz     :     0.043724
      dyz     :     0.033746
      dx2y2   :     0.065026
      dxy     :     0.049429
  2 C s       :     2.844135  s :     2.844135
      pz      :     0.994355  p :     2.781369
      px      :     0.962862
      py      :     0.824152
      dz2     :     0.141325  d :     0.480706
      dxz     :     0.111254
      dyz     :     0.052140
      dx2y2   :     0.088694
      dxy     :     0.087293
  3 O s       :     3.592166  s :     3.592166
      pz      :     1.568079  p :     4.627603
      px      :     1.582971
      py      :     1.476553
      dz2     :     0.006310  d :     0.030120
      dxz     :     0.010830
      dyz     :     0.005636
      dx2y2   :     0.003329
      dxy     :     0.004014
  4 C s       :     2.864994  s :     2.864994
      pz      :     1.005539  p :     3.037094
      px      :     1.013950
      py      :     1.017605
      dz2     :     0.031279  d :     0.174011
      dxz     :     0.021809
      dyz     :     0.044566
      dx2y2   :     0.043265
      dxy     :     0.033092
  5 C s       :     2.944720  s :     2.944720
      pz      :     0.926067  p :     2.935028
      px      :     1.014685
      py      :     0.994276
      dz2     :     0.014305  d :     0.141855
      dxz     :     0.013814
      dyz     :     0.021176
      dx2y2   :     0.042715
      dxy     :     0.049844
  6 H s       :     0.874112  s :     0.874112
      pz      :     0.022201  p :     0.089011
      px      :     0.039540
      py      :     0.027271
  7 C s       :     2.845489  s :     2.845489
      pz      :     0.836158  p :     2.791170
      px      :     0.974285
      py      :     0.980727
      dz2     :     0.042721  d :     0.578087
      dxz     :     0.053214
      dyz     :     0.114008
      dx2y2   :     0.166231
      dxy     :     0.201913
  8 O s       :     3.616175  s :     3.616175
      pz      :     1.565918  p :     4.682741
      px      :     1.549155
      py      :     1.567667
      dz2     :     0.003301  d :     0.025349
      dxz     :     0.004318
      dyz     :     0.002895
      dx2y2   :     0.004928
      dxy     :     0.009907
  9 O s       :     3.610900  s :     3.610900
      pz      :     1.484105  p :     4.636294
      px      :     1.728047
      py      :     1.424143
      dz2     :     0.004221  d :     0.028198
      dxz     :     0.000041
      dyz     :     0.005538
      dx2y2   :     0.012876
      dxy     :     0.005523
 10 H s       :     0.757215  s :     0.757215
      pz      :     0.084081  p :     0.154134
      px      :     0.025668
      py      :     0.044385
 11 C s       :     2.844545  s :     2.844545
      pz      :     0.958824  p :     2.778865
      px      :     1.001985
      py      :     0.818055
      dz2     :     0.125764  d :     0.488544
      dxz     :     0.161879
      dyz     :     0.096776
      dx2y2   :     0.054534
      dxy     :     0.049590
 12 N s       :     3.101298  s :     3.101298
      pz      :     1.185463  p :     3.784541
      px      :     1.228693
      py      :     1.370385
      dz2     :     0.021257  d :     0.081780
      dxz     :     0.021521
      dyz     :     0.011278
      dx2y2   :     0.016041
      dxy     :     0.011682
 13 H s       :     0.693332  s :     0.693332
      pz      :     0.069462  p :     0.225883
      px      :     0.049376
      py      :     0.107046
 14 O s       :     3.587963  s :     3.587963
      pz      :     1.446960  p :     4.595317
      px      :     1.709221
      py      :     1.439135
      dz2     :     0.012552  d :     0.031407
      dxz     :     0.007804
      dyz     :     0.008369
      dx2y2   :     0.001226
      dxy     :     0.001456
 15 C s       :     2.878104  s :     2.878104
      pz      :     1.026196  p :     3.071854
      px      :     1.007509
      py      :     1.038149
      dz2     :     0.023967  d :     0.106222
      dxz     :     0.019149
      dyz     :     0.013872
      dx2y2   :     0.027931
      dxy     :     0.021303
 16 H s       :     0.870518  s :     0.870518
      pz      :     0.029394  p :     0.081237
      px      :     0.023301
      py      :     0.028542
 17 H s       :     0.872563  s :     0.872563
      pz      :     0.016998  p :     0.080978
      px      :     0.022106
      py      :     0.041874
 18 H s       :     0.887297  s :     0.887297
      pz      :     0.043266  p :     0.081343
      px      :     0.017789
      py      :     0.020288
 19 C s       :     2.864177  s :     2.864177
      pz      :     0.916167  p :     2.986714
      px      :     1.024267
      py      :     1.046281
      dz2     :     0.048265  d :     0.163527
      dxz     :     0.036165
      dyz     :     0.045225
      dx2y2   :     0.020076
      dxy     :     0.013796
 20 H s       :     0.894281  s :     0.894281
      pz      :     0.018116  p :     0.078210
      px      :     0.016404
      py      :     0.043690
 21 H s       :     0.887281  s :     0.887281
      pz      :     0.013344  p :     0.078419
      px      :     0.043292
      py      :     0.021783
 22 H s       :     0.888799  s :     0.888799
      pz      :     0.025877  p :     0.079120
      px      :     0.026678
      py      :     0.026566
 23 H s       :     0.851799  s :     0.851799
      pz      :     0.022116  p :     0.081389
      px      :     0.014223
      py      :     0.045051
 24 H s       :     0.859004  s :     0.859004
      pz      :     0.017793  p :     0.083915
      px      :     0.048087
      py      :     0.018035
 25 H s       :     0.860571  s :     0.860571
      pz      :     0.040805  p :     0.083166
      px      :     0.024963
      py      :     0.017398

SPIN
  0 N s       :     0.000463  s :     0.000463
      pz      :    -0.000099  p :    -0.000860
      px      :    -0.000774
      py      :     0.000014
      dz2     :     0.000025  d :     0.000479
      dxz     :     0.000153
      dyz     :    -0.000000
      dx2y2   :     0.000139
      dxy     :     0.000162
  1 C s       :     0.015704  s :     0.015704
      pz      :     0.008317  p :     0.032169
      px      :     0.007024
      py      :     0.016827
      dz2     :    -0.000441  d :    -0.000469
      dxz     :    -0.000066
      dyz     :    -0.000008
      dx2y2   :     0.000181
      dxy     :    -0.000135
  2 C s       :     0.002514  s :     0.002514
      pz      :    -0.000827  p :    -0.000400
      px      :    -0.000077
      py      :     0.000503
      dz2     :     0.000293  d :     0.000591
      dxz     :     0.000071
      dyz     :     0.000173
      dx2y2   :     0.000043
      dxy     :     0.000011
  3 O s       :     0.000070  s :     0.000070
      pz      :     0.000765  p :     0.000473
      px      :     0.000107
      py      :    -0.000398
      dz2     :    -0.000002  d :    -0.000004
      dxz     :     0.000000
      dyz     :     0.000001
      dx2y2   :    -0.000001
      dxy     :    -0.000001
  4 C s       :    -0.002691  s :    -0.002691
      pz      :    -0.005026  p :    -0.019711
      px      :    -0.002923
      py      :    -0.011762
      dz2     :     0.004736  d :     0.034485
      dxz     :     0.001220
      dyz     :     0.020430
      dx2y2   :     0.004433
      dxy     :     0.003666
  5 C s       :     0.023447  s :     0.023447
      pz      :     0.622914  p :     0.742040
      px      :     0.055030
      py      :     0.064097
      dz2     :    -0.001160  d :    -0.003890
      dxz     :    -0.000532
      dyz     :    -0.000367
      dx2y2   :    -0.000910
      dxy     :    -0.000920
  6 H s       :    -0.017918  s :    -0.017918
      pz      :     0.017851  p :     0.023918
      px      :     0.003726
      py      :     0.002341
  7 C s       :    -0.005641  s :    -0.005641
      pz      :    -0.021248  p :    -0.035429
      px      :    -0.010469
      py      :    -0.003712
      dz2     :     0.006143  d :     0.028186
      dxz     :     0.012800
      dyz     :     0.006750
      dx2y2   :     0.001110
      dxy     :     0.001383
  8 O s       :    -0.000450  s :    -0.000450
      pz      :     0.021512  p :     0.035482
      px      :     0.011694
      py      :     0.002275
      dz2     :    -0.000057  d :    -0.000302
      dxz     :    -0.000058
      dyz     :    -0.000068
      dx2y2   :    -0.000085
      dxy     :    -0.000035
  9 O s       :     0.001143  s :     0.001143
      pz      :     0.120413  p :     0.120076
      px      :    -0.002030
      py      :     0.001693
      dz2     :     0.000009  d :    -0.000425
      dxz     :     0.000012
      dyz     :    -0.000281
      dx2y2   :    -0.000071
      dxy     :    -0.000093
 10 H s       :     0.000789  s :     0.000789
      pz      :    -0.000015  p :    -0.000022
      px      :    -0.000020
      py      :     0.000013
 11 C s       :     0.000306  s :     0.000306
      pz      :     0.000082  p :     0.000112
      px      :     0.000031
      py      :    -0.000001
      dz2     :     0.000007  d :     0.000030
      dxz     :     0.000051
      dyz     :    -0.000034
      dx2y2   :     0.000015
      dxy     :    -0.000009
 12 N s       :     0.000079  s :     0.000079
      pz      :     0.000069  p :     0.001346
      px      :     0.000629
      py      :     0.000649
      dz2     :    -0.000002  d :    -0.000005
      dxz     :    -0.000014
      dyz     :    -0.000016
      dx2y2   :     0.000010
      dxy     :     0.000018
 13 H s       :     0.000101  s :     0.000101
      pz      :    -0.000153  p :     0.000028
      px      :     0.000126
      py      :     0.000055
 14 O s       :     0.000319  s :     0.000319
      pz      :     0.000004  p :     0.000742
      px      :     0.000448
      py      :     0.000290
      dz2     :     0.000001  d :    -0.000000
      dxz     :    -0.000000
      dyz     :     0.000000
      dx2y2   :    -0.000000
      dxy     :    -0.000000
 15 C s       :     0.000003  s :     0.000003
      pz      :     0.000013  p :     0.000018
      px      :    -0.000001
      py      :     0.000006
      dz2     :    -0.000000  d :     0.000018
      dxz     :     0.000011
      dyz     :     0.000003
      dx2y2   :     0.000001
      dxy     :     0.000003
 16 H s       :     0.000050  s :     0.000050
      pz      :     0.000000  p :    -0.000002
      px      :    -0.000003
      py      :     0.000000
 17 H s       :    -0.000002  s :    -0.000002
      pz      :    -0.000000  p :     0.000000
      px      :    -0.000000
      py      :     0.000001
 18 H s       :     0.000008  s :     0.000008
      pz      :    -0.000001  p :     0.000003
      px      :     0.000004
      py      :    -0.000000
 19 C s       :     0.000006  s :     0.000006
      pz      :    -0.000083  p :    -0.000079
      px      :     0.000002
      py      :     0.000003
      dz2     :    -0.000004  d :     0.000070
      dxz     :     0.000024
      dyz     :     0.000055
      dx2y2   :    -0.000000
      dxy     :    -0.000005
 20 H s       :     0.000126  s :     0.000126
      pz      :    -0.000006  p :    -0.000010
      px      :    -0.000002
      py      :    -0.000002
 21 H s       :     0.000006  s :     0.000006
      pz      :    -0.000004  p :    -0.000009
      px      :    -0.000002
      py      :    -0.000003
 22 H s       :     0.000069  s :     0.000069
      pz      :    -0.000001  p :     0.000003
      px      :    -0.000001
      py      :     0.000005
 23 H s       :     0.001691  s :     0.001691
      pz      :     0.000211  p :     0.001404
      px      :     0.000182
      py      :     0.001011
 24 H s       :     0.003536  s :     0.003536
      pz      :     0.000116  p :    -0.000549
      px      :    -0.000196
      py      :    -0.000469
 25 H s       :     0.017543  s :     0.017543
      pz      :    -0.000228  p :    -0.000781
      px      :    -0.000156
      py      :    -0.000397


                      *****************************
                      * MAYER POPULATION ANALYSIS *
                      *****************************

  NA   - Mulliken gross atomic population
  ZA   - Total nuclear charge
  QA   - Mulliken gross atomic charge
  VA   - Mayer's total valence
  BVA  - Mayer's bonded valence
  FA   - Mayer's free valence

  ATOM       NA         ZA         QA         VA         BVA        FA
  0 N      7.0959     7.0000    -0.0959     3.2796     3.2796     0.0000
  1 C      6.0494     6.0000    -0.0494     4.0209     4.0181     0.0028
  2 C      5.9728     6.0000     0.0272     4.0332     4.0331     0.0001
  3 O      8.4052     8.0000    -0.4052     2.0018     2.0018    -0.0000
  4 C      6.3418     6.0000    -0.3418     3.9825     3.9805     0.0020
  5 C      6.1414     6.0000    -0.1414     3.9411     3.2768     0.6643
  6 H      0.8776     1.0000     0.1224     0.9736     0.9713     0.0023
  7 C      5.8977     6.0000     0.1023     4.1154     4.1129     0.0025
  8 O      8.4500     8.0000    -0.4500     1.8578     1.8563     0.0015
  9 O      8.4247     8.0000    -0.4247     1.9094     1.8935     0.0159
 10 H      0.7626     1.0000     0.2374     0.9838     0.9838     0.0000
 11 C      5.8218     6.0000     0.1782     3.9465     3.9465     0.0000
 12 N      7.0612     7.0000    -0.0612     3.0575     3.0575     0.0000
 13 H      0.7423     1.0000     0.2577     1.0088     1.0088     0.0000
 14 O      8.3479     8.0000    -0.3479     2.0763     2.0763     0.0000
 15 C      6.5746     6.0000    -0.5746     3.8741     3.8741     0.0000
 16 H      0.8242     1.0000     0.1758     0.9609     0.9609     0.0000
 17 H      0.8279     1.0000     0.1721     0.9615     0.9615     0.0000
 18 H      0.8517     1.0000     0.1483     0.9720     0.9720     0.0000
 19 C      6.4707     6.0000    -0.4707     3.9909     3.9909    -0.0000
 20 H      0.8489     1.0000     0.1511     0.9552     0.9552     0.0000
 21 H      0.8432     1.0000     0.1568     0.9643     0.9643     0.0000
 22 H      0.8387     1.0000     0.1613     0.9588     0.9588     0.0000
 23 H      0.8422     1.0000     0.1578     0.9552     0.9552     0.0000
 24 H      0.8333     1.0000     0.1667     0.9652     0.9652     0.0000
 25 H      0.8524     1.0000     0.1476     0.9723     0.9719     0.0005

  Mayer bond orders larger than 0.100000
B(  0-N ,  1-C ) :   1.0066 B(  0-N , 10-H ) :   0.8959 B(  0-N , 11-C ) :   1.2329 
B(  1-C ,  2-C ) :   0.9131 B(  1-C ,  4-C ) :   0.9314 B(  1-C , 14-O ) :   0.1085 
B(  1-C , 23-H ) :   0.9773 B(  2-C ,  3-O ) :   1.7241 B(  2-C , 12-N ) :   1.2884 
B(  4-C ,  5-C ) :   0.9832 B(  4-C , 24-H ) :   0.9590 B(  4-C , 25-H ) :   0.9716 
B(  5-C ,  6-H ) :   1.0015 B(  5-C ,  7-C ) :   1.0397 B(  5-C ,  9-O ) :   0.1367 
B(  7-C ,  8-O ) :   1.4090 B(  7-C ,  9-O ) :   1.6365 B(  8-O , 13-H ) :   0.2296 
B( 11-C , 14-O ) :   1.8210 B( 11-C , 15-C ) :   0.8789 B( 12-N , 13-H ) :   0.7451 
B( 12-N , 19-C ) :   0.9587 B( 15-C , 16-H ) :   0.9663 B( 15-C , 17-H ) :   0.9677 
B( 15-C , 18-H ) :   0.9773 B( 19-C , 20-H ) :   0.9655 B( 19-C , 21-H ) :   0.9692 
B( 19-C , 22-H ) :   0.9555 

-------
TIMINGS
-------

Total SCF time: 0 days 0 hours 0 min 14 sec 

Total time                  ....      14.710 sec
Sum of individual times     ....      13.987 sec  ( 95.1%)

Fock matrix formation       ....      12.053 sec  ( 81.9%)
  Split-RI-J                ....       1.077 sec  (  8.9% of F)
  Chain of spheres X        ....       7.853 sec  ( 65.2% of F)
  XC integration            ....       2.785 sec  ( 23.1% of F)
    Basis function eval.    ....       0.278 sec  ( 10.0% of XC)
    Density eval.           ....       0.385 sec  ( 13.8% of XC)
    XC-Functional eval.     ....       0.064 sec  (  2.3% of XC)
    XC-Potential eval.      ....       0.225 sec  (  8.1% of XC)
Diagonalization             ....       0.437 sec  (  3.0%)
Density matrix formation    ....       0.025 sec  (  0.2%)
Population analysis         ....       0.057 sec  (  0.4%)
Initial guess               ....       0.047 sec  (  0.3%)
Orbital Transformation      ....       0.000 sec  (  0.0%)
Orbital Orthonormalization  ....       0.030 sec  (  0.2%)
DIIS solution               ....       0.239 sec  (  1.6%)
Grid generation             ....       1.129 sec  (  7.7%)

Maximum memory used throughout the entire SCF-calculation: 76.6 MB

-------------------------   --------------------
FINAL SINGLE POINT ENERGY      -722.312665280874
-------------------------   --------------------

                                *** OPTIMIZATION RUN DONE ***

                            ***************************************
                            *     ORCA property calculations      *
                            ***************************************

                                    ---------------------
                                    Active property flags
                                    ---------------------
   (+) Dipole Moment


------------------------------------------------------------------------------
                       ORCA ELECTRIC PROPERTIES CALCULATION
------------------------------------------------------------------------------

Dipole Moment Calculation                       ... on
Quadrupole Moment Calculation                   ... off
Polarizability Calculation                      ... off
GBWName                                         ... opt.gbw
Electron density                                ... opt.scfp
The origin for moment calculation is the CENTER OF MASS  = (-4.039046,  1.394111  0.320767)

-------------
DIPOLE MOMENT
-------------
                                X             Y             Z
Electronic contribution:      2.85115       2.64844      -2.35525
Nuclear contribution   :     -5.14613      -4.95824       2.98336
                        -----------------------------------------
Total Dipole Moment    :     -2.29498      -2.30980       0.62811
                        -----------------------------------------
Magnitude (a.u.)       :      3.31611
Magnitude (Debye)      :      8.42889



--------------------
Rotational spectrum 
--------------------
 
Rotational constants in cm-1:     0.030718     0.014511     0.011094 
Rotational constants in MHz :   920.902604   435.027717   332.583342 

 Dipole components along the rotational axes: 
x,y,z [a.u.] :    -2.865302     1.657726    -0.196482 
x,y,z [Debye]:    -7.283018     4.213605    -0.499417 

 

Timings for individual modules:

Sum of individual times         ...      414.897 sec (=   6.915 min)
GTO integral calculation        ...       35.507 sec (=   0.592 min)   8.6 %
SCF iterations                  ...      292.565 sec (=   4.876 min)  70.5 %
SCF Gradient evaluation         ...       86.348 sec (=   1.439 min)  20.8 %
Geometry relaxation             ...        0.478 sec (=   0.008 min)   0.1 %
                             ****ORCA TERMINATED NORMALLY****
TOTAL RUN TIME: 0 days 0 hours 7 minutes 25 seconds 251 msec
