
                                 *****************
                                 * O   R   C   A *
                                 *****************

                                            #,                                       
                                            ###                                      
                                            ####                                     
                                            #####                                    
                                            ######                                   
                                           ########,                                 
                                     ,,################,,,,,                         
                               ,,#################################,,                 
                          ,,##########################################,,             
                       ,#########################################, ''#####,          
                    ,#############################################,,   '####,        
                  ,##################################################,,,,####,       
                ,###########''''           ''''###############################       
              ,#####''   ,,,,##########,,,,          '''####'''          '####       
            ,##' ,,,,###########################,,,                        '##       
           ' ,,###''''                  '''############,,,                           
         ,,##''                                '''############,,,,        ,,,,,,###''
      ,#''                                            '''#######################'''  
     '                                                          ''''####''''         
             ,#######,   #######,   ,#######,      ##                                
            ,#'     '#,  ##    ##  ,#'     '#,    #''#        ######   ,####,        
            ##       ##  ##   ,#'  ##            #'  '#       #        #'  '#        
            ##       ##  #######   ##           ,######,      #####,   #    #        
            '#,     ,#'  ##    ##  '#,     ,#' ,#      #,         ##   #,  ,#        
             '#######'   ##     ##  '#######'  #'      '#     #####' # '####'        



                  #######################################################
                  #                        -***-                        #
                  #          Department of theory and spectroscopy      #
                  #    Directorship and core code : Frank Neese         #
                  #        Max Planck Institute fuer Kohlenforschung    #
                  #                Kaiser Wilhelm Platz 1               #
                  #                 D-45470 Muelheim/Ruhr               #
                  #                      Germany                        #
                  #                                                     #
                  #                  All rights reserved                #
                  #                        -***-                        #
                  #######################################################


                         Program Version 5.0.4 -  RELEASE  -


 With contributions from (in alphabetic order):
   Daniel Aravena         : Magnetic Suceptibility
   Michael Atanasov       : Ab Initio Ligand Field Theory (pilot matlab implementation)
   Alexander A. Auer      : GIAO ZORA, VPT2 properties, NMR spectrum
   Ute Becker             : Parallelization
   Giovanni Bistoni       : ED, misc. LED, open-shell LED, HFLD
   Martin Brehm           : Molecular dynamics
   Dmytro Bykov           : SCF Hessian
   Vijay G. Chilkuri      : MRCI spin determinant printing, contributions to CSF-ICE
   Dipayan Datta          : RHF DLPNO-CCSD density
   Achintya Kumar Dutta   : EOM-CC, STEOM-CC
   Dmitry Ganyushin       : Spin-Orbit,Spin-Spin,Magnetic field MRCI
   Miquel Garcia          : C-PCM and meta-GGA Hessian, CC/C-PCM, Gaussian charge scheme
   Yang Guo               : DLPNO-NEVPT2, F12-NEVPT2, CIM, IAO-localization
   Andreas Hansen         : Spin unrestricted coupled pair/coupled cluster methods
   Benjamin Helmich-Paris : MC-RPA, TRAH-SCF, COSX integrals
   Lee Huntington         : MR-EOM, pCC
   Robert Izsak           : Overlap fitted RIJCOSX, COSX-SCS-MP3, EOM
   Marcus Kettner         : VPT2
   Christian Kollmar      : KDIIS, OOCD, Brueckner-CCSD(T), CCSD density, CASPT2, CASPT2-K
   Simone Kossmann        : Meta GGA functionals, TD-DFT gradient, OOMP2, MP2 Hessian
   Martin Krupicka        : Initial AUTO-CI
   Lucas Lang             : DCDCAS
   Marvin Lechner         : AUTO-CI (C++ implementation), FIC-MRCC
   Dagmar Lenk            : GEPOL surface, SMD
   Dimitrios Liakos       : Extrapolation schemes; Compound Job, initial MDCI parallelization
   Dimitrios Manganas     : Further ROCIS development; embedding schemes
   Dimitrios Pantazis     : SARC Basis sets
   Anastasios Papadopoulos: AUTO-CI, single reference methods and gradients
   Taras Petrenko         : DFT Hessian,TD-DFT gradient, ASA, ECA, R-Raman, ABS, FL, XAS/XES, NRVS
   Peter Pinski           : DLPNO-MP2, DLPNO-MP2 Gradient
   Christoph Reimann      : Effective Core Potentials
   Marius Retegan         : Local ZFS, SOC
   Christoph Riplinger    : Optimizer, TS searches, QM/MM, DLPNO-CCSD(T), (RO)-DLPNO pert. Triples
   Tobias Risthaus        : Range-separated hybrids, TD-DFT gradient, RPA, STAB
   Michael Roemelt        : Original ROCIS implementation
   Masaaki Saitow         : Open-shell DLPNO-CCSD energy and density
   Barbara Sandhoefer     : DKH picture change effects
   Avijit Sen             : IP-ROCIS
   Kantharuban Sivalingam : CASSCF convergence, NEVPT2, FIC-MRCI
   Bernardo de Souza      : ESD, SOC TD-DFT
   Georgi Stoychev        : AutoAux, RI-MP2 NMR, DLPNO-MP2 response
   Willem Van den Heuvel  : Paramagnetic NMR
   Boris Wezisla          : Elementary symmetry handling
   Frank Wennmohs         : Technical directorship


 We gratefully acknowledge several colleagues who have allowed us to
 interface, adapt or use parts of their codes:
   Stefan Grimme, W. Hujo, H. Kruse, P. Pracht,  : VdW corrections, initial TS optimization,
                  C. Bannwarth, S. Ehlert          DFT functionals, gCP, sTDA/sTD-DF
   Ed Valeev, F. Pavosevic, A. Kumar             : LibInt (2-el integral package), F12 methods
   Garnet Chan, S. Sharma, J. Yang, R. Olivares  : DMRG
   Ulf Ekstrom                                   : XCFun DFT Library
   Mihaly Kallay                                 : mrcc  (arbitrary order and MRCC methods)
   Jiri Pittner, Ondrej Demel                    : Mk-CCSD
   Frank Weinhold                                : gennbo (NPA and NBO analysis)
   Christopher J. Cramer and Donald G. Truhlar   : smd solvation model
   Lars Goerigk                                  : TD-DFT with DH, B97 family of functionals
   V. Asgeirsson, H. Jonsson                     : NEB implementation
   FAccTs GmbH                                   : IRC, NEB, NEB-TS, DLPNO-Multilevel, CI-OPT
                                                   MM, QMMM, 2- and 3-layer-ONIOM, Crystal-QMMM,
                                                   LR-CPCM, SF, NACMEs, symmetry and pop. for TD-DFT,
                                                   nearIR, NL-DFT gradient (VV10), updates on ESD,
                                                   ML-optimized integration grids
   S Lehtola, MJT Oliveira, MAL Marques          : LibXC Library
   Liviu Ungur et al                             : ANISO software


 Your calculation uses the libint2 library for the computation of 2-el integrals
 For citations please refer to: http://libint.valeyev.net

 Your ORCA version has been built with support for libXC version: 5.1.0
 For citations please refer to: https://tddft.org/programs/libxc/

 This ORCA versions uses:
   CBLAS   interface :  Fast vector & matrix operations
   LAPACKE interface :  Fast linear algebra routines
   SCALAPACK package :  Parallel linear algebra routines
   Shared memory     :  Shared parallel matrices
   BLAS/LAPACK       :  OpenBLAS 0.3.15  USE64BITINT DYNAMIC_ARCH NO_AFFINITY Zen SINGLE_THREADED
        Core in use  :  Zen
   Copyright (c) 2011-2014, The OpenBLAS Project




***************************************
The coordinates will be read from file: opt.xyz
***************************************


XCFun DFT library Copyright 2009-2010 Ulf Ekstrom and contributors.
See http://admol.org/xcfun for more information.
This is free software; see the source code for copying conditions.
There is ABSOLUTELY NO WARRANTY; not even for MERCHANTABILITY or FITNESS FOR A PARTICULAR PURPOSE.
For details see the documentation.
Scientific users of this library should cite U. Ekstrom, L. Visscher, R. Bast, A. J. Thorvaldsen and K. Ruud;
J.Chem.Theor.Comp. 2010, DOI: 10.1021/ct100117s
XCFun Version 0.99 

================================================================================

----- Orbital basis set information -----
Your calculation utilizes the basis: def2-TZVP
   F. Weigend and R. Ahlrichs, Phys. Chem. Chem. Phys. 7, 3297 (2005).

----- AuxJ basis set information -----
Your calculation utilizes the auxiliary basis: def2/J
   F. Weigend, Phys. Chem. Chem. Phys. 8, 1057 (2006).

================================================================================
                                        WARNINGS
                       Please study these warnings very carefully!
================================================================================


WARNING: your system is open-shell and RHF/RKS was chosen
  ===> : WILL SWITCH to UHF/UKS


WARNING: Geometry Optimization
  ===> : Switching off AutoStart
         For restart on a previous wavefunction, please use MOREAD

WARNING: Minnesota functionals are quite sensitive to the integration grid.
         see SE Wheeler, KN Houk, JCTC 2010, 6, 395,
             N Mardirossian, M Head-Gordon, JCTC 2016, 12, 4303.
         DEFGRID3 seems to be a minimum grid for reliable results with these functionals!
  ===> : Please increase the integration grid!


INFO   : the flag for use of the SHARK integral package has been found!

================================================================================
                                       INPUT FILE
================================================================================
NAME = freq.inp
|  1> ! M062X def2-TZVP OPT FREQ
|  2> %pal nprocs 16 end
|  3> *XYZFile 0 2 opt.xyz
|  4> 
|  5>                          ****END OF INPUT****
================================================================================

                       *****************************
                       * Geometry Optimization Run *
                       *****************************

Geometry optimization settings:
Update method            Update   .... BFGS
Choice of coordinates    CoordSys .... Z-matrix Internals
Initial Hessian          InHess   .... Almoef's Model

Convergence Tolerances:
Energy Change            TolE     ....  5.0000e-06 Eh
Max. Gradient            TolMAXG  ....  3.0000e-04 Eh/bohr
RMS Gradient             TolRMSG  ....  1.0000e-04 Eh/bohr
Max. Displacement        TolMAXD  ....  4.0000e-03 bohr
RMS Displacement         TolRMSD  ....  2.0000e-03 bohr
Strict Convergence                ....  False
------------------------------------------------------------------------------
                        ORCA OPTIMIZATION COORDINATE SETUP
------------------------------------------------------------------------------

The optimization will be done in new redundant internal coordinates
Making redundant internal coordinates   ...  (new redundants) done
Evaluating the initial hessian          ...  (Almloef) done
Evaluating the coordinates              ...  done
Calculating the B-matrix                .... done
Calculating the G-matrix                .... done
Diagonalizing the G-matrix              .... done
Small eigenvalue found = 6.484e-03
Small eigenvalue found = 7.151e-03
Small eigenvalue found = 1.014e-02
Small eigenvalue found = 2.565e-02
Small eigenvalue found = 2.821e-02
The first mode is                       ....   67
The number of degrees of freedom        ....   90

    -----------------------------------------------------------------
                    Redundant Internal Coordinates


    -----------------------------------------------------------------
         Definition                    Initial Value    Approx d2E/dq
    -----------------------------------------------------------------
      1. B(C   1,N   0)                  1.4536         0.442933   
      2. B(C   2,C   1)                  1.5428         0.356405   
      3. B(O   3,C   2)                  1.2330         0.996309   
      4. B(C   4,C   1)                  1.5539         0.342166   
      5. B(C   5,C   4)                  1.5376         0.363246   
      6. B(C   6,C   5)                  1.5381         0.362663   
      7. B(C   7,C   6)                  1.5345         0.367393   
      8. B(N   8,C   7)                  1.4505         0.448133   
      9. B(H   9,N   8)                  1.0291         0.403403   
     10. B(H  10,N   0)                  1.0120         0.429539   
     11. B(C  11,N   0)                  1.3674         0.608137   
     12. B(N  12,C   2)                  1.3643         0.615050   
     13. B(H  13,N  12)                  1.0087         0.434721   
     14. B(O  14,C  11)                  1.2319         1.000127   
     15. B(C  15,C  11)                  1.5260         0.379133   
     16. B(H  16,C  15)                  1.0935         0.355469   
     17. B(H  17,C  15)                  1.0933         0.355795   
     18. B(H  18,C  15)                  1.0933         0.355784   
     19. B(C  19,N  12)                  1.4590         0.434349   
     20. B(H  20,C  19)                  1.0954         0.353069   
     21. B(H  21,C  19)                  1.0948         0.353849   
     22. B(H  22,C  19)                  1.0900         0.360042   
     23. B(H  23,C   1)                  1.0971         0.350879   
     24. B(H  24,C   4)                  1.0980         0.349628   
     25. B(H  25,C   4)                  1.0951         0.353478   
     26. B(H  26,C   5)                  1.0984         0.349120   
     27. B(H  27,C   5)                  1.0972         0.350724   
     28. B(H  28,C   6)                  1.0973         0.350536   
     29. B(H  29,C   6)                  1.0969         0.351059   
     30. B(H  30,C   7)                  1.1067         0.338691   
     31. B(H  31,C   7)                  1.1063         0.339189   
     32. A(C   1,N   0,C  11)          122.1655         0.402162   
     33. A(C   1,N   0,H  10)          115.3049         0.338488   
     34. A(H  10,N   0,C  11)          121.4971         0.357046   
     35. A(N   0,C   1,H  23)          108.1255         0.330134   
     36. A(C   4,C   1,H  23)          107.5793         0.318337   
     37. A(C   2,C   1,H  23)          109.4305         0.320463   
     38. A(N   0,C   1,C   4)          112.7990         0.366221   
     39. A(C   2,C   1,C   4)          111.7898         0.355103   
     40. A(N   0,C   1,C   2)          107.0350         0.368791   
     41. A(O   3,C   2,N  12)          123.4238         0.466193   
     42. A(C   1,C   2,O   3)          121.6919         0.425138   
     43. A(C   1,C   2,N  12)          114.8676         0.390372   
     44. A(C   1,C   4,C   5)          114.7178         0.356251   
     45. A(H  24,C   4,H  25)          106.6519         0.288655   
     46. A(C   5,C   4,H  24)          109.6251         0.321274   
     47. A(C   1,C   4,H  24)          108.6978         0.318152   
     48. A(C   5,C   4,H  25)          110.0678         0.321850   
     49. A(C   1,C   4,H  25)          106.7445         0.318720   
     50. A(C   4,C   5,C   6)          112.4160         0.359793   
     51. A(C   4,C   5,H  27)          109.0225         0.321438   
     52. A(H  26,C   5,H  27)          106.3701         0.288236   
     53. A(C   6,C   5,H  27)          109.5125         0.321354   
     54. A(C   6,C   5,H  26)          109.3914         0.321113   
     55. A(C   4,C   5,H  26)          109.9448         0.321197   
     56. A(C   5,C   6,C   7)          112.8209         0.360490   
     57. A(H  28,C   6,H  29)          106.5333         0.288462   
     58. A(C   5,C   6,H  29)          110.0818         0.321404   
     59. A(C   5,C   6,H  28)          110.1527         0.321325   
     60. A(C   7,C   6,H  29)          108.5989         0.322086   
     61. A(C   7,C   6,H  28)          108.4370         0.322008   
     62. A(C   6,C   7,H  31)          110.1063         0.320279   
     63. A(H  30,C   7,H  31)          104.8412         0.285381   
     64. A(N   8,C   7,H  31)          109.7710         0.328925   
     65. A(N   8,C   7,H  30)          109.5309         0.328845   
     66. A(C   6,C   7,H  30)          110.1138         0.320202   
     67. A(C   6,C   7,N   8)          112.2181         0.371466   
     68. A(C   7,N   8,H   9)          106.2842         0.335619   
     69. A(O  14,C  11,C  15)          121.8771         0.430169   
     70. A(N   0,C  11,C  15)          115.7234         0.393838   
     71. A(N   0,C  11,O  14)          122.3966         0.465555   
     72. A(C   2,N  12,H  13)          118.0514         0.358463   
     73. A(H  13,N  12,C  19)          118.6550         0.338061   
     74. A(C   2,N  12,C  19)          123.2303         0.401577   
     75. A(H  17,C  15,H  18)          109.3748         0.289742   
     76. A(H  16,C  15,H  18)          109.2374         0.289700   
     77. A(C  11,C  15,H  18)          113.5322         0.324463   
     78. A(H  16,C  15,H  17)          107.5769         0.289702   
     79. A(C  11,C  15,H  17)          108.4620         0.324465   
     80. A(C  11,C  15,H  16)          108.4857         0.324416   
     81. A(H  20,C  19,H  22)          108.8869         0.289933   
     82. A(N  12,C  19,H  22)          107.7444         0.330473   
     83. A(H  20,C  19,H  21)          109.0594         0.289146   
     84. A(N  12,C  19,H  21)          110.7570         0.329527   
     85. A(N  12,C  19,H  20)          111.1370         0.329407   
     86. A(H  21,C  19,H  22)          109.2109         0.290034   
     87. D(C   4,C   1,N   0,C  11)     82.0440         0.016731   
     88. D(H  23,C   1,N   0,H  10)    131.7381         0.016731   
     89. D(H  23,C   1,N   0,C  11)    -36.7934         0.016731   
     90. D(C   4,C   1,N   0,H  10)   -109.4245         0.016731   
     91. D(C   2,C   1,N   0,H  10)     13.9378         0.016731   
     92. D(C   2,C   1,N   0,C  11)   -154.5937         0.016731   
     93. D(N  12,C   2,C   1,H  23)     48.3237         0.009568   
     94. D(N  12,C   2,C   1,C   4)    -70.7496         0.009568   
     95. D(O   3,C   2,C   1,H  23)   -133.1121         0.009568   
     96. D(O   3,C   2,C   1,C   4)    107.8146         0.009568   
     97. D(N  12,C   2,C   1,N   0)    165.2670         0.009568   
     98. D(O   3,C   2,C   1,N   0)    -16.1688         0.009568   
     99. D(C   5,C   4,C   1,C   2)    -58.5798         0.009469   
    100. D(C   5,C   4,C   1,H  23)   -178.7430         0.009469   
    101. D(C   5,C   4,C   1,N   0)     62.1023         0.009469   
    102. D(H  25,C   4,C   1,H  23)     59.0512         0.009469   
    103. D(H  25,C   4,C   1,C   2)    179.2144         0.009469   
    104. D(H  24,C   4,C   1,H  23)    -55.6408         0.009469   
    105. D(H  24,C   4,C   1,C   2)     64.5224         0.009469   
    106. D(H  24,C   4,C   1,N   0)   -174.7955         0.009469   
    107. D(H  25,C   4,C   1,N   0)    -60.1035         0.009469   
    108. D(H  27,C   5,C   4,H  25)     63.8991         0.010573   
    109. D(H  27,C   5,C   4,H  24)   -179.0903         0.010573   
    110. D(H  27,C   5,C   4,C   1)    -56.4871         0.010573   
    111. D(H  26,C   5,C   4,H  25)   -179.8533         0.010573   
    112. D(H  26,C   5,C   4,H  24)    -62.8427         0.010573   
    113. D(H  26,C   5,C   4,C   1)     59.7605         0.010573   
    114. D(C   6,C   5,C   4,H  25)    -57.7288         0.010573   
    115. D(C   6,C   5,C   4,H  24)     59.2818         0.010573   
    116. D(C   6,C   5,C   4,C   1)   -178.1150         0.010573   
    117. D(C   7,C   6,C   5,C   4)    178.9655         0.010541   
    118. D(H  29,C   6,C   5,H  26)    179.9189         0.010541   
    119. D(H  29,C   6,C   5,C   4)     57.4813         0.010541   
    120. D(H  28,C   6,C   5,H  27)    178.9445         0.010541   
    121. D(H  28,C   6,C   5,H  26)     62.7303         0.010541   
    122. D(H  28,C   6,C   5,C   4)    -59.7073         0.010541   
    123. D(C   7,C   6,C   5,H  27)     57.6174         0.010541   
    124. D(H  29,C   6,C   5,H  27)    -63.8669         0.010541   
    125. D(C   7,C   6,C   5,H  26)    -58.5968         0.010541   
    126. D(H  31,C   7,C   6,H  29)     63.9859         0.010800   
    127. D(H  31,C   7,C   6,C   5)    -58.3345         0.010800   
    128. D(H  30,C   7,C   6,H  29)    179.1077         0.010800   
    129. D(H  30,C   7,C   6,H  28)    -65.5082         0.010800   
    130. D(H  30,C   7,C   6,C   5)     56.7873         0.010800   
    131. D(N   8,C   7,C   6,H  29)    -58.6046         0.010800   
    132. D(H  31,C   7,C   6,H  28)    179.3700         0.010800   
    133. D(N   8,C   7,C   6,H  28)     56.7795         0.010800   
    134. D(N   8,C   7,C   6,C   5)    179.0750         0.010800   
    135. D(H   9,N   8,C   7,H  31)     56.5263         0.015815   
    136. D(H   9,N   8,C   7,H  30)    -58.0754         0.015815   
    137. D(H   9,N   8,C   7,C   6)    179.3064         0.015815   
    138. D(C  15,C  11,N   0,H  10)      8.2260         0.029859   
    139. D(C  15,C  11,N   0,C   1)    176.0561         0.029859   
    140. D(O  14,C  11,N   0,H  10)   -172.3859         0.029859   
    141. D(O  14,C  11,N   0,C   1)     -4.5557         0.029859   
    142. D(C  19,N  12,C   2,O   3)      0.0245         0.030594   
    143. D(C  19,N  12,C   2,C   1)    178.5607         0.030594   
    144. D(H  13,N  12,C   2,O   3)    177.0860         0.030594   
    145. D(H  13,N  12,C   2,C   1)     -4.3777         0.030594   
    146. D(H  17,C  15,C  11,O  14)     57.0586         0.010729   
    147. D(H  17,C  15,C  11,N   0)   -123.5498         0.010729   
    148. D(H  16,C  15,C  11,O  14)    -59.5124         0.010729   
    149. D(H  16,C  15,C  11,N   0)    119.8792         0.010729   
    150. D(H  18,C  15,C  11,O  14)    178.8522         0.010729   
    151. D(H  18,C  15,C  11,N   0)     -1.7562         0.010729   
    152. D(H  22,C  19,N  12,H  13)    177.3336         0.016085   
    153. D(H  22,C  19,N  12,C   2)     -5.6216         0.016085   
    154. D(H  21,C  19,N  12,H  13)     57.9442         0.016085   
    155. D(H  21,C  19,N  12,C   2)   -125.0111         0.016085   
    156. D(H  20,C  19,N  12,H  13)    -63.4506         0.016085   
    157. D(H  20,C  19,N  12,C   2)    113.5941         0.016085   
    -----------------------------------------------------------------

Number of atoms                         .... 32
Number of degrees of freedom            .... 157

         *************************************************************
         *                GEOMETRY OPTIMIZATION CYCLE   1            *
         *************************************************************
---------------------------------
CARTESIAN COORDINATES (ANGSTROEM)
---------------------------------
  N     -1.827890    0.776024    0.766471
  C     -1.496899   -0.115084   -0.333278
  C     -1.652820   -1.557598    0.191222
  O     -1.709629   -1.805575    1.397669
  C     -0.075628    0.139380   -0.907612
  C      1.071583   -0.089654    0.090268
  C      2.449358    0.221369   -0.518550
  C      3.599308    0.020111    0.477407
  N      4.893634    0.296176   -0.116193
  H      5.589756    0.145818    0.626660
  H     -1.871123    0.339864    1.678635
  C     -2.285822    2.047819    0.560314
  N     -1.690152   -2.518894   -0.776133
  H     -1.683113   -2.222224   -1.740232
  O     -2.368652    2.545447   -0.563596
  C     -2.676603    2.822661    1.815513
  H     -2.053636    3.719244    1.877514
  H     -3.714989    3.148647    1.711900
  H     -2.568247    2.244309    2.736944
  C     -1.801962   -3.943815   -0.483405
  H     -2.758447   -4.345434   -0.835073
  H     -0.985558   -4.501670   -0.953294
  H     -1.744112   -4.066310    0.598188
  H     -2.217217    0.058967   -1.142223
  H      0.068074   -0.500843   -1.788032
  H     -0.060820    1.173962   -1.266167
  H      1.056434   -1.128572    0.446590
  H      0.909670    0.542230    0.972489
  H      2.630184   -0.418634   -1.391377
  H      2.476496    1.256777   -0.879700
  H      3.585626   -1.014296    0.870555
  H      3.450151    0.662766    1.365446

----------------------------
CARTESIAN COORDINATES (A.U.)
----------------------------
  NO LB      ZA    FRAG     MASS         X           Y           Z
   0 N     7.0000    0    14.007   -3.454211    1.466472    1.448421
   1 C     6.0000    0    12.011   -2.828730   -0.217478   -0.629803
   2 C     6.0000    0    12.011   -3.123377   -2.943434    0.361357
   3 O     8.0000    0    15.999   -3.230731   -3.412041    2.641212
   4 C     6.0000    0    12.011   -0.142916    0.263391   -1.715137
   5 C     6.0000    0    12.011    2.024998   -0.169421    0.170581
   6 C     6.0000    0    12.011    4.628616    0.418327   -0.979917
   7 C     6.0000    0    12.011    6.801707    0.038005    0.902168
   8 N     7.0000    0    14.007    9.247627    0.559691   -0.219572
   9 H     1.0000    0     1.008   10.563109    0.275556    1.184216
  10 H     1.0000    0     1.008   -3.535910    0.642250    3.172160
  11 C     6.0000    0    12.011   -4.319577    3.869817    1.058841
  12 N     7.0000    0    14.007   -3.193925   -4.760020   -1.466678
  13 H     1.0000    0     1.008   -3.180622   -4.199395   -3.288561
  14 O     8.0000    0    15.999   -4.476104    4.810199   -1.065041
  15 C     6.0000    0    12.011   -5.058047    5.334056    3.430822
  16 H     1.0000    0     1.008   -3.880810    7.028353    3.547988
  17 H     1.0000    0     1.008   -7.020312    5.950081    3.235021
  18 H     1.0000    0     1.008   -4.853283    4.241130    5.172074
  19 C     6.0000    0    12.011   -3.405215   -7.452731   -0.913502
  20 H     1.0000    0     1.008   -5.212709   -8.211680   -1.578060
  21 H     1.0000    0     1.008   -1.862434   -8.506924   -1.801465
  22 H     1.0000    0     1.008   -3.295893   -7.684213    1.130412
  23 H     1.0000    0     1.008   -4.189933    0.111432   -2.158489
  24 H     1.0000    0     1.008    0.128641   -0.946457   -3.378892
  25 H     1.0000    0     1.008   -0.114934    2.218466   -2.392710
  26 H     1.0000    0     1.008    1.996371   -2.132693    0.843933
  27 H     1.0000    0     1.008    1.719027    1.024667    1.837738
  28 H     1.0000    0     1.008    4.970328   -0.791103   -2.629321
  29 H     1.0000    0     1.008    4.679899    2.374965   -1.662391
  30 H     1.0000    0     1.008    6.775852   -1.916742    1.645110
  31 H     1.0000    0     1.008    6.519841    1.252446    2.580319

--------------------------------
INTERNAL COORDINATES (ANGSTROEM)
--------------------------------
 N      0   0   0     0.000000000000     0.00000000     0.00000000
 C      1   0   0     1.453642435642     0.00000000     0.00000000
 C      2   1   0     1.542807844181   107.03501015     0.00000000
 O      3   2   1     1.232977999059   121.69188302   343.83116374
 C      2   1   3     1.553906309492   112.79904919   236.63768372
 C      5   2   1     1.537632084319   114.71784869    62.10228109
 C      6   5   2     1.538069429724   112.41603723   181.88501582
 C      7   6   5     1.534542120729   112.82093889   178.96554387
 N      8   7   6     1.450465206686   112.21813874   179.07501096
 H      9   8   7     1.029089494750   106.28417087   179.30640819
 H      1   2   3     1.012001042435   115.30490220    13.93778347
 C      1   2   3     1.367356831767   122.16547876   205.40628442
 N      3   2   1     1.364279581163   114.86763218   165.26695084
 H     13   3   2     1.008736343428   118.05135499   355.62225781
 O     12   1   2     1.231936940374   122.39660172   355.44426328
 C     12   1   2     1.525979627122   115.72341466   176.05613439
 H     16  12   1     1.093523471516   108.48574428   119.87919296
 H     16  12   1     1.093274167474   108.46201965   236.45022251
 H     16  12   1     1.093282527470   113.53221476   358.24382927
 C     13   3   2     1.458969700109   123.23028877   178.56071061
 H     20  13   3     1.095367783502   111.13697768   113.59413926
 H     20  13   3     1.094766816921   110.75699585   234.98893234
 H     20  13   3     1.090043511660   107.74441309   354.37839144
 H      2   1   3     1.097061612778   108.12545649   117.80035999
 H      5   2   1     1.098033396418   108.69779143   185.20449341
 H      5   2   1     1.095052680091   106.74448559   299.89648229
 H      6   5   2     1.098429366185   109.94477437    59.76048321
 H      6   5   2     1.097181757201   109.02246419   303.51288270
 H      7   6   5     1.097327751656   110.15268848   300.29266917
 H      7   6   5     1.096921429008   110.08183315    57.48128506
 H      8   7   6     1.106685043462   110.11383245    56.78729421
 H      8   7   6     1.106284966306   110.10630538   301.66553845

---------------------------
INTERNAL COORDINATES (A.U.)
---------------------------
 N      0   0   0     0.000000000000     0.00000000     0.00000000
 C      1   0   0     2.746986100010     0.00000000     0.00000000
 C      2   1   0     2.915484302768   107.03501015     0.00000000
 O      3   2   1     2.329990747371   121.69188302   343.83116374
 C      2   1   3     2.936457362712   112.79904919   236.63768372
 C      5   2   1     2.905703534093   114.71784869    62.10228109
 C      6   5   2     2.906529997134   112.41603723   181.88501582
 C      7   6   5     2.899864349144   112.82093889   178.96554387
 N      8   7   6     2.740982007417   112.21813874   179.07501096
 H      9   8   7     1.944697312373   106.28417087   179.30640819
 H      1   2   3     1.912404817445   115.30490220    13.93778347
 C      1   2   3     2.583929939385   122.16547876   205.40628442
 N      3   2   1     2.578114778499   114.86763218   165.26695084
 H     13   3   2     1.906235430412   118.05135499   355.62225781
 O     12   1   2     2.328023431568   122.39660172   355.44426328
 C     12   1   2     2.883683581203   115.72341466   176.05613439
 H     16  12   1     2.066459882180   108.48574428   119.87919296
 H     16  12   1     2.065988765816   108.46201965   236.45022251
 H     16  12   1     2.066004563919   113.53221476   358.24382927
 C     13   3   2     2.757053170896   123.23028877   178.56071061
 H     20  13   3     2.069945126740   111.13697768   113.59413926
 H     20  13   3     2.068809464485   110.75699585   234.98893234
 H     20  13   3     2.059883711095   107.74441309   354.37839144
 H      2   1   3     2.073146000188   108.12545649   117.80035999
 H      5   2   1     2.074982405130   108.69779143   185.20449341
 H      5   2   1     2.069349667588   106.74448559   299.89648229
 H      6   5   2     2.075730679546   109.94477437    59.76048321
 H      6   5   2     2.073373040245   109.02246419   303.51288270
 H      7   6   5     2.073648929781   110.15268848   300.29266917
 H      7   6   5     2.072881091255   110.08183315    57.48128506
 H      8   7   6     2.091331648649   110.11383245    56.78729421
 H      8   7   6     2.090575612393   110.10630538   301.66553845

---------------------
BASIS SET INFORMATION
---------------------
There are 4 groups of distinct atoms

 Group   1 Type N   : 11s6p2d1f contracted to 5s3p2d1f pattern {62111/411/11/1}
 Group   2 Type C   : 11s6p2d1f contracted to 5s3p2d1f pattern {62111/411/11/1}
 Group   3 Type O   : 11s6p2d1f contracted to 5s3p2d1f pattern {62111/411/11/1}
 Group   4 Type H   : 5s1p contracted to 3s1p pattern {311/1}

Atom   0N    basis set group =>   1
Atom   1C    basis set group =>   2
Atom   2C    basis set group =>   2
Atom   3O    basis set group =>   3
Atom   4C    basis set group =>   2
Atom   5C    basis set group =>   2
Atom   6C    basis set group =>   2
Atom   7C    basis set group =>   2
Atom   8N    basis set group =>   1
Atom   9H    basis set group =>   4
Atom  10H    basis set group =>   4
Atom  11C    basis set group =>   2
Atom  12N    basis set group =>   1
Atom  13H    basis set group =>   4
Atom  14O    basis set group =>   3
Atom  15C    basis set group =>   2
Atom  16H    basis set group =>   4
Atom  17H    basis set group =>   4
Atom  18H    basis set group =>   4
Atom  19C    basis set group =>   2
Atom  20H    basis set group =>   4
Atom  21H    basis set group =>   4
Atom  22H    basis set group =>   4
Atom  23H    basis set group =>   4
Atom  24H    basis set group =>   4
Atom  25H    basis set group =>   4
Atom  26H    basis set group =>   4
Atom  27H    basis set group =>   4
Atom  28H    basis set group =>   4
Atom  29H    basis set group =>   4
Atom  30H    basis set group =>   4
Atom  31H    basis set group =>   4
---------------------------------
AUXILIARY/J BASIS SET INFORMATION
---------------------------------
There are 4 groups of distinct atoms

 Group   1 Type N   : 12s5p4d2f1g contracted to 6s4p3d1f1g pattern {711111/2111/211/2/1}
 Group   2 Type C   : 12s5p4d2f1g contracted to 6s4p3d1f1g pattern {711111/2111/211/2/1}
 Group   3 Type O   : 12s5p4d2f1g contracted to 6s4p3d1f1g pattern {711111/2111/211/2/1}
 Group   4 Type H   : 5s2p1d contracted to 3s1p1d pattern {311/2/1}

Atom   0N    basis set group =>   1
Atom   1C    basis set group =>   2
Atom   2C    basis set group =>   2
Atom   3O    basis set group =>   3
Atom   4C    basis set group =>   2
Atom   5C    basis set group =>   2
Atom   6C    basis set group =>   2
Atom   7C    basis set group =>   2
Atom   8N    basis set group =>   1
Atom   9H    basis set group =>   4
Atom  10H    basis set group =>   4
Atom  11C    basis set group =>   2
Atom  12N    basis set group =>   1
Atom  13H    basis set group =>   4
Atom  14O    basis set group =>   3
Atom  15C    basis set group =>   2
Atom  16H    basis set group =>   4
Atom  17H    basis set group =>   4
Atom  18H    basis set group =>   4
Atom  19C    basis set group =>   2
Atom  20H    basis set group =>   4
Atom  21H    basis set group =>   4
Atom  22H    basis set group =>   4
Atom  23H    basis set group =>   4
Atom  24H    basis set group =>   4
Atom  25H    basis set group =>   4
Atom  26H    basis set group =>   4
Atom  27H    basis set group =>   4
Atom  28H    basis set group =>   4
Atom  29H    basis set group =>   4
Atom  30H    basis set group =>   4
Atom  31H    basis set group =>   4


           ************************************************************
           *        Program running with 16 parallel MPI-processes    *
           *              working on a common directory               *
           ************************************************************
------------------------------------------------------------------------------
                           ORCA GTO INTEGRAL CALCULATION
                           -- RI-GTO INTEGRALS CHOSEN --
------------------------------------------------------------------------------
------------------------------------------------------------------------------
                   ___                                                        
                  /   \      - P O W E R E D   B Y -                         
                 /     \                                                     
                 |  |  |   _    _      __       _____    __    __             
                 |  |  |  | |  | |    /  \     |  _  \  |  |  /  |          
                  \  \/   | |  | |   /    \    | | | |  |  | /  /          
                 / \  \   | |__| |  /  /\  \   | |_| |  |  |/  /          
                |  |  |   |  __  | /  /__\  \  |    /   |      \           
                |  |  |   | |  | | |   __   |  |    \   |  |\   \          
                \     /   | |  | | |  |  |  |  | |\  \  |  | \   \       
                 \___/    |_|  |_| |__|  |__|  |_| \__\ |__|  \__/        
                                                                              
                      - O R C A' S   B I G   F R I E N D -                    
                                      &                                       
                       - I N T E G R A L  F E E D E R -                       
                                                                              
 v1 FN, 2020, v2 2021                                                         
------------------------------------------------------------------------------


Reading SHARK input file freq.SHARKINP.tmp ... ok
----------------------
SHARK INTEGRAL PACKAGE
----------------------

Number of atoms                             ...     32
Number of basis functions                   ...    542
Number of shells                            ...    226
Maximum angular momentum                    ...      3
Integral batch strategy                     ... SHARK/LIBINT Hybrid
RI-J (if used) integral strategy            ... SPLIT-RIJ (Revised 2003 algorithm where possible)
Printlevel                                  ...      1
Contraction scheme used                     ... SEGMENTED contraction
Coulomb Range Separation                    ... NOT USED
Exchange Range Separation                   ... NOT USED
Finite Nucleus Model                        ... NOT USED
Auxiliary Coulomb fitting basis             ... AVAILABLE
   # of basis functions in Aux-J            ...    884
   # of shells in Aux-J                     ...    300
   Maximum angular momentum in Aux-J        ...      4
Auxiliary J/K fitting basis                 ... NOT available
Auxiliary Correlation fitting basis         ... NOT available
Auxiliary 'external' fitting basis          ... NOT available
Integral threshold                          ...     2.500000e-11
Primitive cut-off                           ...     2.500000e-12
Primitive pair pre-selection threshold      ...     2.500000e-12

Calculating pre-screening integrals         ... done (  0.0 sec) Dimension = 226
Organizing shell pair data                  ... done (  0.1 sec)
Shell pair information
Total number of shell pairs                 ...     25651
Shell pairs after pre-screening             ...     19373
Total number of primitive shell pairs       ...     75828
Primitive shell pairs kept                  ...     39860
          la=0 lb=0:   5801 shell pairs
          la=1 lb=0:   5747 shell pairs
          la=1 lb=1:   1469 shell pairs
          la=2 lb=0:   2573 shell pairs
          la=2 lb=1:   1290 shell pairs
          la=2 lb=2:    307 shell pairs
          la=3 lb=0:   1221 shell pairs
          la=3 lb=1:    618 shell pairs
          la=3 lb=2:    276 shell pairs
          la=3 lb=3:     71 shell pairs

Calculating one electron integrals          ... done (  0.0 sec)
Calculating RI/J V-Matrix + Cholesky decomp.... done (  0.0 sec)
Calculating Nuclear repulsion               ... done (  0.0 sec) ENN=    916.428229420932 Eh

SHARK setup successfully completed in   0.4 seconds

Maximum memory used throughout the entire GTOINT-calculation: 31.0 MB


           ************************************************************
           *        Program running with 16 parallel MPI-processes    *
           *              working on a common directory               *
           ************************************************************
-------------------------------------------------------------------------------
                                 ORCA SCF
-------------------------------------------------------------------------------

------------
SCF SETTINGS
------------
Hamiltonian:
 Density Functional     Method          .... DFT(GTOs)
 Exchange Functional    Exchange        .... M062X
 Correlation Functional Correlation     .... M062X
 Gradients option       PostSCFGGA      .... off
 Hybrid DFT is turned on
   Fraction HF Exchange ScalHFX         ....  0.540000
   Scaling of DF-GGA-X  ScalDFX         ....  0.460000
   Scaling of DF-GGA-C  ScalDFC         ....  1.000000
   Scaling of DF-LDA-C  ScalLDAC        ....  1.000000
   Perturbative correction              ....  0.000000
   Density functional embedding theory  .... OFF
 RI-approximation to the Coulomb term is turned on
   Number of AuxJ basis functions       .... 884
   RIJ-COSX (HFX calculated with COS-X)).... on


General Settings:
 Integral files         IntName         .... freq
 Hartree-Fock type      HFTyp           .... UHF
 Total Charge           Charge          ....    0
 Multiplicity           Mult            ....    2
 Number of Electrons    NEL             ....  109
 Basis Dimension        Dim             ....  542
 Nuclear Repulsion      ENuc            ....    916.4282294209 Eh

Convergence Acceleration:
 DIIS                   CNVDIIS         .... on
   Start iteration      DIISMaxIt       ....    12
   Startup error        DIISStart       ....  0.200000
   # of expansion vecs  DIISMaxEq       ....     5
   Bias factor          DIISBfac        ....   1.050
   Max. coefficient     DIISMaxC        ....  10.000
 Trust-Rad. Augm. Hess. CNVTRAH         .... auto
   Auto Start mean grad. ratio tolernc. ....  1.125000
   Auto Start start iteration           ....    20
   Auto Start num. interpolation iter.  ....    10
   Max. Number of Micro iterations      ....    16
   Max. Number of Macro iterations      .... Maxiter - #DIIS iter
   Number of Davidson start vectors     ....     2
   Converg. threshold I  (grad. norm)   ....   1.000e-05
   Converg. threshold II (energy diff.) ....   1.000e-08
   Grad. Scal. Fac. for Micro threshold ....   0.100
   Minimum threshold for Micro iter.    ....   0.010
   NR start threshold (gradient norm)   ....   0.001
   Initial trust radius                 ....   0.400
   Minimum AH scaling param. (alpha)    ....   1.000
   Maximum AH scaling param. (alpha)    .... 1000.000
   Orbital update algorithm             .... Taylor
   White noise on init. David. guess    .... on
   Maximum white noise                  ....   0.010
   Quad. conv. algorithm                .... NR
 SOSCF                  CNVSOSCF        .... off
 Level Shifting         CNVShift        .... on
   Level shift para.    LevelShift      ....    0.2500
   Turn off err/grad.   ShiftErr        ....    0.0010
 Zerner damping         CNVZerner       .... off
 Static damping         CNVDamp         .... on
   Fraction old density DampFac         ....    0.7000
   Max. Damping (<1)    DampMax         ....    0.9800
   Min. Damping (>=0)   DampMin         ....    0.0000
   Turn off err/grad.   DampErr         ....    0.1000
 Fernandez-Rico         CNVRico         .... off

SCF Procedure:
 Maximum # iterations   MaxIter         ....   125
 SCF integral mode      SCFMode         .... Direct
   Integral package                     .... SHARK and LIBINT hybrid scheme
 Reset frequency        DirectResetFreq ....    20
 Integral Threshold     Thresh          ....  2.500e-11 Eh
 Primitive CutOff       TCut            ....  2.500e-12 Eh

Convergence Tolerance:
 Convergence Check Mode ConvCheckMode   .... Total+1el-Energy
 Convergence forced     ConvForced      .... 0
 Energy Change          TolE            ....  1.000e-08 Eh
 1-El. energy change                    ....  1.000e-05 Eh
 DIIS Error             TolErr          ....  5.000e-07


Diagonalization of the overlap matrix:
Smallest eigenvalue                        ... 5.932e-05
Time for diagonalization                   ...    0.035 sec
Threshold for overlap eigenvalues          ... 1.000e-08
Number of eigenvalues below threshold      ... 0
Time for construction of square roots      ...    0.024 sec
Total time needed                          ...    0.061 sec

Time for model grid setup =    0.108 sec

------------------------------
INITIAL GUESS: MODEL POTENTIAL
------------------------------
Loading Hartree-Fock densities                     ... done
Calculating cut-offs                               ... done
Initializing the effective Hamiltonian             ... done
Setting up the integral package (SHARK)            ... done
Starting the Coulomb interaction                   ... done (   0.1 sec)
Reading the grid                                   ... done
Mapping shells                                     ... done
Starting the XC term evaluation                    ... done (   0.1 sec)
  promolecular density results
     # of electrons  =    108.988650800
     EX              =    -87.206919479
     EC              =     -3.610719973
     EX+EC           =    -90.817639452
Transforming the Hamiltonian                       ... done (   0.0 sec)
Diagonalizing the Hamiltonian                      ... done (   0.0 sec)
Back transforming the eigenvectors                 ... done (   0.0 sec)
Now organizing SCF variables                       ... done
                      ------------------
                      INITIAL GUESS DONE (   0.4 sec)
                      ------------------
-------------------
DFT GRID GENERATION
-------------------

General Integration Accuracy     IntAcc      ... 4.388
Radial Grid Type                 RadialGrid  ... OptM3 with GC (2021)
Angular Grid (max. ang.)         AngularGrid ... 4 (Lebedev-302)
Angular grid pruning method      GridPruning ... 4 (adaptive)
Weight generation scheme         WeightScheme... Becke
Basis function cutoff            BFCut       ... 1.0000e-11
Integration weight cutoff        WCut        ... 1.0000e-14
Angular grids for H and He will be reduced by one unit
Partially contracted basis set               ... off
Rotationally invariant grid construction     ... off

Total number of grid points                  ...   141565
Total number of batches                      ...     2230
Average number of points per batch           ...       63
Average number of grid points per atom       ...     4424
Time for grid setup =    0.606 sec

--------------------
COSX GRID GENERATION
--------------------

GRIDX 1
-------
General Integration Accuracy     IntAcc      ... 3.816
Radial Grid Type                 RadialGrid  ... OptM3 with GC (2021)
Angular Grid (max. ang.)         AngularGrid ... 1 (Lebedev-50)
Angular grid pruning method      GridPruning ... 4 (adaptive)
Weight generation scheme         WeightScheme... Becke
Basis function cutoff            BFCut       ... 1.0000e-11
Integration weight cutoff        WCut        ... 1.0000e-14
Angular grids for H and He will be reduced by one unit
Partially contracted basis set               ... on
Rotationally invariant grid construction     ... off

Total number of grid points                  ...    18075
Total number of batches                      ...      303
Average number of points per batch           ...       59
Average number of grid points per atom       ...      565
UseSFitting                                  ... on

GRIDX 2
-------
General Integration Accuracy     IntAcc      ... 4.020
Radial Grid Type                 RadialGrid  ... OptM3 with GC (2021)
Angular Grid (max. ang.)         AngularGrid ... 2 (Lebedev-110)
Angular grid pruning method      GridPruning ... 4 (adaptive)
Weight generation scheme         WeightScheme... Becke
Basis function cutoff            BFCut       ... 1.0000e-11
Integration weight cutoff        WCut        ... 1.0000e-14
Angular grids for H and He will be reduced by one unit
Partially contracted basis set               ... on
Rotationally invariant grid construction     ... off

Total number of grid points                  ...    38326
Total number of batches                      ...      618
Average number of points per batch           ...       62
Average number of grid points per atom       ...     1198
UseSFitting                                  ... on

GRIDX 3
-------
General Integration Accuracy     IntAcc      ... 4.338
Radial Grid Type                 RadialGrid  ... OptM3 with GC (2021)
Angular Grid (max. ang.)         AngularGrid ... 3 (Lebedev-194)
Angular grid pruning method      GridPruning ... 4 (adaptive)
Weight generation scheme         WeightScheme... Becke
Basis function cutoff            BFCut       ... 1.0000e-11
Integration weight cutoff        WCut        ... 1.0000e-14
Angular grids for H and He will be reduced by one unit
Partially contracted basis set               ... on
Rotationally invariant grid construction     ... off

Total number of grid points                  ...    83513
Total number of batches                      ...     1320
Average number of points per batch           ...       63
Average number of grid points per atom       ...     2610
UseSFitting                                  ... on

Time for X-Grid setup             =    0.812 sec

--------------
SCF ITERATIONS
--------------
ITER       Energy         Delta-E        Max-DP      RMS-DP      [F,P]     Damp
               ***  Starting incremental Fock matrix formation  ***
  0   -667.9414873840   0.000000000000 0.09272865  0.00052706  0.1515545 0.7000
  1   -668.1582676611  -0.216780277058 0.09445293  0.00044992  0.0722083 0.7000
                               ***Turning on DIIS***
  2   -668.2554587717  -0.097191110639 0.17443258  0.00083955  0.0267416 0.0000
  3   -668.4096602683  -0.154201496521 0.07401647  0.00033380  0.0356007 0.0000
  4   -668.4388274013  -0.029167133091 0.02405293  0.00010050  0.0061159 0.0000
  5   -668.4399469745  -0.001119573186 0.00621626  0.00003780  0.0040008 0.0000
  6   -668.4402276072  -0.000280632630 0.00335401  0.00001966  0.0025251 0.0000
  7   -668.4402913484  -0.000063741212 0.00177829  0.00001018  0.0015035 0.0000
  8   -668.4403139682  -0.000022619845 0.00181541  0.00000795  0.0007678 0.0000
               *** Restarting incremental Fock matrix formation ***
                                   *** Resetting DIIS ***
  9   -668.4403389489  -0.000024980669 0.00053152  0.00000550  0.0001229 0.0000
 10   -668.4403391610  -0.000000212081 0.00021760  0.00000100  0.0001362 0.0000
 11   -668.4403394476  -0.000000286598 0.00005633  0.00000042  0.0000413 0.0000
 12   -668.4403394687  -0.000000021107 0.00004787  0.00000022  0.0000292 0.0000
 13   -668.4403394824  -0.000000013697 0.00001594  0.00000008  0.0000072 0.0000
 14   -668.4403394735   0.000000008854 0.00000613  0.00000004  0.0000030 0.0000
 15   -668.4403394797  -0.000000006177 0.00000597  0.00000004  0.0000022 0.0000
 16   -668.4403394690   0.000000010649 0.00000364  0.00000002  0.0000017 0.0000
 17   -668.4403394849  -0.000000015862 0.00000343  0.00000003  0.0000013 0.0000
                            ***DIIS convergence achieved***

               *****************************************************
               *                     SUCCESS                       *
               *           SCF CONVERGED AFTER  18 CYCLES          *
               *****************************************************

Old exchange energy                            =    -48.239016531 Eh
New exchange energy                            =    -48.239004173 Eh
Exchange energy change after final integration =      0.000012358 Eh
Total energy after final integration           =   -668.440327107 Eh
Final COS-X integration done in                =     4.652 sec

----------------
TOTAL SCF ENERGY
----------------

Total Energy       :         -668.44032711 Eh          -18189.18602 eV

Components:
Nuclear Repulsion  :          916.42822942 Eh           24937.27991 eV
Electronic Energy  :        -1584.86855653 Eh          -43126.46593 eV
One Electron Energy:        -2726.40323577 Eh          -74189.20375 eV
Two Electron Energy:         1141.53467924 Eh           31062.73782 eV
Max COSX asymmetry :            0.00000121 Eh               0.00003 eV

Virial components:
Potential Energy   :        -1333.22468270 Eh          -36278.88800 eV
Kinetic Energy     :          664.78435559 Eh           18089.70198 eV
Virial Ratio       :            2.00549948


DFT components:
N(Alpha)           :       55.000103844157 electrons
N(Beta)            :       54.000102848710 electrons
N(Total)           :      109.000206692867 electrons
E(XC)              :      -44.987852007364 Eh       
DFET-embed. en.    :        0.000000000000 Eh       

---------------
SCF CONVERGENCE
---------------

  Last Energy change         ...    2.0330e-08  Tolerance :   1.0000e-08
  Last MAX-Density change    ...    0.0000e+00  Tolerance :   1.0000e-07
  Last RMS-Density change    ...    0.0000e+00  Tolerance :   5.0000e-09
  Last DIIS Error            ...    8.8711e-07  Tolerance :   5.0000e-07

             **** THE GBW FILE WAS UPDATED (freq.gbw) ****
             **** DENSITY freq.scfp WAS UPDATED ****
             **** ENERGY FILE WAS UPDATED (freq.en.tmp) ****
----------------------
UHF SPIN CONTAMINATION
----------------------

Warning: in a DFT calculation there is little theoretical justification to 
         calculate <S**2> as in Hartree-Fock theory. We will do it anyways
         but you should keep in mind that the values have only limited relevance

Expectation value of <S**2>     :     0.754404
Ideal value S*(S+1) for S=0.5   :     0.750000
Deviation                       :     0.004404

             **** THE GBW FILE WAS UPDATED (freq.gbw) ****
             **** DENSITY freq.scfp WAS UPDATED ****
----------------
ORBITAL ENERGIES
----------------
                 SPIN UP ORBITALS
  NO   OCC          E(Eh)            E(eV) 
   0   1.0000     -19.610016      -533.6157 
   1   1.0000     -19.586982      -532.9889 
   2   1.0000     -14.791545      -402.4984 
   3   1.0000     -14.770092      -401.9146 
   4   1.0000     -14.764772      -401.7699 
   5   1.0000     -10.660591      -290.0894 
   6   1.0000     -10.644032      -289.6388 
   7   1.0000     -10.596357      -288.3415 
   8   1.0000     -10.582276      -287.9584 
   9   1.0000     -10.567932      -287.5681 
  10   1.0000     -10.546914      -286.9961 
  11   1.0000     -10.541274      -286.8427 
  12   1.0000     -10.538552      -286.7686 
  13   1.0000     -10.534294      -286.6527 
  14   1.0000      -1.172849       -31.9148 
  15   1.0000      -1.149293       -31.2738 
  16   1.0000      -1.045488       -28.4492 
  17   1.0000      -1.031212       -28.0607 
  18   1.0000      -0.995272       -27.0827 
  19   1.0000      -0.905522       -24.6405 
  20   1.0000      -0.862315       -23.4648 
  21   1.0000      -0.826246       -22.4833 
  22   1.0000      -0.808695       -22.0057 
  23   1.0000      -0.760763       -20.7014 
  24   1.0000      -0.705485       -19.1972 
  25   1.0000      -0.683861       -18.6088 
  26   1.0000      -0.672723       -18.3057 
  27   1.0000      -0.649828       -17.6827 
  28   1.0000      -0.619819       -16.8661 
  29   1.0000      -0.567580       -15.4446 
  30   1.0000      -0.559645       -15.2287 
  31   1.0000      -0.552993       -15.0477 
  32   1.0000      -0.548063       -14.9136 
  33   1.0000      -0.541517       -14.7354 
  34   1.0000      -0.535610       -14.5747 
  35   1.0000      -0.524900       -14.2833 
  36   1.0000      -0.510489       -13.8911 
  37   1.0000      -0.500283       -13.6134 
  38   1.0000      -0.490008       -13.3338 
  39   1.0000      -0.476022       -12.9532 
  40   1.0000      -0.470898       -12.8138 
  41   1.0000      -0.463249       -12.6056 
  42   1.0000      -0.455357       -12.3909 
  43   1.0000      -0.449293       -12.2259 
  44   1.0000      -0.437913       -11.9162 
  45   1.0000      -0.428376       -11.6567 
  46   1.0000      -0.407453       -11.0874 
  47   1.0000      -0.397382       -10.8133 
  48   1.0000      -0.394994       -10.7483 
  49   1.0000      -0.361457        -9.8358 
  50   1.0000      -0.349660        -9.5147 
  51   1.0000      -0.339326        -9.2335 
  52   1.0000      -0.334598        -9.1049 
  53   1.0000      -0.328516        -8.9394 
  54   1.0000      -0.316734        -8.6188 
  55   0.0000       0.038381         1.0444 
  56   0.0000       0.047475         1.2919 
  57   0.0000       0.061227         1.6661 
  58   0.0000       0.064839         1.7644 
  59   0.0000       0.070184         1.9098 
  60   0.0000       0.083461         2.2711 
  61   0.0000       0.087046         2.3687 
  62   0.0000       0.104278         2.8376 
  63   0.0000       0.106929         2.9097 
  64   0.0000       0.114933         3.1275 
  65   0.0000       0.121942         3.3182 
  66   0.0000       0.132780         3.6131 
  67   0.0000       0.137770         3.7489 
  68   0.0000       0.145827         3.9681 
  69   0.0000       0.149062         4.0562 
  70   0.0000       0.152620         4.1530 
  71   0.0000       0.157562         4.2875 
  72   0.0000       0.159874         4.3504 
  73   0.0000       0.163592         4.4516 
  74   0.0000       0.172670         4.6986 
  75   0.0000       0.175036         4.7630 
  76   0.0000       0.184341         5.0162 
  77   0.0000       0.190069         5.1720 
  78   0.0000       0.198567         5.4033 
  79   0.0000       0.209478         5.7002 
  80   0.0000       0.214397         5.8340 
  81   0.0000       0.223405         6.0792 
  82   0.0000       0.231961         6.3120 
  83   0.0000       0.240115         6.5338 
  84   0.0000       0.246465         6.7067 
  85   0.0000       0.253796         6.9061 
  86   0.0000       0.256745         6.9864 
  87   0.0000       0.263313         7.1651 
  88   0.0000       0.263646         7.1742 
  89   0.0000       0.281553         7.6614 
  90   0.0000       0.288693         7.8557 
  91   0.0000       0.290730         7.9112 
  92   0.0000       0.297702         8.1009 
  93   0.0000       0.311900         8.4872 
  94   0.0000       0.318498         8.6668 
  95   0.0000       0.321390         8.7455 
  96   0.0000       0.337475         9.1832 
  97   0.0000       0.340962         9.2780 
  98   0.0000       0.348560         9.4848 
  99   0.0000       0.364613         9.9216 
 100   0.0000       0.367927        10.0118 
 101   0.0000       0.375336        10.2134 
 102   0.0000       0.388279        10.5656 
 103   0.0000       0.396343        10.7850 
 104   0.0000       0.404009        10.9936 
 105   0.0000       0.407853        11.0982 
 106   0.0000       0.413344        11.2477 
 107   0.0000       0.415897        11.3171 
 108   0.0000       0.423113        11.5135 
 109   0.0000       0.426656        11.6099 
 110   0.0000       0.437081        11.8936 
 111   0.0000       0.441977        12.0268 
 112   0.0000       0.446883        12.1603 
 113   0.0000       0.450594        12.2613 
 114   0.0000       0.452804        12.3214 
 115   0.0000       0.456083        12.4106 
 116   0.0000       0.459594        12.5062 
 117   0.0000       0.468972        12.7614 
 118   0.0000       0.470618        12.8062 
 119   0.0000       0.479685        13.0529 
 120   0.0000       0.482085        13.1182 
 121   0.0000       0.485921        13.2226 
 122   0.0000       0.490895        13.3579 
 123   0.0000       0.497247        13.5308 
 124   0.0000       0.497676        13.5425 
 125   0.0000       0.504572        13.7301 
 126   0.0000       0.513817        13.9817 
 127   0.0000       0.518543        14.1103 
 128   0.0000       0.530884        14.4461 
 129   0.0000       0.534177        14.5357 
 130   0.0000       0.535641        14.5755 
 131   0.0000       0.542610        14.7652 
 132   0.0000       0.551857        15.0168 
 133   0.0000       0.554808        15.0971 
 134   0.0000       0.557827        15.1793 
 135   0.0000       0.569887        15.5074 
 136   0.0000       0.577807        15.7229 
 137   0.0000       0.585994        15.9457 
 138   0.0000       0.591534        16.0965 
 139   0.0000       0.598359        16.2822 
 140   0.0000       0.605574        16.4785 
 141   0.0000       0.610954        16.6249 
 142   0.0000       0.612344        16.6627 
 143   0.0000       0.617282        16.7971 
 144   0.0000       0.627706        17.0808 
 145   0.0000       0.637091        17.3361 
 146   0.0000       0.645697        17.5703 
 147   0.0000       0.651231        17.7209 
 148   0.0000       0.658186        17.9101 
 149   0.0000       0.677350        18.4316 
 150   0.0000       0.683422        18.5969 
 151   0.0000       0.702580        19.1182 
 152   0.0000       0.719711        19.5843 
 153   0.0000       0.737622        20.0717 
 154   0.0000       0.745870        20.2962 
 155   0.0000       0.750047        20.4098 
 156   0.0000       0.764014        20.7899 
 157   0.0000       0.781450        21.2643 
 158   0.0000       0.795094        21.6356 
 159   0.0000       0.801106        21.7992 
 160   0.0000       0.818121        22.2622 
 161   0.0000       0.829110        22.5612 
 162   0.0000       0.841167        22.8893 
 163   0.0000       0.856058        23.2945 
 164   0.0000       0.865816        23.5600 
 165   0.0000       0.870816        23.6961 
 166   0.0000       0.875059        23.8116 
 167   0.0000       0.893023        24.3004 
 168   0.0000       0.903356        24.5816 
 169   0.0000       0.913576        24.8597 
 170   0.0000       0.916249        24.9324 
 171   0.0000       0.928022        25.2528 
 172   0.0000       0.940422        25.5902 
 173   0.0000       0.949470        25.8364 
 174   0.0000       0.962572        26.1929 
 175   0.0000       0.976491        26.5717 
 176   0.0000       0.989127        26.9155 
 177   0.0000       1.001627        27.2557 
 178   0.0000       1.017684        27.6926 
 179   0.0000       1.020203        27.7611 
 180   0.0000       1.034533        28.1511 
 181   0.0000       1.039446        28.2848 
 182   0.0000       1.052469        28.6391 
 183   0.0000       1.074558        29.2402 
 184   0.0000       1.081705        29.4347 
 185   0.0000       1.086214        29.5574 
 186   0.0000       1.100122        29.9359 
 187   0.0000       1.116855        30.3912 
 188   0.0000       1.132264        30.8105 
 189   0.0000       1.144412        31.1410 
 190   0.0000       1.154646        31.4195 
 191   0.0000       1.163073        31.6488 
 192   0.0000       1.178006        32.0552 
 193   0.0000       1.187884        32.3240 
 194   0.0000       1.203639        32.7527 
 195   0.0000       1.225722        33.3536 
 196   0.0000       1.234305        33.5872 
 197   0.0000       1.238014        33.6881 
 198   0.0000       1.250651        34.0319 
 199   0.0000       1.267857        34.5002 
 200   0.0000       1.282878        34.9089 
 201   0.0000       1.313656        35.7464 
 202   0.0000       1.319265        35.8990 
 203   0.0000       1.333076        36.2748 
 204   0.0000       1.340360        36.4730 
 205   0.0000       1.369818        37.2746 
 206   0.0000       1.377987        37.4969 
 207   0.0000       1.386096        37.7176 
 208   0.0000       1.403083        38.1798 
 209   0.0000       1.408572        38.3292 
 210   0.0000       1.420207        38.6458 
 211   0.0000       1.432971        38.9931 
 212   0.0000       1.446583        39.3635 
 213   0.0000       1.458464        39.6868 
 214   0.0000       1.472256        40.0621 
 215   0.0000       1.482546        40.3421 
 216   0.0000       1.499213        40.7957 
 217   0.0000       1.513775        41.1919 
 218   0.0000       1.525478        41.5104 
 219   0.0000       1.538151        41.8552 
 220   0.0000       1.546660        42.0868 
 221   0.0000       1.552099        42.2348 
 222   0.0000       1.557572        42.3837 
 223   0.0000       1.559922        42.4476 
 224   0.0000       1.563733        42.5513 
 225   0.0000       1.566978        42.6396 
 226   0.0000       1.580494        43.0074 
 227   0.0000       1.590533        43.2806 
 228   0.0000       1.594539        43.3896 
 229   0.0000       1.600079        43.5404 
 230   0.0000       1.607789        43.7502 
 231   0.0000       1.620506        44.0962 
 232   0.0000       1.635760        44.5113 
 233   0.0000       1.639382        44.6099 
 234   0.0000       1.640874        44.6505 
 235   0.0000       1.652586        44.9691 
 236   0.0000       1.670443        45.4551 
 237   0.0000       1.678424        45.6722 
 238   0.0000       1.683711        45.8161 
 239   0.0000       1.691370        46.0245 
 240   0.0000       1.719425        46.7879 
 241   0.0000       1.720805        46.8255 
 242   0.0000       1.755523        47.7702 
 243   0.0000       1.762328        47.9554 
 244   0.0000       1.772284        48.2263 
 245   0.0000       1.777526        48.3689 
 246   0.0000       1.801679        49.0262 
 247   0.0000       1.807986        49.1978 
 248   0.0000       1.821087        49.5543 
 249   0.0000       1.839883        50.0658 
 250   0.0000       1.844039        50.1788 
 251   0.0000       1.851561        50.3835 
 252   0.0000       1.867362        50.8135 
 253   0.0000       1.882316        51.2204 
 254   0.0000       1.886643        51.3382 
 255   0.0000       1.896693        51.6116 
 256   0.0000       1.901514        51.7428 
 257   0.0000       1.910366        51.9837 
 258   0.0000       1.921176        52.2778 
 259   0.0000       1.930434        52.5298 
 260   0.0000       1.934541        52.6415 
 261   0.0000       1.953405        53.1549 
 262   0.0000       1.968602        53.5684 
 263   0.0000       1.974292        53.7232 
 264   0.0000       1.976769        53.7906 
 265   0.0000       1.992350        54.2146 
 266   0.0000       2.004768        54.5525 
 267   0.0000       2.015670        54.8492 
 268   0.0000       2.019866        54.9633 
 269   0.0000       2.020161        54.9714 
 270   0.0000       2.027229        55.1637 
 271   0.0000       2.035046        55.3764 
 272   0.0000       2.043144        55.5968 
 273   0.0000       2.063657        56.1550 
 274   0.0000       2.071706        56.3740 
 275   0.0000       2.088836        56.8401 
 276   0.0000       2.107845        57.3574 
 277   0.0000       2.131159        57.9918 
 278   0.0000       2.147226        58.4290 
 279   0.0000       2.160862        58.8000 
 280   0.0000       2.164964        58.9117 
 281   0.0000       2.180435        59.3326 
 282   0.0000       2.202038        59.9205 
 283   0.0000       2.225417        60.5567 
 284   0.0000       2.232058        60.7374 
 285   0.0000       2.240636        60.9708 
 286   0.0000       2.270148        61.7739 
 287   0.0000       2.274533        61.8932 
 288   0.0000       2.284200        62.1563 
 289   0.0000       2.294809        62.4449 
 290   0.0000       2.306680        62.7680 
 291   0.0000       2.317866        63.0723 
 292   0.0000       2.323365        63.2220 
 293   0.0000       2.331888        63.4539 
 294   0.0000       2.346354        63.8475 
 295   0.0000       2.350978        63.9734 
 296   0.0000       2.368599        64.4529 
 297   0.0000       2.375395        64.6378 
 298   0.0000       2.383314        64.8533 
 299   0.0000       2.395440        65.1832 
 300   0.0000       2.404223        65.4222 
 301   0.0000       2.425487        66.0009 
 302   0.0000       2.432663        66.1961 
 303   0.0000       2.447171        66.5909 
 304   0.0000       2.453398        66.7604 
 305   0.0000       2.465299        67.0842 
 306   0.0000       2.467970        67.1569 
 307   0.0000       2.476940        67.4010 
 308   0.0000       2.497461        67.9594 
 309   0.0000       2.509641        68.2908 
 310   0.0000       2.512089        68.3574 
 311   0.0000       2.527853        68.7864 
 312   0.0000       2.536945        69.0338 
 313   0.0000       2.546233        69.2865 
 314   0.0000       2.555757        69.5457 
 315   0.0000       2.561273        69.6958 
 316   0.0000       2.573923        70.0400 
 317   0.0000       2.578243        70.1576 
 318   0.0000       2.584442        70.3262 
 319   0.0000       2.588876        70.4469 
 320   0.0000       2.607918        70.9651 
 321   0.0000       2.613228        71.1095 
 322   0.0000       2.625439        71.4418 
 323   0.0000       2.629926        71.5639 
 324   0.0000       2.635803        71.7238 
 325   0.0000       2.651216        72.1432 
 326   0.0000       2.665084        72.5206 
 327   0.0000       2.671835        72.7043 
 328   0.0000       2.681008        72.9539 
 329   0.0000       2.688002        73.1442 
 330   0.0000       2.705661        73.6248 
 331   0.0000       2.708649        73.7061 
 332   0.0000       2.717744        73.9536 
 333   0.0000       2.734620        74.4128 
 334   0.0000       2.750771        74.8523 
 335   0.0000       2.760043        75.1046 
 336   0.0000       2.761813        75.1527 
 337   0.0000       2.769438        75.3602 
 338   0.0000       2.781710        75.6942 
 339   0.0000       2.800212        76.1977 
 340   0.0000       2.814477        76.5858 
 341   0.0000       2.830622        77.0251 
 342   0.0000       2.843287        77.3698 
 343   0.0000       2.854711        77.6806 
 344   0.0000       2.878135        78.3180 
 345   0.0000       2.900022        78.9136 
 346   0.0000       2.917941        79.4012 
 347   0.0000       2.943773        80.1041 
 348   0.0000       2.953674        80.3736 
 349   0.0000       2.978959        81.0616 
 350   0.0000       2.995226        81.5042 
 351   0.0000       2.996428        81.5370 
 352   0.0000       3.009954        81.9050 
 353   0.0000       3.012721        81.9803 
 354   0.0000       3.013221        81.9939 
 355   0.0000       3.035421        82.5980 
 356   0.0000       3.049747        82.9878 
 357   0.0000       3.053926        83.1016 
 358   0.0000       3.059923        83.2647 
 359   0.0000       3.075838        83.6978 
 360   0.0000       3.093612        84.1815 
 361   0.0000       3.100379        84.3656 
 362   0.0000       3.109380        84.6105 
 363   0.0000       3.137971        85.3885 
 364   0.0000       3.148818        85.6837 
 365   0.0000       3.158091        85.9360 
 366   0.0000       3.164244        86.1035 
 367   0.0000       3.168382        86.2161 
 368   0.0000       3.180007        86.5324 
 369   0.0000       3.185081        86.6705 
 370   0.0000       3.191335        86.8406 
 371   0.0000       3.198820        87.0443 
 372   0.0000       3.208273        87.3015 
 373   0.0000       3.215525        87.4989 
 374   0.0000       3.234485        88.0148 
 375   0.0000       3.243586        88.2625 
 376   0.0000       3.251177        88.4690 
 377   0.0000       3.259190        88.6871 
 378   0.0000       3.267979        88.9262 
 379   0.0000       3.278003        89.1990 
 380   0.0000       3.291995        89.5797 
 381   0.0000       3.294880        89.6582 
 382   0.0000       3.305587        89.9496 
 383   0.0000       3.320466        90.3545 
 384   0.0000       3.325767        90.4987 
 385   0.0000       3.331081        90.6433 
 386   0.0000       3.340614        90.9027 
 387   0.0000       3.352286        91.2203 
 388   0.0000       3.363693        91.5307 
 389   0.0000       3.367299        91.6289 
 390   0.0000       3.373102        91.7868 
 391   0.0000       3.387954        92.1909 
 392   0.0000       3.397714        92.4565 
 393   0.0000       3.403478        92.6133 
 394   0.0000       3.410584        92.8067 
 395   0.0000       3.415116        92.9300 
 396   0.0000       3.433160        93.4210 
 397   0.0000       3.439323        93.5887 
 398   0.0000       3.447445        93.8098 
 399   0.0000       3.462734        94.2258 
 400   0.0000       3.469704        94.4154 
 401   0.0000       3.483459        94.7897 
 402   0.0000       3.484762        94.8252 
 403   0.0000       3.503780        95.3427 
 404   0.0000       3.509658        95.5026 
 405   0.0000       3.526211        95.9531 
 406   0.0000       3.537504        96.2604 
 407   0.0000       3.552542        96.6696 
 408   0.0000       3.558997        96.8452 
 409   0.0000       3.574677        97.2719 
 410   0.0000       3.577959        97.3612 
 411   0.0000       3.586564        97.5954 
 412   0.0000       3.612497        98.3010 
 413   0.0000       3.640738        99.0695 
 414   0.0000       3.663140        99.6791 
 415   0.0000       3.672629        99.9373 
 416   0.0000       3.715951       101.1162 
 417   0.0000       3.728721       101.4636 
 418   0.0000       3.747853       101.9843 
 419   0.0000       3.764504       102.4374 
 420   0.0000       3.770387       102.5974 
 421   0.0000       3.794867       103.2636 
 422   0.0000       3.796892       103.3187 
 423   0.0000       3.816708       103.8579 
 424   0.0000       3.830363       104.2295 
 425   0.0000       3.847993       104.7092 
 426   0.0000       3.865986       105.1988 
 427   0.0000       3.867439       105.2384 
 428   0.0000       3.882275       105.6421 
 429   0.0000       3.897301       106.0509 
 430   0.0000       3.909004       106.3694 
 431   0.0000       3.923980       106.7769 
 432   0.0000       3.947203       107.4089 
 433   0.0000       3.976513       108.2064 
 434   0.0000       3.991370       108.6107 
 435   0.0000       4.020293       109.3977 
 436   0.0000       4.026113       109.5561 
 437   0.0000       4.036567       109.8406 
 438   0.0000       4.066803       110.6633 
 439   0.0000       4.087722       111.2326 
 440   0.0000       4.101095       111.5965 
 441   0.0000       4.124398       112.2306 
 442   0.0000       4.140250       112.6619 
 443   0.0000       4.157116       113.1209 
 444   0.0000       4.174145       113.5843 
 445   0.0000       4.192330       114.0791 
 446   0.0000       4.206527       114.4654 
 447   0.0000       4.223612       114.9303 
 448   0.0000       4.285198       116.6062 
 449   0.0000       4.317045       117.4728 
 450   0.0000       4.349225       118.3484 
 451   0.0000       4.357931       118.5853 
 452   0.0000       4.373508       119.0092 
 453   0.0000       4.385523       119.3361 
 454   0.0000       4.396645       119.6388 
 455   0.0000       4.400250       119.7369 
 456   0.0000       4.426133       120.4412 
 457   0.0000       4.451754       121.1384 
 458   0.0000       4.483350       121.9981 
 459   0.0000       4.493915       122.2856 
 460   0.0000       4.501606       122.4949 
 461   0.0000       4.523908       123.1018 
 462   0.0000       4.543588       123.6373 
 463   0.0000       4.556441       123.9871 
 464   0.0000       4.585399       124.7750 
 465   0.0000       4.605240       125.3150 
 466   0.0000       4.614313       125.5618 
 467   0.0000       4.638905       126.2310 
 468   0.0000       4.673142       127.1627 
 469   0.0000       4.684417       127.4695 
 470   0.0000       4.714893       128.2988 
 471   0.0000       4.728128       128.6589 
 472   0.0000       4.748072       129.2016 
 473   0.0000       4.753608       129.3523 
 474   0.0000       4.760917       129.5511 
 475   0.0000       4.778741       130.0362 
 476   0.0000       4.829038       131.4048 
 477   0.0000       4.836414       131.6055 
 478   0.0000       4.873754       132.6216 
 479   0.0000       4.954308       134.8136 
 480   0.0000       4.990309       135.7932 
 481   0.0000       4.999287       136.0375 
 482   0.0000       5.018131       136.5503 
 483   0.0000       5.031281       136.9081 
 484   0.0000       5.052553       137.4869 
 485   0.0000       5.068657       137.9252 
 486   0.0000       5.097113       138.6995 
 487   0.0000       5.106471       138.9541 
 488   0.0000       5.125371       139.4684 
 489   0.0000       5.174193       140.7969 
 490   0.0000       5.189775       141.2209 
 491   0.0000       5.200016       141.4996 
 492   0.0000       5.220876       142.0672 
 493   0.0000       5.232616       142.3867 
 494   0.0000       5.263610       143.2301 
 495   0.0000       5.268531       143.3640 
 496   0.0000       5.291387       143.9860 
 497   0.0000       5.297177       144.1435 
 498   0.0000       5.306751       144.4040 
 499   0.0000       5.353375       145.6727 
 500   0.0000       5.424271       147.6019 
 501   0.0000       5.436228       147.9273 
 502   0.0000       5.482389       149.1834 
 503   0.0000       5.527980       150.4240 
 504   0.0000       5.582587       151.9099 
 505   0.0000       5.610814       152.6780 
 506   0.0000       5.647125       153.6661 
 507   0.0000       5.671930       154.3411 
 508   0.0000       5.720744       155.6694 
 509   0.0000       5.770475       157.0226 
 510   0.0000       5.886910       160.1910 
 511   0.0000       5.904106       160.6589 
 512   0.0000       6.085319       165.5900 
 513   0.0000       6.108000       166.2071 
 514   0.0000       6.295839       171.3185 
 515   0.0000       6.302692       171.5050 
 516   0.0000       6.417048       174.6168 
 517   0.0000       6.423726       174.7985 
 518   0.0000       6.547287       178.1607 
 519   0.0000       6.558078       178.4544 
 520   0.0000       6.649279       180.9361 
 521   0.0000       6.660897       181.2522 
 522   0.0000       6.826785       185.7663 
 523   0.0000       6.833427       185.9470 
 524   0.0000       7.045754       191.7247 
 525   0.0000       7.067653       192.3206 
 526   0.0000       7.077661       192.5929 
 527   0.0000       7.097031       193.1200 
 528   0.0000      22.401983       609.5889 
 529   0.0000      22.468360       611.3952 
 530   0.0000      22.477509       611.6441 
 531   0.0000      22.548382       613.5727 
 532   0.0000      22.584980       614.5686 
 533   0.0000      22.638127       616.0147 
 534   0.0000      22.792906       620.2265 
 535   0.0000      23.357917       635.6012 
 536   0.0000      23.376748       636.1137 
 537   0.0000      31.970470       869.9607 
 538   0.0000      32.500472       884.3828 
 539   0.0000      32.682514       889.3364 
 540   0.0000      44.066964      1199.1230 
 541   0.0000      44.105243      1200.1647 

                 SPIN DOWN ORBITALS
  NO   OCC          E(Eh)            E(eV) 
   0   1.0000     -19.610016      -533.6157 
   1   1.0000     -19.586982      -532.9889 
   2   1.0000     -14.791545      -402.4984 
   3   1.0000     -14.770092      -401.9146 
   4   1.0000     -14.754188      -401.4819 
   5   1.0000     -10.660591      -290.0894 
   6   1.0000     -10.644032      -289.6388 
   7   1.0000     -10.596357      -288.3415 
   8   1.0000     -10.582276      -287.9584 
   9   1.0000     -10.568547      -287.5848 
  10   1.0000     -10.546918      -286.9962 
  11   1.0000     -10.541274      -286.8427 
  12   1.0000     -10.538562      -286.7689 
  13   1.0000     -10.534306      -286.6530 
  14   1.0000      -1.172849       -31.9148 
  15   1.0000      -1.149292       -31.2738 
  16   1.0000      -1.045488       -28.4492 
  17   1.0000      -1.031211       -28.0607 
  18   1.0000      -0.956246       -26.0208 
  19   1.0000      -0.902692       -24.5635 
  20   1.0000      -0.858268       -23.3547 
  21   1.0000      -0.826020       -22.4772 
  22   1.0000      -0.804615       -21.8947 
  23   1.0000      -0.756093       -20.5743 
  24   1.0000      -0.701204       -19.0807 
  25   1.0000      -0.683860       -18.6088 
  26   1.0000      -0.666153       -18.1269 
  27   1.0000      -0.649706       -17.6794 
  28   1.0000      -0.619805       -16.8658 
  29   1.0000      -0.566748       -15.4220 
  30   1.0000      -0.554534       -15.0896 
  31   1.0000      -0.551584       -15.0094 
  32   1.0000      -0.547356       -14.8943 
  33   1.0000      -0.534672       -14.5492 
[...]
     62       0.000082  -0.000050  -0.041236  -0.000020  -0.000037  -0.000396
     63       0.000192  -0.000040   0.265624   0.000058  -0.000234  -0.000950
     64      -0.000113   0.000027  -0.162528  -0.000033   0.000250   0.002147
     65      -0.000138  -0.000032  -0.152070  -0.000042   0.000203   0.000933
     66       0.000003   0.000046  -0.088376   0.000009   0.000047   0.000849
     67      -0.000024  -0.000045   0.095352   0.000001  -0.000365  -0.004608
     68       0.000116   0.000301  -0.904580   0.000022  -0.000275   0.012023
     69      -0.000692  -0.001379   0.000169  -0.000131  -0.004251   0.000249
     70       0.000136  -0.000059  -0.000338  -0.000012  -0.002641  -0.000063
     71      -0.000690  -0.001815   0.000277   0.000037  -0.006690   0.001403
     72      -0.000070   0.000114  -0.000155   0.000062   0.000893   0.001219
     73       0.000615  -0.000016   0.000447  -0.000091  -0.000811   0.000782
     74       0.000906  -0.000208   0.000726  -0.000157  -0.001217   0.000250
     75       0.000042   0.000197  -0.000030   0.000065  -0.000934   0.000299
     76       0.000758   0.000851   0.000245   0.000113  -0.000756   0.000479
     77      -0.000281  -0.000235  -0.000065  -0.000020   0.000577  -0.000308
     78      -0.000039  -0.000032  -0.000123  -0.000234   0.000330  -0.000328
     79       0.000640   0.000140  -0.000519  -0.001254  -0.001268   0.000530
     80      -0.000128  -0.000099   0.000044   0.000283   0.000085  -0.000263
     81      -0.000044   0.000004   0.000010  -0.000405  -0.000315  -0.000215
     82       0.000086  -0.000237   0.000049   0.000573  -0.000073   0.000143
     83       0.000329  -0.000320   0.000027   0.001015  -0.001018  -0.000049
     84      -0.000090   0.000062   0.000013   0.000885   0.000091   0.000076
     85       0.000223  -0.000097  -0.000011   0.000587  -0.000026  -0.000141
     86       0.000358  -0.000214  -0.000015   0.001180  -0.000121  -0.000143
     87       0.000016   0.000026   0.000034   0.001030  -0.000130   0.000083
     88       0.000457   0.000243   0.000104  -0.001337  -0.000190   0.000084
     89      -0.000103  -0.000013  -0.000020   0.000572   0.000097  -0.000034
     90      -0.000022   0.000004  -0.000006   0.002036   0.000057  -0.000020
     91       0.000127   0.000008   0.000032  -0.010136  -0.000215   0.000035
     92      -0.000023  -0.000036  -0.000021   0.002338   0.000026   0.000012
     93      -0.000018   0.000026  -0.000007  -0.000341  -0.000012  -0.000014
     94       0.000031  -0.000107   0.000017   0.005046   0.000085  -0.000025
     95       0.000078  -0.000124   0.000040   0.009653   0.000031  -0.000032


-----------
IR SPECTRUM
-----------

 Mode   freq       eps      Int      T**2         TX        TY        TZ
       cm**-1   L/(mol*cm) km/mol    a.u.
----------------------------------------------------------------------------
  6:     36.24   0.000181    0.91  0.001555  (-0.029607 -0.024013 -0.010086)
  7:     51.44   0.000253    1.28  0.001533  (-0.038051  0.008443 -0.003728)
  8:     70.13   0.000332    1.68  0.001477  ( 0.031482  0.019772  0.009720)
  9:     81.36   0.001120    5.66  0.004295  (-0.038582  0.048773  0.020678)
 10:     89.71   0.001166    5.89  0.004055  ( 0.055889  0.028762  0.010200)
 11:    102.87   0.001771    8.95  0.005371  (-0.059793 -0.041012 -0.010684)
 12:    111.24   0.000519    2.62  0.001457  ( 0.005285  0.037424  0.005320)
 13:    117.26   0.000325    1.64  0.000866  (-0.017849 -0.022764 -0.005359)
 14:    126.96   0.000188    0.95  0.000462  ( 0.021433  0.001471  0.000652)
 15:    148.69   0.002474   12.50  0.005192  ( 0.059765 -0.039751  0.006345)
 16:    150.90   0.001422    7.19  0.002940  ( 0.015345 -0.050188 -0.013633)
 17:    171.29   0.000165    0.83  0.000300  (-0.012302 -0.010401  0.006388)
 18:    214.55   0.000020    0.10  0.000029  ( 0.004602  0.002729 -0.000217)
 19:    248.73   0.000665    3.36  0.000835  (-0.004282  0.023608  0.016097)
 20:    300.66   0.000910    4.60  0.000945  (-0.015580  0.025922  0.005489)
 21:    334.11   0.001297    6.55  0.001211  ( 0.032697 -0.011755 -0.002024)
 22:    354.76   0.000157    0.79  0.000138  ( 0.011697 -0.000224 -0.000995)
 23:    392.48   0.004235   21.40  0.003368  (-0.006627 -0.055662 -0.015013)
 24:    407.44   0.013283   67.13  0.010174  ( 0.004358 -0.093082 -0.038611)
 25:    437.55   0.006997   35.36  0.004990  ( 0.069113 -0.002103 -0.014466)
 26:    500.73   0.003151   15.93  0.001964  (-0.040488  0.009204  0.015491)
 27:    523.61   0.006910   34.92  0.004119  (-0.056783 -0.022000 -0.020255)
 28:    549.99   0.021236  107.32  0.012049  (-0.108436 -0.012308 -0.011807)
 29:    578.97   0.001729    8.74  0.000932  (-0.004819  0.027747  0.011773)
 30:    637.45   0.002534   12.81  0.001240  (-0.027967  0.020872 -0.004767)
 31:    665.97   0.000798    4.03  0.000374  ( 0.014760  0.012125  0.003035)
 32:    699.74   0.000203    1.02  0.000090  (-0.005625  0.003265  0.006936)
 33:    725.42   0.000863    4.36  0.000371  (-0.004087  0.017793  0.006163)
 34:    763.47   0.000374    1.89  0.000153  (-0.006276  0.010644  0.000327)
 35:    814.86   0.000769    3.89  0.000294  ( 0.014493  0.008322  0.003896)
 36:    882.36   0.000567    2.86  0.000200  (-0.001876  0.009853 -0.009988)
 37:    900.31   0.000580    2.93  0.000201  (-0.001611 -0.012943 -0.005570)
 38:    945.40   0.001085    5.48  0.000358  (-0.004265 -0.010033 -0.015464)
 39:   1001.26   0.002854   14.42  0.000890  ( 0.025523  0.001590 -0.015348)
 40:   1019.65   0.002982   15.07  0.000913  ( 0.014942 -0.026049 -0.003312)
 41:   1026.27   0.000817    4.13  0.000249  (-0.010854 -0.006725 -0.009248)
 42:   1066.15   0.000526    2.66  0.000154  (-0.003577  0.009596  0.007007)
 43:   1066.42   0.001520    7.68  0.000445  (-0.019199 -0.007407 -0.004626)
 44:   1073.26   0.002334   11.80  0.000679  (-0.025693 -0.003459  0.002581)
 45:   1079.92   0.000477    2.41  0.000138  (-0.000930  0.006471  0.009753)
 46:   1094.77   0.001494    7.55  0.000426  ( 0.020620 -0.000174  0.000731)
 47:   1099.62   0.000574    2.90  0.000163  ( 0.001179  0.000754  0.012685)
 48:   1144.42   0.000862    4.36  0.000235  ( 0.008731  0.012173 -0.003272)
 49:   1159.49   0.001519    7.67  0.000409  ( 0.005234 -0.016402 -0.010597)
 50:   1182.72   0.004904   24.78  0.001294  (-0.001648 -0.029872 -0.019971)
 51:   1200.20   0.002154   10.89  0.000560  ( 0.018408  0.011824 -0.009026)
 52:   1220.09   0.002571   12.99  0.000658  (-0.005941  0.022503  0.010772)
 53:   1245.56   0.004978   25.16  0.001247  (-0.009208 -0.033880 -0.003832)
 54:   1271.83   0.007632   38.57  0.001873  ( 0.007375 -0.041502 -0.009788)
 55:   1277.27   0.001367    6.91  0.000334  ( 0.009558  0.015454  0.001946)
 56:   1283.63   0.004173   21.09  0.001015  (-0.029913  0.006745  0.008616)
 57:   1319.94   0.003609   18.24  0.000853  (-0.003337  0.028818  0.003397)
 58:   1325.90   0.002056   10.39  0.000484  ( 0.001305 -0.021616  0.003882)
 59:   1339.72   0.000364    1.84  0.000085  ( 0.002923 -0.008399 -0.002364)
 60:   1371.09   0.002221   11.23  0.000506  ( 0.007138 -0.020939 -0.004028)
 61:   1389.08   0.000853    4.31  0.000192  (-0.002477 -0.013379  0.002532)
 62:   1411.82   0.008406   42.48  0.001858  ( 0.010905 -0.037870 -0.017464)
 63:   1416.10   0.000631    3.19  0.000139  (-0.003922  0.007504 -0.008205)
 64:   1425.49   0.000628    3.18  0.000138  (-0.010385 -0.000179  0.005448)
 65:   1446.44   0.001108    5.60  0.000239  ( 0.011868  0.005626 -0.008151)
 66:   1449.90   0.003331   16.83  0.000717  (-0.004924 -0.001882 -0.026251)
 67:   1476.55   0.002450   12.38  0.000518  (-0.019212  0.011128 -0.004977)
 68:   1486.53   0.001014    5.12  0.000213  ( 0.003165  0.010569 -0.009544)
 69:   1489.20   0.009424   47.63  0.001975  ( 0.003397 -0.043365  0.009101)
 70:   1492.88   0.000400    2.02  0.000084  ( 0.003936 -0.008034 -0.001904)
 71:   1505.87   0.006103   30.84  0.001265  (-0.014288  0.032529  0.001528)
 72:   1507.50   0.002078   10.50  0.000430  ( 0.006644  0.001944 -0.019550)
 73:   1511.79   0.011652   58.89  0.002405  (-0.006308 -0.048213 -0.006404)
 74:   1549.13   0.097688  493.67  0.019679  ( 0.045559 -0.125880 -0.041919)
 75:   1591.18   0.027537  139.16  0.005401  (-0.016156 -0.060080 -0.039114)
 76:   1775.79   0.085356  431.36  0.015000  ( 0.007754 -0.044423  0.113869)
 77:   1789.39   0.018087   91.41  0.003154  (-0.020279  0.038666  0.035328)
 78:   2980.36   0.003112   15.73  0.000326  (-0.003319  0.007509 -0.016077)
 79:   3009.19   0.002656   13.42  0.000275  (-0.002217  0.014872  0.007025)
 80:   3047.33   0.001892    9.56  0.000194  (-0.000420  0.010731 -0.008858)
 81:   3065.93   0.000177    0.89  0.000018  ( 0.002693 -0.001633 -0.002843)
 82:   3069.45   0.005539   27.99  0.000563  ( 0.006224  0.008992 -0.021060)
 83:   3075.53   0.010896   55.07  0.001106  ( 0.006673  0.030260  0.012058)
 84:   3079.17   0.002660   13.44  0.000270  ( 0.003607  0.007109  0.014354)
 85:   3088.87   0.000608    3.07  0.000061  ( 0.001055 -0.001309 -0.007652)
 86:   3090.22   0.001753    8.86  0.000177  (-0.000646  0.006886  0.011366)
 87:   3117.85   0.002394   12.10  0.000240  (-0.002467  0.013830  0.006498)
 88:   3130.76   0.004559   23.04  0.000454  (-0.001458 -0.019238 -0.009066)
 89:   3142.36   0.002964   14.98  0.000294  (-0.016710  0.002937  0.002547)
 90:   3171.44   0.000508    2.57  0.000050  (-0.004679 -0.003085  0.004309)
 91:   3183.14   0.001221    6.17  0.000120  ( 0.002298 -0.005989  0.008861)
 92:   3193.69   0.000009    0.04  0.000001  ( 0.000162  0.000316  0.000859)
 93:   3440.05   0.000436    2.20  0.000040  (-0.005713  0.000421 -0.002588)
 94:   3621.47   0.020017  101.16  0.001725  (-0.000838  0.033961 -0.023891)
 95:   3660.51   0.007997   40.41  0.000682  (-0.000600  0.001466  0.026062)

* The epsilon (eps) is given for a Dirac delta lineshape.
** The dipole moment derivative (T) already includes vibrational overlap.

The first frequency considered to be a vibration is 6
The total number of vibrations considered is 90


--------------------------
THERMOCHEMISTRY AT 298.15K
--------------------------

Temperature         ... 298.15 K
Pressure            ... 1.00 atm
Total Mass          ... 200.26 AMU

Throughout the following assumptions are being made:
  (1) The electronic state is orbitally nondegenerate
      but the spin degeneracy is treated
  (2) There are no thermally accessible electronically excited states
  (3) Hindered rotations indicated by low frequency modes are not
      treated as such but are treated as vibrations and this may
      cause some error
  (4) All equations used are the standard statistical mechanics
      equations for an ideal gas
  (5) All vibrations are strictly harmonic

freq.      36.24  E(vib)   ...       0.54 
freq.      51.44  E(vib)   ...       0.52 
freq.      70.13  E(vib)   ...       0.50 
freq.      81.36  E(vib)   ...       0.48 
freq.      89.71  E(vib)   ...       0.47 
freq.     102.87  E(vib)   ...       0.46 
freq.     111.24  E(vib)   ...       0.45 
freq.     117.26  E(vib)   ...       0.44 
freq.     126.96  E(vib)   ...       0.43 
freq.     148.69  E(vib)   ...       0.41 
freq.     150.90  E(vib)   ...       0.40 
freq.     171.29  E(vib)   ...       0.38 
freq.     214.55  E(vib)   ...       0.34 
freq.     248.73  E(vib)   ...       0.31 
freq.     300.66  E(vib)   ...       0.26 
freq.     334.11  E(vib)   ...       0.24 
freq.     354.76  E(vib)   ...       0.22 
freq.     392.48  E(vib)   ...       0.20 
freq.     407.44  E(vib)   ...       0.19 
freq.     437.55  E(vib)   ...       0.17 
freq.     500.73  E(vib)   ...       0.14 
freq.     523.61  E(vib)   ...       0.13 
freq.     549.99  E(vib)   ...       0.12 
freq.     578.97  E(vib)   ...       0.11 
freq.     637.45  E(vib)   ...       0.09 
freq.     665.97  E(vib)   ...       0.08 
freq.     699.74  E(vib)   ...       0.07 
freq.     725.42  E(vib)   ...       0.06 
freq.     763.47  E(vib)   ...       0.06 
freq.     814.86  E(vib)   ...       0.05 
freq.     882.36  E(vib)   ...       0.04 
freq.     900.31  E(vib)   ...       0.03 
freq.     945.40  E(vib)   ...       0.03 
freq.    1001.26  E(vib)   ...       0.02 
freq.    1019.65  E(vib)   ...       0.02 
freq.    1026.27  E(vib)   ...       0.02 
freq.    1066.15  E(vib)   ...       0.02 
freq.    1066.42  E(vib)   ...       0.02 
freq.    1073.26  E(vib)   ...       0.02 
freq.    1079.92  E(vib)   ...       0.02 
freq.    1094.77  E(vib)   ...       0.02 
freq.    1099.62  E(vib)   ...       0.02 
freq.    1144.42  E(vib)   ...       0.01 
freq.    1159.49  E(vib)   ...       0.01 
freq.    1182.72  E(vib)   ...       0.01 
freq.    1200.20  E(vib)   ...       0.01 
freq.    1220.09  E(vib)   ...       0.01 
freq.    1245.56  E(vib)   ...       0.01 
freq.    1271.83  E(vib)   ...       0.01 
freq.    1277.27  E(vib)   ...       0.01 
freq.    1283.63  E(vib)   ...       0.01 
freq.    1319.94  E(vib)   ...       0.01 
freq.    1325.90  E(vib)   ...       0.01 
freq.    1339.72  E(vib)   ...       0.01 
freq.    1371.09  E(vib)   ...       0.01 
freq.    1389.08  E(vib)   ...       0.00 
freq.    1411.82  E(vib)   ...       0.00 
freq.    1416.10  E(vib)   ...       0.00 
freq.    1425.49  E(vib)   ...       0.00 
freq.    1446.44  E(vib)   ...       0.00 
freq.    1449.90  E(vib)   ...       0.00 
freq.    1476.55  E(vib)   ...       0.00 
freq.    1486.53  E(vib)   ...       0.00 
freq.    1489.20  E(vib)   ...       0.00 
freq.    1492.88  E(vib)   ...       0.00 
freq.    1505.87  E(vib)   ...       0.00 
freq.    1507.50  E(vib)   ...       0.00 
freq.    1511.79  E(vib)   ...       0.00 
freq.    1549.13  E(vib)   ...       0.00 
freq.    1591.18  E(vib)   ...       0.00 
freq.    1775.79  E(vib)   ...       0.00 
freq.    1789.39  E(vib)   ...       0.00 
freq.    2980.36  E(vib)   ...       0.00 
freq.    3009.19  E(vib)   ...       0.00 
freq.    3047.33  E(vib)   ...       0.00 
freq.    3065.93  E(vib)   ...       0.00 
freq.    3069.45  E(vib)   ...       0.00 
freq.    3075.53  E(vib)   ...       0.00 
freq.    3079.17  E(vib)   ...       0.00 
freq.    3088.87  E(vib)   ...       0.00 
freq.    3090.22  E(vib)   ...       0.00 
freq.    3117.85  E(vib)   ...       0.00 
freq.    3130.76  E(vib)   ...       0.00 
freq.    3142.36  E(vib)   ...       0.00 
freq.    3171.44  E(vib)   ...       0.00 
freq.    3183.14  E(vib)   ...       0.00 
freq.    3193.69  E(vib)   ...       0.00 
freq.    3440.05  E(vib)   ...       0.00 
freq.    3621.47  E(vib)   ...       0.00 
freq.    3660.51  E(vib)   ...       0.00 

------------
INNER ENERGY
------------

The inner energy is: U= E(el) + E(ZPE) + E(vib) + E(rot) + E(trans)
    E(el)   - is the total energy from the electronic structure calculation
              = E(kin-el) + E(nuc-el) + E(el-el) + E(nuc-nuc)
    E(ZPE)  - the the zero temperature vibrational energy from the frequency calculation
    E(vib)  - the the finite temperature correction to E(ZPE) due to population
              of excited vibrational states
    E(rot)  - is the rotational thermal energy
    E(trans)- is the translational thermal energy

Summary of contributions to the inner energy U:
Electronic energy                ...   -668.44342092 Eh
Zero point energy                ...      0.27768085 Eh     174.25 kcal/mol
Thermal vibrational correction   ...      0.01394197 Eh       8.75 kcal/mol
Thermal rotational correction    ...      0.00141627 Eh       0.89 kcal/mol
Thermal translational correction ...      0.00141627 Eh       0.89 kcal/mol
-----------------------------------------------------------------------
Total thermal energy                   -668.14896555 Eh


Summary of corrections to the electronic energy:
(perhaps to be used in another calculation)
Total thermal correction                  0.01677451 Eh      10.53 kcal/mol
Non-thermal (ZPE) correction              0.27768085 Eh     174.25 kcal/mol
-----------------------------------------------------------------------
Total correction                          0.29445536 Eh     184.77 kcal/mol


--------
ENTHALPY
--------

The enthalpy is H = U + kB*T
                kB is Boltzmann's constant
Total free energy                 ...   -668.14896555 Eh 
Thermal Enthalpy correction       ...      0.00094421 Eh       0.59 kcal/mol
-----------------------------------------------------------------------
Total Enthalpy                    ...   -668.14802134 Eh


Note: Only C1 symmetry has been detected, increase convergence thresholds 
      if your molecule has a higher symmetry. Symmetry factor of 1.0 is   
      used for the rotational entropy correction. 
 

Note: Rotational entropy computed according to Herzberg 
Infrared and Raman Spectra, Chapter V,1, Van Nostrand Reinhold, 1945 
Point Group:  C1, Symmetry Number:   1  
Rotational constants in cm-1:     0.020031     0.013980     0.009381 

Vibrational entropy computed according to the QRRHO of S. Grimme
Chem.Eur.J. 2012 18 9955


-------
ENTROPY
-------

The entropy contributions are T*S = T*(S(el)+S(vib)+S(rot)+S(trans))
     S(el)   - electronic entropy
     S(vib)  - vibrational entropy
     S(rot)  - rotational entropy
     S(trans)- translational entropy
The entropies will be listed as multiplied by the temperature to get
units of energy

Electronic entropy                ...      0.00065446 Eh      0.41 kcal/mol
Vibrational entropy               ...      0.02531142 Eh     15.88 kcal/mol
Rotational entropy                ...      0.01557705 Eh      9.77 kcal/mol
Translational entropy             ...      0.01985478 Eh     12.46 kcal/mol
-----------------------------------------------------------------------
Final entropy term                ...      0.06139770 Eh     38.53 kcal/mol

In case the symmetry of your molecule has not been determined correctly
or in case you have a reason to use a different symmetry number we print 
out the resulting rotational entropy values for sn=1,12 :
 --------------------------------------------------------
|  sn= 1 | S(rot)=       0.01557705 Eh      9.77 kcal/mol|
|  sn= 2 | S(rot)=       0.01492259 Eh      9.36 kcal/mol|
|  sn= 3 | S(rot)=       0.01453976 Eh      9.12 kcal/mol|
|  sn= 4 | S(rot)=       0.01426814 Eh      8.95 kcal/mol|
|  sn= 5 | S(rot)=       0.01405745 Eh      8.82 kcal/mol|
|  sn= 6 | S(rot)=       0.01388530 Eh      8.71 kcal/mol|
|  sn= 7 | S(rot)=       0.01373976 Eh      8.62 kcal/mol|
|  sn= 8 | S(rot)=       0.01361368 Eh      8.54 kcal/mol|
|  sn= 9 | S(rot)=       0.01350247 Eh      8.47 kcal/mol|
|  sn=10 | S(rot)=       0.01340299 Eh      8.41 kcal/mol|
|  sn=11 | S(rot)=       0.01331300 Eh      8.35 kcal/mol|
|  sn=12 | S(rot)=       0.01323085 Eh      8.30 kcal/mol|
 --------------------------------------------------------


-------------------
GIBBS FREE ENERGY
-------------------

The Gibbs free energy is G = H - T*S

Total enthalpy                    ...   -668.14802134 Eh 
Total entropy correction          ...     -0.06139770 Eh    -38.53 kcal/mol
-----------------------------------------------------------------------
Final Gibbs free energy         ...   -668.20941905 Eh

For completeness - the Gibbs free energy minus the electronic energy
G-E(el)                           ...      0.23400187 Eh    146.84 kcal/mol


Timings for individual modules:

Sum of individual times         ...     1546.085 sec (=  25.768 min)
GTO integral calculation        ...       34.011 sec (=   0.567 min)   2.2 %
SCF iterations                  ...      588.281 sec (=   9.805 min)  38.0 %
SCF Gradient evaluation         ...      141.258 sec (=   2.354 min)   9.1 %
Geometry relaxation             ...        0.506 sec (=   0.008 min)   0.0 %
Analytical frequency calculation...      782.029 sec (=  13.034 min)  50.6 %
                             ****ORCA TERMINATED NORMALLY****
TOTAL RUN TIME: 0 days 0 hours 26 minutes 14 seconds 221 msec
