
                                 *****************
                                 * O   R   C   A *
                                 *****************

                                            #,                                       
                                            ###                                      
                                            ####                                     
                                            #####                                    
                                            ######                                   
                                           ########,                                 
                                     ,,################,,,,,                         
                               ,,#################################,,                 
                          ,,##########################################,,             
                       ,#########################################, ''#####,          
                    ,#############################################,,   '####,        
                  ,##################################################,,,,####,       
                ,###########''''           ''''###############################       
              ,#####''   ,,,,##########,,,,          '''####'''          '####       
            ,##' ,,,,###########################,,,                        '##       
           ' ,,###''''                  '''############,,,                           
         ,,##''                                '''############,,,,        ,,,,,,###''
      ,#''                                            '''#######################'''  
     '                                                          ''''####''''         
             ,#######,   #######,   ,#######,      ##                                
            ,#'     '#,  ##    ##  ,#'     '#,    #''#        ######   ,####,        
            ##       ##  ##   ,#'  ##            #'  '#       #        #'  '#        
            ##       ##  #######   ##           ,######,      #####,   #    #        
            '#,     ,#'  ##    ##  '#,     ,#' ,#      #,         ##   #,  ,#        
             '#######'   ##     ##  '#######'  #'      '#     #####' # '####'        



                  #######################################################
                  #                        -***-                        #
                  #          Department of theory and spectroscopy      #
                  #    Directorship and core code : Frank Neese         #
                  #        Max Planck Institute fuer Kohlenforschung    #
                  #                Kaiser Wilhelm Platz 1               #
                  #                 D-45470 Muelheim/Ruhr               #
                  #                      Germany                        #
                  #                                                     #
                  #                  All rights reserved                #
                  #                        -***-                        #
                  #######################################################


                         Program Version 5.0.4 -  RELEASE  -


 With contributions from (in alphabetic order):
   Daniel Aravena         : Magnetic Suceptibility
   Michael Atanasov       : Ab Initio Ligand Field Theory (pilot matlab implementation)
   Alexander A. Auer      : GIAO ZORA, VPT2 properties, NMR spectrum
   Ute Becker             : Parallelization
   Giovanni Bistoni       : ED, misc. LED, open-shell LED, HFLD
   Martin Brehm           : Molecular dynamics
   Dmytro Bykov           : SCF Hessian
   Vijay G. Chilkuri      : MRCI spin determinant printing, contributions to CSF-ICE
   Dipayan Datta          : RHF DLPNO-CCSD density
   Achintya Kumar Dutta   : EOM-CC, STEOM-CC
   Dmitry Ganyushin       : Spin-Orbit,Spin-Spin,Magnetic field MRCI
   Miquel Garcia          : C-PCM and meta-GGA Hessian, CC/C-PCM, Gaussian charge scheme
   Yang Guo               : DLPNO-NEVPT2, F12-NEVPT2, CIM, IAO-localization
   Andreas Hansen         : Spin unrestricted coupled pair/coupled cluster methods
   Benjamin Helmich-Paris : MC-RPA, TRAH-SCF, COSX integrals
   Lee Huntington         : MR-EOM, pCC
   Robert Izsak           : Overlap fitted RIJCOSX, COSX-SCS-MP3, EOM
   Marcus Kettner         : VPT2
   Christian Kollmar      : KDIIS, OOCD, Brueckner-CCSD(T), CCSD density, CASPT2, CASPT2-K
   Simone Kossmann        : Meta GGA functionals, TD-DFT gradient, OOMP2, MP2 Hessian
   Martin Krupicka        : Initial AUTO-CI
   Lucas Lang             : DCDCAS
   Marvin Lechner         : AUTO-CI (C++ implementation), FIC-MRCC
   Dagmar Lenk            : GEPOL surface, SMD
   Dimitrios Liakos       : Extrapolation schemes; Compound Job, initial MDCI parallelization
   Dimitrios Manganas     : Further ROCIS development; embedding schemes
   Dimitrios Pantazis     : SARC Basis sets
   Anastasios Papadopoulos: AUTO-CI, single reference methods and gradients
   Taras Petrenko         : DFT Hessian,TD-DFT gradient, ASA, ECA, R-Raman, ABS, FL, XAS/XES, NRVS
   Peter Pinski           : DLPNO-MP2, DLPNO-MP2 Gradient
   Christoph Reimann      : Effective Core Potentials
   Marius Retegan         : Local ZFS, SOC
   Christoph Riplinger    : Optimizer, TS searches, QM/MM, DLPNO-CCSD(T), (RO)-DLPNO pert. Triples
   Tobias Risthaus        : Range-separated hybrids, TD-DFT gradient, RPA, STAB
   Michael Roemelt        : Original ROCIS implementation
   Masaaki Saitow         : Open-shell DLPNO-CCSD energy and density
   Barbara Sandhoefer     : DKH picture change effects
   Avijit Sen             : IP-ROCIS
   Kantharuban Sivalingam : CASSCF convergence, NEVPT2, FIC-MRCI
   Bernardo de Souza      : ESD, SOC TD-DFT
   Georgi Stoychev        : AutoAux, RI-MP2 NMR, DLPNO-MP2 response
   Willem Van den Heuvel  : Paramagnetic NMR
   Boris Wezisla          : Elementary symmetry handling
   Frank Wennmohs         : Technical directorship


 We gratefully acknowledge several colleagues who have allowed us to
 interface, adapt or use parts of their codes:
   Stefan Grimme, W. Hujo, H. Kruse, P. Pracht,  : VdW corrections, initial TS optimization,
                  C. Bannwarth, S. Ehlert          DFT functionals, gCP, sTDA/sTD-DF
   Ed Valeev, F. Pavosevic, A. Kumar             : LibInt (2-el integral package), F12 methods
   Garnet Chan, S. Sharma, J. Yang, R. Olivares  : DMRG
   Ulf Ekstrom                                   : XCFun DFT Library
   Mihaly Kallay                                 : mrcc  (arbitrary order and MRCC methods)
   Jiri Pittner, Ondrej Demel                    : Mk-CCSD
   Frank Weinhold                                : gennbo (NPA and NBO analysis)
   Christopher J. Cramer and Donald G. Truhlar   : smd solvation model
   Lars Goerigk                                  : TD-DFT with DH, B97 family of functionals
   V. Asgeirsson, H. Jonsson                     : NEB implementation
   FAccTs GmbH                                   : IRC, NEB, NEB-TS, DLPNO-Multilevel, CI-OPT
                                                   MM, QMMM, 2- and 3-layer-ONIOM, Crystal-QMMM,
                                                   LR-CPCM, SF, NACMEs, symmetry and pop. for TD-DFT,
                                                   nearIR, NL-DFT gradient (VV10), updates on ESD,
                                                   ML-optimized integration grids
   S Lehtola, MJT Oliveira, MAL Marques          : LibXC Library
   Liviu Ungur et al                             : ANISO software


 Your calculation uses the libint2 library for the computation of 2-el integrals
 For citations please refer to: http://libint.valeyev.net

 Your ORCA version has been built with support for libXC version: 5.1.0
 For citations please refer to: https://tddft.org/programs/libxc/

 This ORCA versions uses:
   CBLAS   interface :  Fast vector & matrix operations
   LAPACKE interface :  Fast linear algebra routines
   SCALAPACK package :  Parallel linear algebra routines
   Shared memory     :  Shared parallel matrices
   BLAS/LAPACK       :  OpenBLAS 0.3.15  USE64BITINT DYNAMIC_ARCH NO_AFFINITY Zen SINGLE_THREADED
        Core in use  :  Zen
   Copyright (c) 2011-2014, The OpenBLAS Project




***************************************
The coordinates will be read from file: model.xyz
***************************************


================================================================================

----- Orbital basis set information -----
Your calculation utilizes the basis: EPR-II
   V. Barone, in Recent Advances in Density Functional Methods, Part 1 (ed. D. P. Chong), World Scientific, Singapore, 1995, p. 287.

----- AuxJ basis set information -----
Your calculation utilizes the auxiliary basis: def2/J
   F. Weigend, Phys. Chem. Chem. Phys. 8, 1057 (2006).

================================================================================
                                        WARNINGS
                       Please study these warnings very carefully!
================================================================================


WARNING: your system is open-shell and RHF/RKS was chosen
  ===> : WILL SWITCH to UHF/UKS


WARNING: Geometry Optimization
  ===> : Switching off AutoStart
         For restart on a previous wavefunction, please use MOREAD

INFO   : the flag for use of the SHARK integral package has been found!

================================================================================
                                       INPUT FILE
================================================================================
NAME = opt.inp
|  1> ! B3LYP EPR-II OPT
|  2> %pal nprocs 16 end
|  3> *XYZFile 0 2 model.xyz
|  4> 
|  5>                          ****END OF INPUT****
================================================================================

                       *****************************
                       * Geometry Optimization Run *
                       *****************************

Geometry optimization settings:
Update method            Update   .... BFGS
Choice of coordinates    CoordSys .... Z-matrix Internals
Initial Hessian          InHess   .... Almoef's Model

Convergence Tolerances:
Energy Change            TolE     ....  5.0000e-06 Eh
Max. Gradient            TolMAXG  ....  3.0000e-04 Eh/bohr
RMS Gradient             TolRMSG  ....  1.0000e-04 Eh/bohr
Max. Displacement        TolMAXD  ....  4.0000e-03 bohr
RMS Displacement         TolRMSD  ....  2.0000e-03 bohr
Strict Convergence                ....  False
------------------------------------------------------------------------------
                        ORCA OPTIMIZATION COORDINATE SETUP
------------------------------------------------------------------------------

The optimization will be done in new redundant internal coordinates
Making redundant internal coordinates   ...  (new redundants) done
Evaluating the initial hessian          ...  (Almloef) done
Evaluating the coordinates              ...  done
Calculating the B-matrix                .... done
Calculating the G-matrix                .... done
Diagonalizing the G-matrix              .... done
Small eigenvalue found = 6.320e-03
Small eigenvalue found = 7.387e-03
Small eigenvalue found = 1.006e-02
Small eigenvalue found = 2.596e-02
Small eigenvalue found = 2.860e-02
The first mode is                       ....   67
The number of degrees of freedom        ....   90

    -----------------------------------------------------------------
                    Redundant Internal Coordinates


    -----------------------------------------------------------------
         Definition                    Initial Value    Approx d2E/dq
    -----------------------------------------------------------------
      1. B(C   1,N   0)                  1.4433         0.460073   
      2. B(C   2,C   1)                  1.5383         0.362367   
      3. B(O   3,C   2)                  1.2171         1.056094   
      4. B(C   4,C   1)                  1.5510         0.345889   
      5. B(C   5,C   4)                  1.5361         0.365273   
      6. B(C   6,C   5)                  1.5360         0.365372   
      7. B(C   7,C   6)                  1.5334         0.369005   
      8. B(N   8,C   7)                  1.4390         0.467465   
      9. B(H   9,N   8)                  1.0260         0.407947   
     10. B(H  10,N   0)                  1.0108         0.431484   
     11. B(C  11,N   0)                  1.3572         0.631371   
     12. B(N  12,C   2)                  1.3516         0.644467   
     13. B(H  13,N  12)                  1.0075         0.436763   
     14. B(O  14,C  11)                  1.2167         1.057531   
     15. B(C  15,C  11)                  1.5227         0.383739   
     16. B(H  16,C  15)                  1.0949         0.353710   
     17. B(H  17,C  15)                  1.0967         0.351294   
     18. B(H  18,C  15)                  1.0950         0.353590   
     19. B(C  19,N  12)                  1.4513         0.446840   
     20. B(H  20,C  19)                  1.0977         0.350020   
     21. B(H  21,C  19)                  1.0940         0.354896   
     22. B(H  22,C  19)                  1.0953         0.353152   
     23. B(H  23,C   1)                  1.0988         0.348629   
     24. B(H  24,C   4)                  1.0999         0.347228   
     25. B(H  25,C   4)                  1.0978         0.349882   
     26. B(H  26,C   5)                  1.1012         0.345643   
     27. B(H  27,C   5)                  1.1000         0.347112   
     28. B(H  28,C   6)                  1.0995         0.347798   
     29. B(H  29,C   6)                  1.0990         0.348400   
     30. B(H  30,C   7)                  1.1086         0.336313   
     31. B(H  31,C   7)                  1.1079         0.337183   
     32. A(C   1,N   0,C  11)          121.6929         0.407557   
     33. A(C   1,N   0,H  10)          116.0404         0.340899   
     34. A(H  10,N   0,C  11)          121.5375         0.359607   
     35. A(N   0,C   1,H  23)          108.1593         0.331861   
     36. A(C   4,C   1,H  23)          107.9181         0.318565   
     37. A(C   2,C   1,H  23)          109.4723         0.320996   
     38. A(N   0,C   1,C   4)          112.3879         0.369299   
     39. A(C   2,C   1,C   4)          111.4047         0.356759   
     40. A(N   0,C   1,C   2)          107.4302         0.372268   
     41. A(O   3,C   2,N  12)          122.5250         0.475264   
     42. A(C   1,C   2,O   3)          122.1327         0.430882   
     43. A(C   1,C   2,N  12)          115.3166         0.394722   
     44. A(C   1,C   4,C   5)          113.9571         0.357244   
     45. A(H  24,C   4,H  25)          106.9273         0.287883   
     46. A(C   5,C   4,H  24)          109.6432         0.321204   
     47. A(C   1,C   4,H  24)          108.9449         0.318356   
     48. A(C   5,C   4,H  25)          110.4880         0.321605   
     49. A(C   1,C   4,H  25)          106.6084         0.318751   
     50. A(C   4,C   5,C   6)          112.1402         0.360591   
     51. A(C   4,C   5,H  27)          109.2908         0.321186   
     52. A(H  26,C   5,H  27)          106.4971         0.287320   
     53. A(C   6,C   5,H  27)          109.6520         0.321201   
     54. A(C   6,C   5,H  26)          109.4064         0.320978   
     55. A(C   4,C   5,H  26)          109.6939         0.320964   
     56. A(C   5,C   6,C   7)          112.4494         0.361217   
     57. A(H  28,C   6,H  29)          106.7097         0.287766   
     58. A(C   5,C   6,H  29)          110.1597         0.321395   
     59. A(C   5,C   6,H  28)          110.2521         0.321304   
     60. A(C   7,C   6,H  29)          108.6093         0.321916   
     61. A(C   7,C   6,H  28)          108.4728         0.321825   
     62. A(C   6,C   7,H  31)          110.2485         0.320198   
     63. A(H  30,C   7,H  31)          104.9746         0.284805   
     64. A(N   8,C   7,H  31)          109.9438         0.330904   
     65. A(N   8,C   7,H  30)          109.4590         0.330763   
     66. A(C   6,C   7,H  30)          110.0438         0.320062   
     67. A(C   6,C   7,N   8)          111.9392         0.374462   
     68. A(C   7,N   8,H   9)          107.6104         0.338620   
     69. A(O  14,C  11,C  15)          122.0084         0.435452   
     70. A(N   0,C  11,C  15)          115.7661         0.397277   
     71. A(N   0,C  11,O  14)          122.2237         0.473592   
     72. A(C   2,N  12,H  13)          119.0262         0.361616   
     73. A(H  13,N  12,C  19)          119.1533         0.339930   
     74. A(C   2,N  12,C  19)          121.5535         0.406933   
     75. A(H  17,C  15,H  18)          109.1945         0.288884   
     76. A(H  16,C  15,H  18)          109.8068         0.289195   
     77. A(C  11,C  15,H  18)          113.1131         0.324777   
     78. A(H  16,C  15,H  17)          107.7931         0.288900   
     79. A(C  11,C  15,H  17)          108.3003         0.324430   
     80. A(C  11,C  15,H  16)          108.4866         0.324796   
     81. A(H  20,C  19,H  22)          108.1643         0.288664   
     82. A(N  12,C  19,H  22)          109.9061         0.330967   
     83. A(H  20,C  19,H  21)          109.3063         0.288887   
     84. A(N  12,C  19,H  21)          108.8460         0.331237   
     85. A(N  12,C  19,H  20)          111.2742         0.330480   
     86. A(H  21,C  19,H  22)          109.3192         0.289290   
     87. D(C   4,C   1,N   0,C  11)     80.4300         0.018069   
     88. D(H  23,C   1,N   0,H  10)    131.7546         0.018069   
     89. D(H  23,C   1,N   0,C  11)    -38.6012         0.018069   
     90. D(C   4,C   1,N   0,H  10)   -109.2142         0.018069   
     91. D(C   2,C   1,N   0,H  10)     13.6757         0.018069   
     92. D(C   2,C   1,N   0,C  11)   -156.6800         0.018069   
     93. D(N  12,C   2,C   1,H  23)     50.2061         0.009864   
     94. D(N  12,C   2,C   1,C   4)    -69.0750         0.009864   
     95. D(O   3,C   2,C   1,H  23)   -131.5938         0.009864   
     96. D(O   3,C   2,C   1,C   4)    109.1251         0.009864   
     97. D(N  12,C   2,C   1,N   0)    167.4310         0.009864   
     98. D(O   3,C   2,C   1,N   0)    -14.3689         0.009864   
     99. D(C   5,C   4,C   1,C   2)    -54.3325         0.009658   
    100. D(C   5,C   4,C   1,H  23)   -174.5342         0.009658   
    101. D(C   5,C   4,C   1,N   0)     66.2935         0.009658   
    102. D(H  25,C   4,C   1,H  23)     63.3106         0.009658   
    103. D(H  25,C   4,C   1,C   2)   -176.4877         0.009658   
    104. D(H  24,C   4,C   1,H  23)    -51.7526         0.009658   
    105. D(H  24,C   4,C   1,C   2)     68.4491         0.009658   
    106. D(H  24,C   4,C   1,N   0)   -170.9249         0.009658   
    107. D(H  25,C   4,C   1,N   0)    -55.8617         0.009658   
    108. D(H  27,C   5,C   4,H  25)     65.4979         0.010683   
    109. D(H  27,C   5,C   4,H  24)   -176.8958         0.010683   
    110. D(H  27,C   5,C   4,C   1)    -54.4966         0.010683   
    111. D(H  26,C   5,C   4,H  25)   -178.0894         0.010683   
    112. D(H  26,C   5,C   4,H  24)    -60.4832         0.010683   
    113. D(H  26,C   5,C   4,C   1)     61.9160         0.010683   
    114. D(C   6,C   5,C   4,H  25)    -56.3110         0.010683   
    115. D(C   6,C   5,C   4,H  24)     61.2952         0.010683   
    116. D(C   6,C   5,C   4,C   1)   -176.3056         0.010683   
    117. D(C   7,C   6,C   5,C   4)   -179.2178         0.010689   
    118. D(H  29,C   6,C   5,H  26)   -178.5740         0.010689   
    119. D(H  29,C   6,C   5,C   4)     59.4833         0.010689   
    120. D(H  28,C   6,C   5,H  27)   -179.6303         0.010689   
    121. D(H  28,C   6,C   5,H  26)     63.9146         0.010689   
    122. D(H  28,C   6,C   5,C   4)    -58.0281         0.010689   
    123. D(C   7,C   6,C   5,H  27)     59.1800         0.010689   
    124. D(H  29,C   6,C   5,H  27)    -62.1189         0.010689   
    125. D(C   7,C   6,C   5,H  26)    -57.2751         0.010689   
    126. D(H  31,C   7,C   6,H  29)     63.6035         0.010889   
    127. D(H  31,C   7,C   6,C   5)    -58.5773         0.010889   
    128. D(H  30,C   7,C   6,H  29)    178.9285         0.010889   
    129. D(H  30,C   7,C   6,H  28)    -65.4546         0.010889   
    130. D(H  30,C   7,C   6,C   5)     56.7477         0.010889   
    131. D(N   8,C   7,C   6,H  29)    -59.1167         0.010889   
    132. D(H  31,C   7,C   6,H  28)    179.2204         0.010889   
    133. D(N   8,C   7,C   6,H  28)     56.5002         0.010889   
    134. D(N   8,C   7,C   6,C   5)    178.7025         0.010889   
    135. D(H   9,N   8,C   7,H  31)     55.9132         0.017222   
    136. D(H   9,N   8,C   7,H  30)    -58.9044         0.017222   
    137. D(H   9,N   8,C   7,C   6)    178.8064         0.017222   
    138. D(C  15,C  11,N   0,H  10)      5.3913         0.032373   
    139. D(C  15,C  11,N   0,C   1)    175.2190         0.032373   
    140. D(O  14,C  11,N   0,H  10)   -174.1295         0.032373   
    141. D(O  14,C  11,N   0,C   1)     -4.3018         0.032373   
    142. D(C  19,N  12,C   2,O   3)      1.4828         0.033846   
    143. D(C  19,N  12,C   2,C   1)    179.6751         0.033846   
    144. D(H  13,N  12,C   2,O   3)    175.4952         0.033846   
    145. D(H  13,N  12,C   2,C   1)     -6.3125         0.033846   
    146. D(H  17,C  15,C  11,O  14)     68.2214         0.010975   
    147. D(H  17,C  15,C  11,N   0)   -111.3005         0.010975   
    148. D(H  16,C  15,C  11,O  14)    -48.5187         0.010975   
    149. D(H  16,C  15,C  11,N   0)    131.9594         0.010975   
    150. D(H  18,C  15,C  11,O  14)   -170.6027         0.010975   
    151. D(H  18,C  15,C  11,N   0)      9.8753         0.010975   
    152. D(H  22,C  19,N  12,H  13)    135.3370         0.017030   
    153. D(H  22,C  19,N  12,C   2)    -50.6580         0.017030   
    154. D(H  21,C  19,N  12,H  13)     15.6420         0.017030   
    155. D(H  21,C  19,N  12,C   2)   -170.3529         0.017030   
    156. D(H  20,C  19,N  12,H  13)   -104.8749         0.017030   
    157. D(H  20,C  19,N  12,C   2)     69.1301         0.017030   
    -----------------------------------------------------------------

Number of atoms                         .... 32
Number of degrees of freedom            .... 157

         *************************************************************
         *                GEOMETRY OPTIMIZATION CYCLE   1            *
         *************************************************************
---------------------------------
CARTESIAN COORDINATES (ANGSTROEM)
---------------------------------
  N     -1.848850    0.794920    0.740727
  C     -1.504226   -0.090343   -0.345864
  C     -1.630401   -1.531752    0.176401
  O     -1.714141   -1.785021    1.363924
  C     -0.084652    0.186558   -0.905876
  C      1.048003   -0.124214    0.084159
  C      2.427520    0.249576   -0.478552
  C      3.565330   -0.075466    0.496589
  N      4.854374    0.251226   -0.053200
  H      5.560436    0.027583    0.656884
  H     -1.891194    0.374726    1.659042
  C     -2.286206    2.060250    0.518203
  N     -1.603275   -2.494494   -0.771814
  H     -1.602054   -2.224696   -1.742476
  O     -2.338668    2.541699   -0.598006
  C     -2.718876    2.837931    1.753760
  H     -2.250284    3.826988    1.723167
  H     -3.805379    2.980280    1.708092
  H     -2.460906    2.333978    2.691008
  C     -1.705010   -3.901029   -0.429116
  H     -2.708534   -4.149470   -0.060029
  H     -1.489121   -4.498284   -1.319864
  H     -0.981898   -4.146829    0.355983
  H     -2.225548    0.068972   -1.159315
  H      0.057003   -0.399722   -1.825663
  H     -0.062451    1.245374   -1.195115
  H      1.034749   -1.195431    0.338832
  H      0.870732    0.422108    1.022299
  H      2.612263   -0.286423   -1.420567
  H      2.462709    1.322605   -0.713398
  H      3.540096   -1.150772    0.765068
  H      3.415416    0.462140    1.453640

----------------------------
CARTESIAN COORDINATES (A.U.)
----------------------------
  NO LB      ZA    FRAG     MASS         X           Y           Z
   0 N     7.0000    0    14.007   -3.493820    1.502181    1.399771
   1 C     6.0000    0    12.011   -2.842575   -0.170724   -0.653588
   2 C     6.0000    0    12.011   -3.081011   -2.894592    0.333350
   3 O     8.0000    0    15.999   -3.239257   -3.373201    2.577443
   4 C     6.0000    0    12.011   -0.159969    0.352544   -1.711858
   5 C     6.0000    0    12.011    1.980439   -0.234730    0.159037
   6 C     6.0000    0    12.011    4.587348    0.471630   -0.904332
   7 C     6.0000    0    12.011    6.737497   -0.142610    0.938417
   8 N     7.0000    0    14.007    9.173437    0.474748   -0.100533
   9 H     1.0000    0     1.008   10.507701    0.052124    1.241331
  10 H     1.0000    0     1.008   -3.573839    0.708130    3.135135
  11 C     6.0000    0    12.011   -4.320303    3.893308    0.979262
  12 N     7.0000    0    14.007   -3.029751   -4.713911   -1.458517
  13 H     1.0000    0     1.008   -3.027443   -4.204066   -3.292802
  14 O     8.0000    0    15.999   -4.419442    4.803115   -1.130068
  15 C     6.0000    0    12.011   -5.137931    5.362912    3.314126
  16 H     1.0000    0     1.008   -4.252420    7.231959    3.256314
  17 H     1.0000    0     1.008   -7.191124    5.631913    3.227826
  18 H     1.0000    0     1.008   -4.650438    4.410579    5.085268
  19 C     6.0000    0    12.011   -3.222002   -7.371876   -0.810912
  20 H     1.0000    0     1.008   -5.118387   -7.841362   -0.113438
  21 H     1.0000    0     1.008   -2.814031   -8.500525   -2.494181
  22 H     1.0000    0     1.008   -1.855518   -7.836371    0.672710
  23 H     1.0000    0     1.008   -4.205676    0.130338   -2.190788
  24 H     1.0000    0     1.008    0.107720   -0.755365   -3.450003
  25 H     1.0000    0     1.008   -0.118015    2.353416   -2.258440
  26 H     1.0000    0     1.008    1.955392   -2.259037    0.640300
  27 H     1.0000    0     1.008    1.645445    0.797669    1.931865
  28 H     1.0000    0     1.008    4.936462   -0.541261   -2.684483
  29 H     1.0000    0     1.008    4.653846    2.499361   -1.348127
  30 H     1.0000    0     1.008    6.689812   -2.174644    1.445769
  31 H     1.0000    0     1.008    6.454201    0.873318    2.746981

--------------------------------
INTERNAL COORDINATES (ANGSTROEM)
--------------------------------
 N      0   0   0     0.000000000000     0.00000000     0.00000000
 C      1   0   0     1.443307410715     0.00000000     0.00000000
 C      2   1   0     1.538291508828   107.43018532     0.00000000
 O      3   2   1     1.217114805386   122.13274496   345.63111428
 C      2   1   3     1.550960330060   112.38788153   237.11006435
 C      5   2   1     1.536117146000   113.95711243    66.29350823
 C      6   5   2     1.536043549809   112.14017001   183.69441519
 C      7   6   5     1.533350536487   112.44936309   180.78218914
 N      8   7   6     1.438968394830   111.93920056   178.70247137
 H      9   8   7     1.026040460386   107.61039395   178.80639225
 H      1   2   3     1.010771216051   116.04038516    13.67573805
 C      1   2   3     1.357150400734   121.69293595   203.31997151
 N      3   2   1     1.351561935194   115.31660525   167.43097978
 H     13   3   2     1.007460753523   119.02620590   353.68751925
 O     12   1   2     1.216744810026   122.22370704   355.69820717
 C     12   1   2     1.522692407189   115.76606604   175.21901455
 H     16  12   1     1.094873574145   108.48657287   131.95940541
 H     16  12   1     1.096739519227   108.30027133   248.69945469
 H     16  12   1     1.094966191539   113.11309127     9.87532437
 C     13   3   2     1.451252092386   121.55348576   179.67508662
 H     20  13   3     1.097728820167   111.27418236    69.13014859
 H     20  13   3     1.093962337035   108.84595004   189.64706090
 H     20  13   3     1.095303174626   109.90606818   309.34203634
 H      2   1   3     1.098812643862   108.15925190   118.07885796
 H      5   2   1     1.099908406548   108.94490133   189.07510433
 H      5   2   1     1.097835782518   106.60839128   304.13832118
 H      6   5   2     1.101153879589   109.69388871    61.91599604
 H      6   5   2     1.099999724875   109.29078135   305.50338638
 H      7   6   5     1.099462215938   110.25206841   301.97189014
 H      7   6   5     1.098991421385   110.15965637    59.48332015
 H      8   7   6     1.108603049713   110.04379472    56.74766776
 H      8   7   6     1.107899379562   110.24850774   301.42272057

---------------------------
INTERNAL COORDINATES (A.U.)
---------------------------
 N      0   0   0     0.000000000000     0.00000000     0.00000000
 C      1   0   0     2.727455733311     0.00000000     0.00000000
 C      2   1   0     2.906949665821   107.43018532     0.00000000
 O      3   2   1     2.300013655721   122.13274496   345.63111428
 C      2   1   3     2.930890268390   112.38788153   237.11006435
 C      5   2   1     2.902840715560   113.95711243    66.29350823
 C      6   5   2     2.902701638915   112.14017001   183.69441519
 C      7   6   5     2.897612581262   112.44936309   180.78218914
 N      8   7   6     2.719256181598   111.93920056   178.70247137
 H      9   8   7     1.938935472452   107.61039395   178.80639225
 H      1   2   3     1.910080782387   116.04038516    13.67573805
 C      1   2   3     2.564642579928   121.69293595   203.31997151
 N      3   2   1     2.554081910549   115.31660525   167.43097978
 H     13   3   2     1.903824914832   119.02620590   353.68751925
 O     12   1   2     2.299314465820   122.22370704   355.69820717
 C     12   1   2     2.877471635788   115.76606604   175.21901455
 H     16  12   1     2.069011206402   108.48657287   131.95940541
 H     16  12   1     2.072537331587   108.30027133   248.69945469
 H     16  12   1     2.069186227911   113.11309127     9.87532437
 C     13   3   2     2.742469005889   121.55348576   179.67508662
 H     20  13   3     2.074406839429   111.27418236    69.13014859
 H     20  13   3     2.067289217820   108.84595004   189.64706090
 H     20  13   3     2.069823033657   109.90606818   309.34203634
 H      2   1   3     2.076454969388   108.15925190   118.07885796
 H      5   2   1     2.078525660773   108.94490133   189.07510433
 H      5   2   1     2.074608968979   106.60839128   304.13832118
 H      6   5   2     2.080879263728   109.69388871    61.91599604
 H      6   5   2     2.078698227402   109.29078135   305.50338638
 H      7   6   5     2.077682482717   110.25206841   301.97189014
 H      7   6   5     2.076792809947   110.15965637    59.48332015
 H      8   7   6     2.094956155187   110.04379472    56.74766776
 H      8   7   6     2.093626411313   110.24850774   301.42272057

---------------------
BASIS SET INFORMATION
---------------------
There are 4 groups of distinct atoms

 Group   1 Type N   : 10s5p1d contracted to 6s2p1d pattern {511111/41/1}
 Group   2 Type C   : 10s5p1d contracted to 6s2p1d pattern {511111/41/1}
 Group   3 Type O   : 10s5p1d contracted to 6s2p1d pattern {511111/41/1}
 Group   4 Type H   : 6s1p contracted to 4s1p pattern {3111/1}

Atom   0N    basis set group =>   1
Atom   1C    basis set group =>   2
Atom   2C    basis set group =>   2
Atom   3O    basis set group =>   3
Atom   4C    basis set group =>   2
Atom   5C    basis set group =>   2
Atom   6C    basis set group =>   2
Atom   7C    basis set group =>   2
Atom   8N    basis set group =>   1
Atom   9H    basis set group =>   4
Atom  10H    basis set group =>   4
Atom  11C    basis set group =>   2
Atom  12N    basis set group =>   1
Atom  13H    basis set group =>   4
Atom  14O    basis set group =>   3
Atom  15C    basis set group =>   2
Atom  16H    basis set group =>   4
Atom  17H    basis set group =>   4
Atom  18H    basis set group =>   4
Atom  19C    basis set group =>   2
Atom  20H    basis set group =>   4
Atom  21H    basis set group =>   4
Atom  22H    basis set group =>   4
Atom  23H    basis set group =>   4
Atom  24H    basis set group =>   4
Atom  25H    basis set group =>   4
Atom  26H    basis set group =>   4
Atom  27H    basis set group =>   4
Atom  28H    basis set group =>   4
Atom  29H    basis set group =>   4
Atom  30H    basis set group =>   4
Atom  31H    basis set group =>   4
---------------------------------
AUXILIARY/J BASIS SET INFORMATION
---------------------------------
There are 4 groups of distinct atoms

 Group   1 Type N   : 12s5p4d2f1g contracted to 6s4p3d1f1g pattern {711111/2111/211/2/1}
 Group   2 Type C   : 12s5p4d2f1g contracted to 6s4p3d1f1g pattern {711111/2111/211/2/1}
 Group   3 Type O   : 12s5p4d2f1g contracted to 6s4p3d1f1g pattern {711111/2111/211/2/1}
 Group   4 Type H   : 5s2p1d contracted to 3s1p1d pattern {311/2/1}

Atom   0N    basis set group =>   1
Atom   1C    basis set group =>   2
Atom   2C    basis set group =>   2
Atom   3O    basis set group =>   3
Atom   4C    basis set group =>   2
Atom   5C    basis set group =>   2
Atom   6C    basis set group =>   2
Atom   7C    basis set group =>   2
Atom   8N    basis set group =>   1
Atom   9H    basis set group =>   4
Atom  10H    basis set group =>   4
Atom  11C    basis set group =>   2
Atom  12N    basis set group =>   1
Atom  13H    basis set group =>   4
Atom  14O    basis set group =>   3
Atom  15C    basis set group =>   2
Atom  16H    basis set group =>   4
Atom  17H    basis set group =>   4
Atom  18H    basis set group =>   4
Atom  19C    basis set group =>   2
Atom  20H    basis set group =>   4
Atom  21H    basis set group =>   4
Atom  22H    basis set group =>   4
Atom  23H    basis set group =>   4
Atom  24H    basis set group =>   4
Atom  25H    basis set group =>   4
Atom  26H    basis set group =>   4
Atom  27H    basis set group =>   4
Atom  28H    basis set group =>   4
Atom  29H    basis set group =>   4
Atom  30H    basis set group =>   4
Atom  31H    basis set group =>   4


           ************************************************************
           *        Program running with 16 parallel MPI-processes    *
           *              working on a common directory               *
           ************************************************************
------------------------------------------------------------------------------
                           ORCA GTO INTEGRAL CALCULATION
                           -- RI-GTO INTEGRALS CHOSEN --
------------------------------------------------------------------------------
------------------------------------------------------------------------------
                   ___                                                        
                  /   \      - P O W E R E D   B Y -                         
                 /     \                                                     
                 |  |  |   _    _      __       _____    __    __             
                 |  |  |  | |  | |    /  \     |  _  \  |  |  /  |          
                  \  \/   | |  | |   /    \    | | | |  |  | /  /          
                 / \  \   | |__| |  /  /\  \   | |_| |  |  |/  /          
                |  |  |   |  __  | /  /__\  \  |    /   |      \           
                |  |  |   | |  | | |   __   |  |    \   |  |\   \          
                \     /   | |  | | |  |  |  |  | |\  \  |  | \   \       
                 \___/    |_|  |_| |__|  |__|  |_| \__\ |__|  \__/        
                                                                              
                      - O R C A' S   B I G   F R I E N D -                    
                                      &                                       
                       - I N T E G R A L  F E E D E R -                       
                                                                              
 v1 FN, 2020, v2 2021                                                         
------------------------------------------------------------------------------


Reading SHARK input file opt.SHARKINP.tmp ... ok
----------------------
SHARK INTEGRAL PACKAGE
----------------------

Number of atoms                             ...     32
Number of basis functions                   ...    364
Number of shells                            ...    216
Maximum angular momentum                    ...      2
Integral batch strategy                     ... SHARK/LIBINT Hybrid
RI-J (if used) integral strategy            ... SPLIT-RIJ (Revised 2003 algorithm where possible)
Printlevel                                  ...      1
Contraction scheme used                     ... SEGMENTED contraction
Coulomb Range Separation                    ... NOT USED
Exchange Range Separation                   ... NOT USED
Finite Nucleus Model                        ... NOT USED
Auxiliary Coulomb fitting basis             ... AVAILABLE
   # of basis functions in Aux-J            ...    884
   # of shells in Aux-J                     ...    300
   Maximum angular momentum in Aux-J        ...      4
Auxiliary J/K fitting basis                 ... NOT available
Auxiliary Correlation fitting basis         ... NOT available
Auxiliary 'external' fitting basis          ... NOT available
Integral threshold                          ...     2.500000e-11
Primitive cut-off                           ...     2.500000e-12
Primitive pair pre-selection threshold      ...     2.500000e-12

Calculating pre-screening integrals         ... done (  0.0 sec) Dimension = 216
Organizing shell pair data                  ... done (  0.1 sec)
Shell pair information
Total number of shell pairs                 ...     23436
Shell pairs after pre-screening             ...     15514
Total number of primitive shell pairs       ...     61703
Primitive shell pairs kept                  ...     29655
          la=0 lb=0:   7290 shell pairs
          la=1 lb=0:   5283 shell pairs
          la=1 lb=1:    911 shell pairs
          la=2 lb=0:   1438 shell pairs
          la=2 lb=1:    513 shell pairs
          la=2 lb=2:     79 shell pairs

Calculating one electron integrals          ... done (  0.0 sec)
Calculating RI/J V-Matrix + Cholesky decomp.... done (  0.0 sec)
Calculating Nuclear repulsion               ... done (  0.0 sec) ENN=    922.343359519472 Eh

SHARK setup successfully completed in   0.2 seconds

Maximum memory used throughout the entire GTOINT-calculation: 22.4 MB


           ************************************************************
           *        Program running with 16 parallel MPI-processes    *
           *              working on a common directory               *
           ************************************************************
-------------------------------------------------------------------------------
                                 ORCA SCF
-------------------------------------------------------------------------------

------------
SCF SETTINGS
------------
Hamiltonian:
 Density Functional     Method          .... DFT(GTOs)
 Exchange Functional    Exchange        .... B88
   X-Alpha parameter    XAlpha          ....  0.666667
   Becke's b parameter  XBeta           ....  0.004200
 Correlation Functional Correlation     .... LYP
 LDA part of GGA corr.  LDAOpt          .... VWN-5
 Gradients option       PostSCFGGA      .... off
 Hybrid DFT is turned on
   Fraction HF Exchange ScalHFX         ....  0.200000
   Scaling of DF-GGA-X  ScalDFX         ....  0.720000
   Scaling of DF-GGA-C  ScalDFC         ....  0.810000
   Scaling of DF-LDA-C  ScalLDAC        ....  1.000000
   Perturbative correction              ....  0.000000
   Density functional embedding theory  .... OFF
   NL short-range parameter             ....  4.800000
 RI-approximation to the Coulomb term is turned on
   Number of AuxJ basis functions       .... 884
   RIJ-COSX (HFX calculated with COS-X)).... on


General Settings:
 Integral files         IntName         .... opt
 Hartree-Fock type      HFTyp           .... UHF
 Total Charge           Charge          ....    0
 Multiplicity           Mult            ....    2
 Number of Electrons    NEL             ....  109
 Basis Dimension        Dim             ....  364
 Nuclear Repulsion      ENuc            ....    922.3433595195 Eh

Convergence Acceleration:
 DIIS                   CNVDIIS         .... on
   Start iteration      DIISMaxIt       ....    12
   Startup error        DIISStart       ....  0.200000
   # of expansion vecs  DIISMaxEq       ....     5
   Bias factor          DIISBfac        ....   1.050
   Max. coefficient     DIISMaxC        ....  10.000
 Trust-Rad. Augm. Hess. CNVTRAH         .... auto
   Auto Start mean grad. ratio tolernc. ....  1.125000
   Auto Start start iteration           ....    20
   Auto Start num. interpolation iter.  ....    10
   Max. Number of Micro iterations      ....    16
   Max. Number of Macro iterations      .... Maxiter - #DIIS iter
   Number of Davidson start vectors     ....     2
   Converg. threshold I  (grad. norm)   ....   1.000e-05
   Converg. threshold II (energy diff.) ....   1.000e-08
   Grad. Scal. Fac. for Micro threshold ....   0.100
   Minimum threshold for Micro iter.    ....   0.010
   NR start threshold (gradient norm)   ....   0.001
   Initial trust radius                 ....   0.400
   Minimum AH scaling param. (alpha)    ....   1.000
   Maximum AH scaling param. (alpha)    .... 1000.000
   Orbital update algorithm             .... Taylor
   White noise on init. David. guess    .... on
   Maximum white noise                  ....   0.010
   Quad. conv. algorithm                .... NR
 SOSCF                  CNVSOSCF        .... off
 Level Shifting         CNVShift        .... on
   Level shift para.    LevelShift      ....    0.2500
   Turn off err/grad.   ShiftErr        ....    0.0010
 Zerner damping         CNVZerner       .... off
 Static damping         CNVDamp         .... on
   Fraction old density DampFac         ....    0.7000
   Max. Damping (<1)    DampMax         ....    0.9800
   Min. Damping (>=0)   DampMin         ....    0.0000
   Turn off err/grad.   DampErr         ....    0.1000
 Fernandez-Rico         CNVRico         .... off

SCF Procedure:
 Maximum # iterations   MaxIter         ....   125
 SCF integral mode      SCFMode         .... Direct
   Integral package                     .... SHARK and LIBINT hybrid scheme
 Reset frequency        DirectResetFreq ....    20
 Integral Threshold     Thresh          ....  2.500e-11 Eh
 Primitive CutOff       TCut            ....  2.500e-12 Eh

Convergence Tolerance:
 Convergence Check Mode ConvCheckMode   .... Total+1el-Energy
 Convergence forced     ConvForced      .... 0
 Energy Change          TolE            ....  1.000e-08 Eh
 1-El. energy change                    ....  1.000e-05 Eh
 DIIS Error             TolErr          ....  5.000e-07


Diagonalization of the overlap matrix:
Smallest eigenvalue                        ... 9.171e-04
Time for diagonalization                   ...    0.014 sec
Threshold for overlap eigenvalues          ... 1.000e-08
Number of eigenvalues below threshold      ... 0
Time for construction of square roots      ...    0.013 sec
Total time needed                          ...    0.028 sec

Time for model grid setup =    0.113 sec

------------------------------
INITIAL GUESS: MODEL POTENTIAL
------------------------------
Loading Hartree-Fock densities                     ... done
Calculating cut-offs                               ... done
Initializing the effective Hamiltonian             ... done
Setting up the integral package (SHARK)            ... done
Starting the Coulomb interaction                   ... done (   0.1 sec)
Reading the grid                                   ... done
Mapping shells                                     ... done
Starting the XC term evaluation                    ... done (   0.0 sec)
  promolecular density results
     # of electrons  =    108.988124708
     EX              =    -87.721331417
     EC              =     -3.658898680
     EX+EC           =    -91.380230097
Transforming the Hamiltonian                       ... done (   0.0 sec)
Diagonalizing the Hamiltonian                      ... done (   0.0 sec)
Back transforming the eigenvectors                 ... done (   0.0 sec)
Now organizing SCF variables                       ... done
                      ------------------
                      INITIAL GUESS DONE (   0.3 sec)
                      ------------------
-------------------
DFT GRID GENERATION
-------------------

General Integration Accuracy     IntAcc      ... 4.388
Radial Grid Type                 RadialGrid  ... OptM3 with GC (2021)
Angular Grid (max. ang.)         AngularGrid ... 4 (Lebedev-302)
Angular grid pruning method      GridPruning ... 4 (adaptive)
Weight generation scheme         WeightScheme... Becke
Basis function cutoff            BFCut       ... 1.0000e-11
Integration weight cutoff        WCut        ... 1.0000e-14
Angular grids for H and He will be reduced by one unit
Partially contracted basis set               ... off
Rotationally invariant grid construction     ... off

Total number of grid points                  ...   141506
Total number of batches                      ...     2225
Average number of points per batch           ...       63
Average number of grid points per atom       ...     4422
Time for grid setup =    0.579 sec

--------------------
COSX GRID GENERATION
--------------------

GRIDX 1
-------
General Integration Accuracy     IntAcc      ... 3.816
Radial Grid Type                 RadialGrid  ... OptM3 with GC (2021)
Angular Grid (max. ang.)         AngularGrid ... 1 (Lebedev-50)
Angular grid pruning method      GridPruning ... 4 (adaptive)
Weight generation scheme         WeightScheme... Becke
Basis function cutoff            BFCut       ... 1.0000e-11
Integration weight cutoff        WCut        ... 1.0000e-14
Angular grids for H and He will be reduced by one unit
Partially contracted basis set               ... on
Rotationally invariant grid construction     ... off

Total number of grid points                  ...    18093
Total number of batches                      ...      301
Average number of points per batch           ...       60
Average number of grid points per atom       ...      565
UseSFitting                                  ... on

GRIDX 2
-------
General Integration Accuracy     IntAcc      ... 4.020
Radial Grid Type                 RadialGrid  ... OptM3 with GC (2021)
Angular Grid (max. ang.)         AngularGrid ... 2 (Lebedev-110)
Angular grid pruning method      GridPruning ... 4 (adaptive)
Weight generation scheme         WeightScheme... Becke
Basis function cutoff            BFCut       ... 1.0000e-11
Integration weight cutoff        WCut        ... 1.0000e-14
Angular grids for H and He will be reduced by one unit
Partially contracted basis set               ... on
Rotationally invariant grid construction     ... off

Total number of grid points                  ...    38308
Total number of batches                      ...      615
Average number of points per batch           ...       62
Average number of grid points per atom       ...     1197
UseSFitting                                  ... on

GRIDX 3
-------
General Integration Accuracy     IntAcc      ... 4.338
Radial Grid Type                 RadialGrid  ... OptM3 with GC (2021)
Angular Grid (max. ang.)         AngularGrid ... 3 (Lebedev-194)
Angular grid pruning method      GridPruning ... 4 (adaptive)
Weight generation scheme         WeightScheme... Becke
Basis function cutoff            BFCut       ... 1.0000e-11
Integration weight cutoff        WCut        ... 1.0000e-14
Angular grids for H and He will be reduced by one unit
Partially contracted basis set               ... on
Rotationally invariant grid construction     ... off

Total number of grid points                  ...    83461
Total number of batches                      ...     1320
Average number of points per batch           ...       63
Average number of grid points per atom       ...     2608
UseSFitting                                  ... on

Time for X-Grid setup             =    0.736 sec

--------------
SCF ITERATIONS
--------------
ITER       Energy         Delta-E        Max-DP      RMS-DP      [F,P]     Damp
               ***  Starting incremental Fock matrix formation  ***
  0   -667.7209859407   0.000000000000 0.06262440  0.00095798  0.1303618 0.7000
  1   -667.9569076249  -0.235921684275 0.05042200  0.00068743  0.0512587 0.7000
                               ***Turning on DIIS***
  2   -668.0438294309  -0.086921805961 0.08061671  0.00107008  0.0179935 0.0000
  3   -668.1835447020  -0.139715271062 0.04473631  0.00051232  0.0255846 0.0000
  4   -668.2154126957  -0.031867993729 0.01656529  0.00017540  0.0075837 0.0000
  5   -668.2170813344  -0.001668638721 0.00752907  0.00007046  0.0058026 0.0000
  6   -668.2175120424  -0.000430708040 0.00471369  0.00004082  0.0009270 0.0000
               *** Restarting incremental Fock matrix formation ***
                                   *** Resetting DIIS ***
  7   -668.2175393246  -0.000027282114 0.00192178  0.00001819  0.0006243 0.0000
  8   -668.2175292278   0.000010096763 0.00086365  0.00000717  0.0010089 0.0000
  9   -668.2175486396  -0.000019411842 0.00034327  0.00000416  0.0002765 0.0000
 10   -668.2175500535  -0.000001413874 0.00009172  0.00000123  0.0000640 0.0000
 11   -668.2175500910  -0.000000037538 0.00007653  0.00000080  0.0000704 0.0000
 12   -668.2175501528  -0.000000061798 0.00002993  0.00000034  0.0000222 0.0000
 13   -668.2175501592  -0.000000006359 0.00001178  0.00000015  0.0000119 0.0000
 14   -668.2175501573   0.000000001855 0.00000517  0.00000006  0.0000024 0.0000
 15   -668.2175501643  -0.000000006913 0.00000362  0.00000004  0.0000038 0.0000
                            ***DIIS convergence achieved***

               *****************************************************
               *                     SUCCESS                       *
               *           SCF CONVERGED AFTER  16 CYCLES          *
               *****************************************************

Old exchange energy                            =    -17.866057958 Eh
New exchange energy                            =    -17.866134345 Eh
Exchange energy change after final integration =     -0.000076387 Eh
Total energy after final integration           =   -668.217626545 Eh
Final COS-X integration done in                =     2.188 sec

----------------
TOTAL SCF ENERGY
----------------

Total Energy       :         -668.21762654 Eh          -18183.12603 eV

Components:
Nuclear Repulsion  :          922.34335952 Eh           25098.23878 eV
Electronic Energy  :        -1590.56098606 Eh          -43281.36481 eV
One Electron Energy:        -2738.43935854 Eh          -74516.72330 eV
Two Electron Energy:         1147.87837247 Eh           31235.35849 eV
Max COSX asymmetry :            0.00000123 Eh               0.00003 eV

Virial components:
Potential Energy   :        -1332.05041859 Eh          -36246.93465 eV
Kinetic Energy     :          663.83279204 Eh           18063.80862 eV
Virial Ratio       :            2.00660533


DFT components:
N(Alpha)           :       55.000014488201 electrons
N(Beta)            :       54.000014120255 electrons
N(Total)           :      109.000028608456 electrons
E(X)               :      -70.951194384198 Eh       
E(C)               :       -4.312897248303 Eh       
E(XC)              :      -75.264091632501 Eh       
DFET-embed. en.    :        0.000000000000 Eh       

---------------
SCF CONVERGENCE
---------------

  Last Energy change         ...    7.1419e-09  Tolerance :   1.0000e-08
  Last MAX-Density change    ...    0.0000e+00  Tolerance :   1.0000e-07
  Last RMS-Density change    ...    0.0000e+00  Tolerance :   5.0000e-09
  Last DIIS Error            ...    6.5049e-07  Tolerance :   5.0000e-07

             **** THE GBW FILE WAS UPDATED (opt.gbw) ****
             **** DENSITY opt.scfp WAS UPDATED ****
             **** ENERGY FILE WAS UPDATED (opt.en.tmp) ****
----------------------
UHF SPIN CONTAMINATION
----------------------

Warning: in a DFT calculation there is little theoretical justification to 
         calculate <S**2> as in Hartree-Fock theory. We will do it anyways
         but you should keep in mind that the values have only limited relevance

Expectation value of <S**2>     :     0.753670
Ideal value S*(S+1) for S=0.5   :     0.750000
Deviation                       :     0.003670

             **** THE GBW FILE WAS UPDATED (opt.gbw) ****
             **** DENSITY opt.scfp WAS UPDATED ****
----------------
ORBITAL ENERGIES
----------------
                 SPIN UP ORBITALS
  NO   OCC          E(Eh)            E(eV) 
   0   1.0000     -19.123114      -520.3664 
   1   1.0000     -19.099640      -519.7276 
   2   1.0000     -14.371632      -391.0720 
   3   1.0000     -14.348873      -390.4527 
   4   1.0000     -14.344936      -390.3456 
   5   1.0000     -10.300514      -280.2912 
   6   1.0000     -10.285831      -279.8917 
   7   1.0000     -10.237197      -278.5683 
   8   1.0000     -10.227909      -278.3156 
   9   1.0000     -10.215790      -277.9858 
  10   1.0000     -10.190654      -277.3018 
  11   1.0000     -10.185876      -277.1718 
  12   1.0000     -10.184813      -277.1429 
  13   1.0000     -10.180723      -277.0316 
  14   1.0000      -1.055412       -28.7192 
  15   1.0000      -1.031450       -28.0672 
  16   1.0000      -0.936179       -25.4747 
  17   1.0000      -0.921335       -25.0708 
  18   1.0000      -0.885982       -24.1088 
  19   1.0000      -0.801353       -21.8059 
  20   1.0000      -0.761226       -20.7140 
  21   1.0000      -0.728520       -19.8240 
  22   1.0000      -0.711577       -19.3630 
  23   1.0000      -0.667326       -18.1589 
  24   1.0000      -0.615881       -16.7590 
  25   1.0000      -0.601237       -16.3605 
  26   1.0000      -0.585541       -15.9334 
  27   1.0000      -0.565729       -15.3943 
  28   1.0000      -0.540453       -14.7065 
  29   1.0000      -0.487047       -13.2532 
  30   1.0000      -0.482673       -13.1342 
  31   1.0000      -0.475368       -12.9354 
  32   1.0000      -0.467313       -12.7162 
  33   1.0000      -0.465779       -12.6745 
  34   1.0000      -0.458694       -12.4817 
  35   1.0000      -0.448475       -12.2036 
  36   1.0000      -0.434822       -11.8321 
  37   1.0000      -0.427245       -11.6259 
  38   1.0000      -0.416669       -11.3381 
  39   1.0000      -0.407343       -11.0844 
  40   1.0000      -0.399381       -10.8677 
  41   1.0000      -0.393007       -10.6943 
  42   1.0000      -0.382314       -10.4033 
  43   1.0000      -0.376620       -10.2484 
  44   1.0000      -0.367706       -10.0058 
  45   1.0000      -0.357747        -9.7348 
  46   1.0000      -0.342336        -9.3154 
  47   1.0000      -0.331434        -9.0188 
  48   1.0000      -0.328843        -8.9483 
  49   1.0000      -0.285154        -7.7594 
  50   1.0000      -0.273346        -7.4381 
  51   1.0000      -0.270357        -7.3568 
  52   1.0000      -0.265155        -7.2152 
  53   1.0000      -0.250101        -6.8056 
  54   1.0000      -0.246956        -6.7200 
  55   0.0000       0.006147         0.1673 
  56   0.0000       0.009481         0.2580 
  57   0.0000       0.021982         0.5982 
  58   0.0000       0.025992         0.7073 
  59   0.0000       0.030838         0.8391 
  60   0.0000       0.036708         0.9989 
  61   0.0000       0.046059         1.2533 
  62   0.0000       0.056845         1.5468 
  63   0.0000       0.065095         1.7713 
  64   0.0000       0.080557         2.1921 
  65   0.0000       0.093015         2.5311 
  66   0.0000       0.095651         2.6028 
  67   0.0000       0.114378         3.1124 
  68   0.0000       0.121115         3.2957 
  69   0.0000       0.148081         4.0295 
  70   0.0000       0.154233         4.1969 
  71   0.0000       0.160496         4.3673 
  72   0.0000       0.164498         4.4762 
  73   0.0000       0.171098         4.6558 
  74   0.0000       0.180217         4.9040 
  75   0.0000       0.186568         5.0768 
  76   0.0000       0.189324         5.1518 
  77   0.0000       0.195384         5.3167 
  78   0.0000       0.199777         5.4362 
  79   0.0000       0.203831         5.5465 
  80   0.0000       0.209085         5.6895 
  81   0.0000       0.219473         5.9722 
  82   0.0000       0.221781         6.0350 
  83   0.0000       0.232313         6.3215 
  84   0.0000       0.233872         6.3640 
  85   0.0000       0.241419         6.5693 
  86   0.0000       0.249039         6.7767 
  87   0.0000       0.250679         6.8213 
  88   0.0000       0.254888         6.9359 
  89   0.0000       0.259725         7.0675 
  90   0.0000       0.266501         7.2519 
  91   0.0000       0.273142         7.4326 
  92   0.0000       0.278840         7.5876 
  93   0.0000       0.280779         7.6404 
  94   0.0000       0.284437         7.7399 
  95   0.0000       0.291145         7.9225 
  96   0.0000       0.299713         8.1556 
  97   0.0000       0.304285         8.2800 
  98   0.0000       0.308977         8.4077 
  99   0.0000       0.319197         8.6858 
 100   0.0000       0.321294         8.7429 
 101   0.0000       0.325739         8.8638 
 102   0.0000       0.334226         9.0947 
 103   0.0000       0.350592         9.5401 
 104   0.0000       0.366415         9.9707 
 105   0.0000       0.369987        10.0679 
 106   0.0000       0.374716        10.1965 
 107   0.0000       0.387175        10.5356 
 108   0.0000       0.394141        10.7251 
 109   0.0000       0.406646        11.0654 
 110   0.0000       0.424156        11.5419 
 111   0.0000       0.425002        11.5649 
 112   0.0000       0.439418        11.9572 
 113   0.0000       0.442524        12.0417 
 114   0.0000       0.445309        12.1175 
 115   0.0000       0.463558        12.6140 
 116   0.0000       0.468363        12.7448 
 117   0.0000       0.480974        13.0880 
 118   0.0000       0.494653        13.4602 
 119   0.0000       0.504045        13.7158 
 120   0.0000       0.508467        13.8361 
 121   0.0000       0.527153        14.3446 
 122   0.0000       0.532363        14.4863 
 123   0.0000       0.547455        14.8970 
 124   0.0000       0.559521        15.2253 
 125   0.0000       0.563568        15.3355 
 126   0.0000       0.570561        15.5258 
 127   0.0000       0.597705        16.2644 
 128   0.0000       0.614385        16.7183 
 129   0.0000       0.632416        17.2089 
 130   0.0000       0.660190        17.9647 
 131   0.0000       0.667483        18.1631 
 132   0.0000       0.682806        18.5801 
 133   0.0000       0.690767        18.7967 
 134   0.0000       0.711335        19.3564 
 135   0.0000       0.724539        19.7157 
 136   0.0000       0.747021        20.3275 
 137   0.0000       0.770698        20.9717 
 138   0.0000       0.777319        21.1519 
 139   0.0000       0.794894        21.6302 
 140   0.0000       0.809297        22.0221 
 141   0.0000       0.815668        22.1955 
 142   0.0000       0.826008        22.4768 
 143   0.0000       0.835062        22.7232 
 144   0.0000       0.844292        22.9744 
 145   0.0000       0.851699        23.1759 
 146   0.0000       0.856173        23.2977 
 147   0.0000       0.862150        23.4603 
 148   0.0000       0.866008        23.5653 
 149   0.0000       0.879805        23.9407 
 150   0.0000       0.887301        24.1447 
 151   0.0000       0.900393        24.5009 
 152   0.0000       0.908784        24.7293 
 153   0.0000       0.912086        24.8191 
 154   0.0000       0.916409        24.9368 
 155   0.0000       0.919987        25.0341 
 156   0.0000       0.925286        25.1783 
 157   0.0000       0.933635        25.4055 
 158   0.0000       0.938791        25.5458 
 159   0.0000       0.942087        25.6355 
 160   0.0000       0.954950        25.9855 
 161   0.0000       0.962669        26.1955 
 162   0.0000       0.978284        26.6205 
 163   0.0000       0.985791        26.8247 
 164   0.0000       0.999177        27.1890 
 165   0.0000       1.019784        27.7497 
 166   0.0000       1.031870        28.0786 
 167   0.0000       1.041739        28.3472 
 168   0.0000       1.047901        28.5148 
 169   0.0000       1.056206        28.7408 
 170   0.0000       1.060553        28.8591 
 171   0.0000       1.092312        29.7233 
 172   0.0000       1.110461        30.2172 
 173   0.0000       1.121524        30.5182 
 174   0.0000       1.143393        31.1133 
 175   0.0000       1.150967        31.3194 
 176   0.0000       1.167271        31.7631 
 177   0.0000       1.170679        31.8558 
 178   0.0000       1.175550        31.9884 
 179   0.0000       1.190394        32.3923 
 180   0.0000       1.209802        32.9204 
 181   0.0000       1.215325        33.0707 
 182   0.0000       1.225750        33.3543 
 183   0.0000       1.237060        33.6621 
 184   0.0000       1.265076        34.4245 
 185   0.0000       1.278926        34.8013 
 186   0.0000       1.306662        35.5561 
 187   0.0000       1.335623        36.3441 
 188   0.0000       1.339453        36.4484 
 189   0.0000       1.357027        36.9266 
 190   0.0000       1.376347        37.4523 
 191   0.0000       1.385324        37.6966 
 192   0.0000       1.400985        38.1227 
 193   0.0000       1.403725        38.1973 
 194   0.0000       1.412252        38.4293 
 195   0.0000       1.422391        38.7052 
 196   0.0000       1.438821        39.1523 
 197   0.0000       1.454582        39.5812 
 198   0.0000       1.476737        40.1840 
 199   0.0000       1.488316        40.4991 
 200   0.0000       1.502646        40.8891 
 201   0.0000       1.508075        41.0368 
 202   0.0000       1.527502        41.5655 
 203   0.0000       1.532552        41.7029 
 204   0.0000       1.535513        41.7834 
 205   0.0000       1.553407        42.2703 
 206   0.0000       1.569520        42.7088 
 207   0.0000       1.579388        42.9773 
 208   0.0000       1.593440        43.3597 
 209   0.0000       1.600662        43.5562 
 210   0.0000       1.614283        43.9269 
 211   0.0000       1.616824        43.9960 
 212   0.0000       1.625096        44.2211 
 213   0.0000       1.634445        44.4755 
 214   0.0000       1.653173        44.9851 
 215   0.0000       1.671354        45.4799 
 216   0.0000       1.677299        45.6416 
 217   0.0000       1.683976        45.8233 
 218   0.0000       1.695916        46.1482 
 219   0.0000       1.698872        46.2286 
 220   0.0000       1.710483        46.5446 
 221   0.0000       1.713574        46.6287 
 222   0.0000       1.724631        46.9296 
 223   0.0000       1.731761        47.1236 
 224   0.0000       1.738397        47.3042 
 225   0.0000       1.753023        47.7022 
 226   0.0000       1.767359        48.0923 
 227   0.0000       1.784693        48.5640 
 228   0.0000       1.802439        49.0468 
 229   0.0000       1.814608        49.3780 
 230   0.0000       1.838863        50.0380 
 231   0.0000       1.843412        50.1618 
 232   0.0000       1.855761        50.4978 
 233   0.0000       1.868024        50.8315 
 234   0.0000       1.883969        51.2654 
 235   0.0000       1.904035        51.8114 
 236   0.0000       1.915942        52.1354 
 237   0.0000       1.945602        52.9425 
 238   0.0000       1.958415        53.2912 
 239   0.0000       1.971153        53.6378 
 240   0.0000       1.998718        54.3879 
 241   0.0000       2.025639        55.1204 
 242   0.0000       2.033358        55.3305 
 243   0.0000       2.056295        55.9546 
 244   0.0000       2.064141        56.1681 
 245   0.0000       2.069611        56.3170 
 246   0.0000       2.090338        56.8810 
 247   0.0000       2.104125        57.2561 
 248   0.0000       2.141507        58.2734 
 249   0.0000       2.149358        58.4870 
 250   0.0000       2.154920        58.6384 
 251   0.0000       2.180739        59.3409 
 252   0.0000       2.196841        59.7791 
 253   0.0000       2.202881        59.9434 
 254   0.0000       2.219406        60.3931 
 255   0.0000       2.232453        60.7481 
 256   0.0000       2.263533        61.5939 
 257   0.0000       2.274501        61.8923 
 258   0.0000       2.283846        62.1466 
 259   0.0000       2.298790        62.5533 
 260   0.0000       2.314172        62.9718 
 261   0.0000       2.343199        63.7617 
 262   0.0000       2.346694        63.8568 
 263   0.0000       2.359441        64.2037 
 264   0.0000       2.369191        64.4690 
 265   0.0000       2.374853        64.6230 
 266   0.0000       2.392203        65.0952 
 267   0.0000       2.393914        65.1417 
 268   0.0000       2.419796        65.8460 
 269   0.0000       2.425729        66.0075 
 270   0.0000       2.439626        66.3856 
 271   0.0000       2.449323        66.6495 
 272   0.0000       2.472396        67.2773 
 273   0.0000       2.480038        67.4853 
 274   0.0000       2.490489        67.7696 
 275   0.0000       2.490928        67.7816 
 276   0.0000       2.503342        68.1194 
 277   0.0000       2.517353        68.5006 
 278   0.0000       2.558755        69.6273 
 279   0.0000       2.583321        70.2957 
 280   0.0000       2.617081        71.2144 
 281   0.0000       2.626614        71.4738 
 282   0.0000       2.633636        71.6649 
 283   0.0000       2.648554        72.0708 
 284   0.0000       2.676217        72.8236 
 285   0.0000       2.706706        73.6532 
 286   0.0000       2.725444        74.1631 
 287   0.0000       2.760741        75.1236 
 288   0.0000       2.770223        75.3816 
 289   0.0000       2.779840        75.6433 
 290   0.0000       2.823058        76.8193 
 291   0.0000       2.836992        77.1985 
 292   0.0000       2.997089        81.5549 
 293   0.0000       3.040880        82.7465 
 294   0.0000       3.105846        84.5144 
 295   0.0000       3.127995        85.1171 
 296   0.0000       3.388757        92.2128 
 297   0.0000       3.440188        93.6123 
 298   0.0000       3.456271        94.0499 
 299   0.0000       3.462668        94.2240 
 300   0.0000       4.973276       135.3297 
 301   0.0000       4.987642       135.7206 
 302   0.0000       4.988495       135.7439 
 303   0.0000       4.990802       135.8066 
 304   0.0000       4.994394       135.9044 
 305   0.0000       5.014356       136.4476 
 306   0.0000       5.019055       136.5754 
 307   0.0000       5.036553       137.0516 
 308   0.0000       5.061857       137.7401 
 309   0.0000       5.084244       138.3493 
 310   0.0000       5.112294       139.1126 
 311   0.0000       5.149343       140.1207 
 312   0.0000       5.195183       141.3681 
 313   0.0000       5.239312       142.5689 
 314   0.0000       5.258143       143.0813 
 315   0.0000       5.276522       143.5815 
 316   0.0000       5.298672       144.1842 
 317   0.0000       5.316867       144.6793 
 318   0.0000       5.338408       145.2655 
 319   0.0000       5.357866       145.7950 
 320   0.0000       5.387008       146.5879 
 321   0.0000       5.470219       148.8522 
 322   0.0000       5.592069       152.1679 
 323   0.0000       5.641308       153.5078 
 324   0.0000       5.714088       155.4882 
 325   0.0000       5.742935       156.2732 
 326   0.0000       5.868075       159.6784 
 327   0.0000       7.058943       192.0836 
 328   0.0000       7.305604       198.7956 
 329   0.0000       7.342936       199.8115 
 330   0.0000       9.094188       247.4654 
 331   0.0000       9.123760       248.2701 
 332   0.0000      29.607366       805.6574 
 333   0.0000      29.640111       806.5484 
 334   0.0000      29.793424       810.7203 
 335   0.0000      29.893251       813.4367 
 336   0.0000      29.953070       815.0645 
 337   0.0000      30.056015       817.8657 
 338   0.0000      30.086246       818.6884 
 339   0.0000      30.157403       820.6246 
 340   0.0000      30.283503       824.0560 
 341   0.0000      36.593994       995.7732 
 342   0.0000      36.601702       995.9830 
 343   0.0000      36.604883       996.0695 
 344   0.0000      36.607482       996.1402 
 345   0.0000      36.609077       996.1836 
 346   0.0000      36.633358       996.8443 
 347   0.0000      36.638159       996.9750 
 348   0.0000      36.671088       997.8710 
 349   0.0000      36.701279       998.6926 
 350   0.0000      36.718094       999.1501 
 351   0.0000      36.733664       999.5738 
 352   0.0000      36.792834      1001.1839 
 353   0.0000      36.809625      1001.6408 
 354   0.0000      36.856511      1002.9167 
 355   0.0000      36.889532      1003.8152 
 356   0.0000      36.892881      1003.9063 
 357   0.0000      36.920900      1004.6688 
 358   0.0000      36.949455      1005.4458 
 359   0.0000      40.999903      1115.6641 
 360   0.0000      41.247314      1122.3965 
 361   0.0000      41.282906      1123.3650 
 362   0.0000      53.631863      1459.3972 
 363   0.0000      53.658753      1460.1289 

                 SPIN DOWN ORBITALS
  NO   OCC          E(Eh)            E(eV) 
   0   1.0000     -19.123114      -520.3664 
   1   1.0000     -19.099640      -519.7276 
   2   1.0000     -14.371631      -391.0720 
   3   1.0000     -14.348873      -390.4527 
   4   1.0000     -14.326398      -389.8411 
   5   1.0000     -10.300514      -280.2912 
   6   1.0000     -10.285831      -279.8917 
   7   1.0000     -10.237198      -278.5683 
   8   1.0000     -10.227909      -278.3156 
   9   1.0000     -10.216575      -278.0071 
  10   1.0000     -10.190660      -277.3019 
  11   1.0000     -10.185876      -277.1718 
  12   1.0000     -10.184821      -277.1431 
  13   1.0000     -10.180748      -277.0322 
  14   1.0000      -1.055412       -28.7192 
  15   1.0000      -1.031449       -28.0672 
  16   1.0000      -0.936179       -25.4747 
  17   1.0000      -0.921334       -25.0708 
  18   1.0000      -0.853532       -23.2258 
  19   1.0000      -0.799226       -21.7480 
  20   1.0000      -0.757807       -20.6210 
  21   1.0000      -0.728427       -19.8215 
  22   1.0000      -0.708093       -19.2682 
  23   1.0000      -0.663262       -18.0483 
  24   1.0000      -0.612335       -16.6625 
  25   1.0000      -0.601235       -16.3604 
  26   1.0000      -0.580179       -15.7875 
  27   1.0000      -0.565614       -15.3911 
  28   1.0000      -0.540443       -14.7062 
  29   1.0000      -0.485823       -13.2199 
  30   1.0000      -0.478157       -13.0113 
  31   1.0000      -0.474368       -12.9082 
  32   1.0000      -0.465931       -12.6786 
  33   1.0000      -0.459679       -12.5085 
  34   1.0000      -0.456297       -12.4165 
  35   1.0000      -0.447146       -12.1675 
  36   1.0000      -0.428738       -11.6666 
  37   1.0000      -0.425304       -11.5731 
  38   1.0000      -0.415007       -11.2929 
  39   1.0000      -0.407272       -11.0824 
  40   1.0000      -0.398122       -10.8335 
  41   1.0000      -0.392077       -10.6690 
  42   1.0000      -0.380611       -10.3569 
  43   1.0000      -0.375786       -10.2257 
  44   1.0000      -0.363106        -9.8806 
  45   1.0000      -0.355778        -9.6812 
  46   1.0000      -0.341665        -9.2972 
  47   1.0000      -0.329767        -8.9734 
  48   1.0000      -0.327164        -8.9026 
  49   1.0000      -0.273358        -7.4384 
  50   1.0000      -0.270372        -7.3572 
  51   1.0000      -0.265241        -7.2176 
  52   1.0000      -0.249947        -6.8014 
  53   1.0000      -0.246960        -6.7201 
  54   0.0000      -0.087858        -2.3907 
  55   0.0000       0.006161         0.1676 
  56   0.0000       0.009588         0.2609 
  57   0.0000       0.022505         0.6124 
  58   0.0000       0.026467         0.7202 
  59   0.0000       0.031059         0.8452 
  60   0.0000       0.036831         1.0022 
  61   0.0000       0.046424         1.2632 
  62   0.0000       0.058161         1.5826 
  63   0.0000       0.065661         1.7867 
  64   0.0000       0.081524         2.2184 
  65   0.0000       0.093398         2.5415 
  66   0.0000       0.096908         2.6370 
  67   0.0000       0.114594         3.1183 
  68   0.0000       0.123258         3.3540 
  69   0.0000       0.148700         4.0463 
  70   0.0000       0.154464         4.2032 
  71   0.0000       0.161162         4.3854 
  72   0.0000       0.164982         4.4894 
  73   0.0000       0.171258         4.6602 
  74   0.0000       0.180800         4.9198 
  75   0.0000       0.186691         5.0801 
  76   0.0000       0.190595         5.1863 
  77   0.0000       0.196014         5.3338 
  78   0.0000       0.201364         5.4794 
  79   0.0000       0.206858         5.6289 
  80   0.0000       0.209630         5.7043 
  81   0.0000       0.220696         6.0054 
  82   0.0000       0.222369         6.0510 
  83   0.0000       0.234966         6.3937 
  84   0.0000       0.236189         6.4270 
  85   0.0000       0.241950         6.5838 
  86   0.0000       0.249587         6.7916 
  87   0.0000       0.252727         6.8771 
  88   0.0000       0.256100         6.9688 
  89   0.0000       0.260638         7.0923 
  90   0.0000       0.267617         7.2822 
  91   0.0000       0.273702         7.4478 
  92   0.0000       0.279092         7.5945 
  93   0.0000       0.281457         7.6588 
  94   0.0000       0.284677         7.7464 
  95   0.0000       0.291569         7.9340 
  96   0.0000       0.300553         8.1785 
  97   0.0000       0.305763         8.3202 
  98   0.0000       0.311805         8.4846 
  99   0.0000       0.321577         8.7505 
 100   0.0000       0.322820         8.7844 
 101   0.0000       0.326892         8.8952 
 102   0.0000       0.335610         9.1324 
 103   0.0000       0.351239         9.5577 
 104   0.0000       0.366592         9.9755 
 105   0.0000       0.374347        10.1865 
 106   0.0000       0.376881        10.2555 
 107   0.0000       0.388515        10.5720 
 108   0.0000       0.394730        10.7412 
 109   0.0000       0.406914        11.0727 
 110   0.0000       0.424365        11.5476 
 111   0.0000       0.427049        11.6206 
 112   0.0000       0.441094        12.0028 
 113   0.0000       0.442950        12.0533 
 114   0.0000       0.445515        12.1231 
 115   0.0000       0.464537        12.6407 
 116   0.0000       0.470072        12.7913 
 117   0.0000       0.481932        13.1140 
 118   0.0000       0.494942        13.4680 
 119   0.0000       0.504637        13.7319 
 120   0.0000       0.508929        13.8487 
 121   0.0000       0.528466        14.3803 
 122   0.0000       0.532663        14.4945 
 123   0.0000       0.548688        14.9306 
 124   0.0000       0.561103        15.2684 
 125   0.0000       0.569971        15.5097 
 126   0.0000       0.597486        16.2584 
 127   0.0000       0.611316        16.6347 
 128   0.0000       0.617721        16.8090 
 129   0.0000       0.633395        17.2356 
 130   0.0000       0.661623        18.0037 
 131   0.0000       0.667969        18.1763 
 132   0.0000       0.684114        18.6157 
 133   0.0000       0.697349        18.9758 
 134   0.0000       0.711738        19.3674 
 135   0.0000       0.726537        19.7701 
 136   0.0000       0.748329        20.3631 
 137   0.0000       0.771518        20.9941 
 138   0.0000       0.780418        21.2362 
 139   0.0000       0.796483        21.6734 
 140   0.0000       0.809782        22.0353 
 141   0.0000       0.816133        22.2081 
 142   0.0000       0.826578        22.4923 
 143   0.0000       0.835310        22.7299 
 144   0.0000       0.847782        23.0693 
 145   0.0000       0.853448        23.2235 
 146   0.0000       0.857718        23.3397 
 147   0.0000       0.862400        23.4671 
 148   0.0000       0.866366        23.5750 
 149   0.0000       0.881351        23.9828 
 150   0.0000       0.887597        24.1527 
 151   0.0000       0.901892        24.5417 
 152   0.0000       0.909122        24.7385 
 153   0.0000       0.915051        24.8998 
 154   0.0000       0.919062        25.0089 
 155   0.0000       0.921536        25.0763 
 156   0.0000       0.925656        25.1884 
 157   0.0000       0.935414        25.4539 
 158   0.0000       0.938873        25.5480 
 159   0.0000       0.942897        25.6575 
 160   0.0000       0.955244        25.9935 
 161   0.0000       0.962942        26.2030 
 162   0.0000       0.978535        26.6273 
 163   0.0000       0.986283        26.8381 
 164   0.0000       0.999367        27.1942 
 165   0.0000       1.020234        27.7620 
 166   0.0000       1.032562        28.0974 
 167   0.0000       1.044920        28.4337 
 168   0.0000       1.048205        28.5231 
 169   0.0000       1.056788        28.7567 
 170   0.0000       1.060885        28.8681 
 171   0.0000       1.096095        29.8262 
 172   0.0000       1.115916        30.3656 
 173   0.0000       1.123870        30.5821 
 174   0.0000       1.144541        31.1445 
 175   0.0000       1.151521        31.3345 
 176   0.0000       1.167775        31.7768 
 177   0.0000       1.171559        31.8798 
 178   0.0000       1.176733        32.0205 
 179   0.0000       1.192201        32.4415 
 180   0.0000       1.211695        32.9719 
 181   0.0000       1.218224        33.1495 
 182   0.0000       1.230422        33.4815 
 183   0.0000       1.255015        34.1507 
 184   0.0000       1.265881        34.4464 
 185   0.0000       1.281626        34.8748 
 186   0.0000       1.310558        35.6621 
 187   0.0000       1.336353        36.3640 
 188   0.0000       1.344290        36.5800 
 189   0.0000       1.357179        36.9307 
 190   0.0000       1.376878        37.4668 
 191   0.0000       1.386038        37.7160 
 192   0.0000       1.402783        38.1717 
 193   0.0000       1.404670        38.2230 
 194   0.0000       1.412278        38.4300 
 195   0.0000       1.425802        38.7980 
 196   0.0000       1.439463        39.1698 
 197   0.0000       1.455542        39.6073 
 198   0.0000       1.478188        40.2235 
 199   0.0000       1.488757        40.5111 
 200   0.0000       1.502758        40.8921 
 201   0.0000       1.509957        41.0880 
 202   0.0000       1.528662        41.5970 
 203   0.0000       1.535891        41.7937 
 204   0.0000       1.542183        41.9649 
 205   0.0000       1.554394        42.2972 
 206   0.0000       1.569829        42.7172 
 207   0.0000       1.579450        42.9790 
 208   0.0000       1.593919        43.3727 
 209   0.0000       1.601074        43.5674 
 210   0.0000       1.616752        43.9941 
 211   0.0000       1.619618        44.0720 
 212   0.0000       1.625270        44.2259 
 213   0.0000       1.635825        44.5131 
 214   0.0000       1.655628        45.0519 
 215   0.0000       1.671824        45.4926 
 216   0.0000       1.678303        45.6690 
 217   0.0000       1.685701        45.8702 
 218   0.0000       1.697820        46.2000 
 219   0.0000       1.700293        46.2673 
 220   0.0000       1.713583        46.6290 
 221   0.0000       1.716627        46.7118 
 222   0.0000       1.725479        46.9527 
 223   0.0000       1.733120        47.1606 
 224   0.0000       1.740584        47.3637 
 225   0.0000       1.754795        47.7504 
 226   0.0000       1.767886        48.1066 
 227   0.0000       1.785637        48.5896 
 228   0.0000       1.804285        49.0971 
[...]
  6 C s       :     2.884082  s :     2.884082
      pz      :     1.014966  p :     3.036303
      px      :     0.993369
      py      :     1.027968
      dz2     :     0.023454  d :     0.165992
      dxz     :     0.046773
      dyz     :     0.031014
      dx2y2   :     0.043855
      dxy     :     0.020896
  7 C s       :     2.882840  s :     2.882840
      pz      :     1.017251  p :     2.990750
      px      :     0.955281
      py      :     1.018218
      dz2     :     0.029998  d :     0.221216
      dxz     :     0.068059
      dyz     :     0.034416
      dx2y2   :     0.058260
      dxy     :     0.030484
  8 N s       :     3.413208  s :     3.413208
      pz      :     1.432932  p :     3.599298
      px      :     1.133476
      py      :     1.032890
      dz2     :     0.005740  d :     0.047751
      dxz     :     0.022140
      dyz     :     0.003036
      dx2y2   :     0.010073
      dxy     :     0.006761
  9 H s       :     0.815899  s :     0.815899
      pz      :     0.063505  p :     0.140304
      px      :     0.048254
      py      :     0.028545
 10 H s       :     0.756010  s :     0.756010
      pz      :     0.071100  p :     0.153869
      px      :     0.043987
      py      :     0.038782
 11 C s       :     2.842856  s :     2.842856
      pz      :     1.016673  p :     2.772930
      px      :     0.812748
      py      :     0.943509
      dz2     :     0.135743  d :     0.488874
      dxz     :     0.081805
      dyz     :     0.138863
      dx2y2   :     0.065140
      dxy     :     0.067323
 12 N s       :     3.063358  s :     3.063358
      pz      :     1.124583  p :     3.814292
      px      :     1.542332
      py      :     1.147377
      dz2     :     0.020699  d :     0.080550
      dxz     :     0.003799
      dyz     :     0.030608
      dx2y2   :     0.013877
      dxy     :     0.011567
 13 H s       :     0.774443  s :     0.774443
      pz      :     0.072134  p :     0.145719
      px      :     0.047728
      py      :     0.025858
 14 O s       :     3.585025  s :     3.585025
      pz      :     1.474832  p :     4.580787
      px      :     1.465875
      py      :     1.640080
      dz2     :     0.013168  d :     0.031939
      dxz     :     0.005441
      dyz     :     0.010781
      dx2y2   :     0.001358
      dxy     :     0.001192
 15 C s       :     2.871907  s :     2.871907
      pz      :     0.995756  p :     3.065321
      px      :     1.041806
      py      :     1.027759
      dz2     :     0.029854  d :     0.105701
      dxz     :     0.010999
      dyz     :     0.032358
      dx2y2   :     0.014011
      dxy     :     0.018480
 16 H s       :     0.864356  s :     0.864356
      pz      :     0.015724  p :     0.081604
      px      :     0.027143
      py      :     0.038737
 17 H s       :     0.863955  s :     0.863955
      pz      :     0.015963  p :     0.081579
      px      :     0.045089
      py      :     0.020528
 18 H s       :     0.885172  s :     0.885172
      pz      :     0.039555  p :     0.081413
      px      :     0.017512
      py      :     0.024346
 19 C s       :     2.856553  s :     2.856553
      pz      :     1.059153  p :     2.973137
      px      :     1.043511
      py      :     0.870474
      dz2     :     0.030703  d :     0.159097
      dxz     :     0.009781
      dyz     :     0.022699
      dx2y2   :     0.042400
      dxy     :     0.053515
 20 H s       :     0.888640  s :     0.888640
      pz      :     0.020502  p :     0.079302
      px      :     0.041768
      py      :     0.017031
 21 H s       :     0.889190  s :     0.889190
      pz      :     0.022980  p :     0.079252
      px      :     0.034854
      py      :     0.021418
 22 H s       :     0.860653  s :     0.860653
      pz      :     0.054111  p :     0.084473
      px      :     0.016930
      py      :     0.013433
 23 H s       :     0.850008  s :     0.850008
      pz      :     0.033391  p :     0.083102
      px      :     0.032568
      py      :     0.017143
 24 H s       :     0.876918  s :     0.876918
      pz      :     0.036217  p :     0.080115
      px      :     0.017061
      py      :     0.026836
 25 H s       :     0.858234  s :     0.858234
      pz      :     0.019901  p :     0.082621
      px      :     0.016288
      py      :     0.046432
 26 H s       :     0.872211  s :     0.872211
      pz      :     0.020441  p :     0.080454
      px      :     0.016451
      py      :     0.043562
 27 H s       :     0.870912  s :     0.870912
      pz      :     0.036500  p :     0.080961
      px      :     0.017638
      py      :     0.026823
 28 H s       :     0.872690  s :     0.872690
      pz      :     0.036690  p :     0.080063
      px      :     0.016845
      py      :     0.026527
 29 H s       :     0.870294  s :     0.870294
      pz      :     0.020545  p :     0.080324
      px      :     0.015936
      py      :     0.043843
 30 H s       :     0.868334  s :     0.868334
      pz      :     0.020251  p :     0.078898
      px      :     0.014915
      py      :     0.043732
 31 H s       :     0.868736  s :     0.868736
      pz      :     0.036596  p :     0.078954
      px      :     0.015815
      py      :     0.026543

SPIN
  0 N s       :    -0.000001  s :    -0.000001
      pz      :     0.000001  p :     0.000009
      px      :     0.000006
      py      :     0.000002
      dz2     :     0.000000  d :    -0.000000
      dxz     :    -0.000000
      dyz     :    -0.000000
      dx2y2   :     0.000000
      dxy     :    -0.000000
  1 C s       :    -0.000012  s :    -0.000012
      pz      :    -0.000005  p :    -0.000033
      px      :    -0.000026
      py      :    -0.000002
      dz2     :    -0.000001  d :    -0.000009
      dxz     :    -0.000005
      dyz     :     0.000001
      dx2y2   :    -0.000004
      dxy     :    -0.000000
  2 C s       :    -0.000003  s :    -0.000003
      pz      :     0.000000  p :     0.000005
      px      :     0.000005
      py      :    -0.000000
      dz2     :     0.000000  d :    -0.000000
      dxz     :    -0.000000
      dyz     :    -0.000000
      dx2y2   :     0.000001
      dxy     :    -0.000000
  3 O s       :     0.000001  s :     0.000001
      pz      :     0.000000  p :     0.000006
      px      :     0.000005
      py      :     0.000000
      dz2     :     0.000000  d :    -0.000000
      dxz     :    -0.000000
      dyz     :    -0.000000
      dx2y2   :    -0.000000
      dxy     :    -0.000000
  4 C s       :    -0.000037  s :    -0.000037
      pz      :    -0.000075  p :    -0.000138
      px      :    -0.000064
      py      :     0.000001
      dz2     :    -0.000000  d :     0.000040
      dxz     :     0.000004
      dyz     :     0.000033
      dx2y2   :    -0.000014
      dxy     :     0.000017
  5 C s       :    -0.000302  s :    -0.000302
      pz      :    -0.000084  p :    -0.000002
      px      :    -0.000551
      py      :     0.000632
      dz2     :    -0.000004  d :     0.000001
      dxz     :    -0.000023
      dyz     :    -0.000006
      dx2y2   :    -0.000003
      dxy     :     0.000036
  6 C s       :    -0.001046  s :    -0.001046
      pz      :     0.000197  p :    -0.000181
      px      :    -0.000689
      py      :     0.000311
      dz2     :    -0.000105  d :    -0.000181
      dxz     :    -0.000078
      dyz     :     0.000425
      dx2y2   :    -0.000258
      dxy     :    -0.000165
  7 C s       :    -0.005287  s :    -0.005287
      pz      :    -0.007520  p :    -0.024678
      px      :    -0.013652
      py      :    -0.003506
      dz2     :     0.003562  d :     0.037227
      dxz     :     0.002564
      dyz     :     0.010754
      dx2y2   :     0.004239
      dxy     :     0.016109
  8 N s       :     0.016422  s :     0.016422
      pz      :     0.067909  p :     0.882435
      px      :     0.023894
      py      :     0.790632
      dz2     :     0.000057  d :    -0.000671
      dxz     :    -0.000700
      dyz     :     0.000125
      dx2y2   :    -0.000094
      dxy     :    -0.000059
  9 H s       :    -0.020141  s :    -0.020141
      pz      :     0.003426  p :     0.027562
      px      :     0.001854
      py      :     0.022282
 10 H s       :     0.000000  s :     0.000000
      pz      :    -0.000000  p :     0.000000
      px      :     0.000000
      py      :     0.000000
 11 C s       :    -0.000001  s :    -0.000001
      pz      :     0.000000  p :    -0.000001
      px      :    -0.000002
      py      :     0.000000
      dz2     :    -0.000000  d :     0.000002
      dxz     :     0.000000
      dyz     :     0.000000
      dx2y2   :     0.000000
      dxy     :     0.000001
 12 N s       :     0.000001  s :     0.000001
      pz      :     0.000001  p :    -0.000001
      px      :    -0.000002
      py      :     0.000000
      dz2     :     0.000000  d :    -0.000000
      dxz     :    -0.000000
      dyz     :     0.000000
      dx2y2   :    -0.000000
      dxy     :    -0.000000
 13 H s       :     0.000001  s :     0.000001
      pz      :     0.000000  p :     0.000001
      px      :     0.000000
      py      :     0.000000
 14 O s       :     0.000001  s :     0.000001
      pz      :     0.000000  p :     0.000007
      px      :     0.000007
      py      :     0.000000
      dz2     :    -0.000000  d :    -0.000000
      dxz     :    -0.000000
      dyz     :    -0.000000
      dx2y2   :     0.000000
      dxy     :     0.000000
 15 C s       :    -0.000000  s :    -0.000000
      pz      :     0.000000  p :     0.000000
      px      :     0.000000
      py      :    -0.000000
      dz2     :    -0.000000  d :    -0.000000
      dxz     :    -0.000000
      dyz     :     0.000000
      dx2y2   :    -0.000000
      dxy     :     0.000000
 16 H s       :    -0.000000  s :    -0.000000
      pz      :    -0.000000  p :    -0.000000
      px      :     0.000000
      py      :    -0.000000
 17 H s       :    -0.000000  s :    -0.000000
      pz      :     0.000000  p :     0.000000
      px      :     0.000000
      py      :     0.000000
 18 H s       :     0.000000  s :     0.000000
      pz      :    -0.000000  p :    -0.000000
      px      :     0.000000
      py      :    -0.000000
 19 C s       :    -0.000000  s :    -0.000000
      pz      :    -0.000000  p :     0.000000
      px      :     0.000000
      py      :     0.000000
      dz2     :     0.000000  d :    -0.000000
      dxz     :    -0.000000
      dyz     :     0.000000
      dx2y2   :    -0.000000
      dxy     :    -0.000000
 20 H s       :    -0.000000  s :    -0.000000
      pz      :     0.000000  p :     0.000000
      px      :     0.000000
      py      :    -0.000000
 21 H s       :    -0.000000  s :    -0.000000
      pz      :    -0.000000  p :    -0.000000
      px      :    -0.000000
      py      :    -0.000000
 22 H s       :     0.000000  s :     0.000000
      pz      :    -0.000000  p :     0.000000
      px      :     0.000000
      py      :     0.000000
 23 H s       :    -0.000012  s :    -0.000012
      pz      :    -0.000000  p :    -0.000003
      px      :    -0.000003
      py      :    -0.000000
 24 H s       :     0.000059  s :     0.000059
      pz      :    -0.000003  p :    -0.000006
      px      :    -0.000001
      py      :    -0.000001
 25 H s       :     0.000066  s :     0.000066
      pz      :    -0.000003  p :    -0.000006
      px      :    -0.000001
      py      :    -0.000003
 26 H s       :     0.000241  s :     0.000241
      pz      :     0.000031  p :     0.000061
      px      :     0.000023
      py      :     0.000007
 27 H s       :     0.000220  s :     0.000220
      pz      :     0.000043  p :     0.000053
      px      :     0.000013
      py      :    -0.000003
 28 H s       :    -0.000004  s :    -0.000004
      pz      :     0.000010  p :     0.000053
      px      :     0.000035
      py      :     0.000008
 29 H s       :    -0.000020  s :    -0.000020
      pz      :     0.000017  p :     0.000055
      px      :     0.000020
      py      :     0.000018
 30 H s       :     0.046494  s :     0.046494
      pz      :    -0.000504  p :    -0.001579
      px      :    -0.000132
      py      :    -0.000942
 31 H s       :     0.044886  s :     0.044886
      pz      :    -0.000965  p :    -0.001554
      px      :    -0.000154
      py      :    -0.000435


                      *****************************
                      * MAYER POPULATION ANALYSIS *
                      *****************************

  NA   - Mulliken gross atomic population
  ZA   - Total nuclear charge
  QA   - Mulliken gross atomic charge
  VA   - Mayer's total valence
  BVA  - Mayer's bonded valence
  FA   - Mayer's free valence

  ATOM       NA         ZA         QA         VA         BVA        FA
  0 N      7.1183     7.0000    -0.1183     3.2711     3.2711     0.0000
  1 C      6.1274     6.0000    -0.1274     4.0563     4.0563    -0.0000
  2 C      5.9109     6.0000     0.0891     4.0313     4.0313    -0.0000
  3 O      8.3340     8.0000    -0.3340     2.1091     2.1091     0.0000
  4 C      6.2743     6.0000    -0.2743     3.9231     3.9231     0.0000
  5 C      6.2526     6.0000    -0.2526     3.9675     3.9675     0.0000
  6 C      6.2703     6.0000    -0.2703     3.8962     3.8961     0.0001
  7 C      6.2959     6.0000    -0.2959     3.8582     3.8542     0.0040
  8 N      7.3006     7.0000    -0.3006     2.8242     2.0217     0.8025
  9 H      0.8055     1.0000     0.1945     0.9460     0.9444     0.0016
 10 H      0.7481     1.0000     0.2519     0.9689     0.9689     0.0000
 11 C      5.8300     6.0000     0.1700     3.9740     3.9740    -0.0000
 12 N      7.0933     7.0000    -0.0933     3.1836     3.1836     0.0000
 13 H      0.7686     1.0000     0.2314     0.9618     0.9618     0.0000
 14 O      8.3252     8.0000    -0.3252     2.1152     2.1152     0.0000
 15 C      6.5534     6.0000    -0.5534     3.8587     3.8587    -0.0000
 16 H      0.8148     1.0000     0.1852     0.9589     0.9589     0.0000
 17 H      0.8136     1.0000     0.1864     0.9589     0.9589     0.0000
 18 H      0.8518     1.0000     0.1482     0.9715     0.9715     0.0000
 19 C      6.4580     6.0000    -0.4580     3.8928     3.8928     0.0000
 20 H      0.8348     1.0000     0.1652     0.9550     0.9550     0.0000
 21 H      0.8394     1.0000     0.1606     0.9575     0.9575     0.0000
 22 H      0.8002     1.0000     0.1998     0.9657     0.9657     0.0000
 23 H      0.8362     1.0000     0.1638     0.9492     0.9492     0.0000
 24 H      0.8693     1.0000     0.1307     0.9713     0.9713     0.0000
 25 H      0.8203     1.0000     0.1797     0.9628     0.9628     0.0000
 26 H      0.8556     1.0000     0.1444     0.9719     0.9719     0.0000
 27 H      0.8479     1.0000     0.1521     0.9710     0.9710     0.0000
 28 H      0.8439     1.0000     0.1561     0.9669     0.9669     0.0000
 29 H      0.8375     1.0000     0.1625     0.9659     0.9659     0.0000
 30 H      0.8348     1.0000     0.1652     0.9530     0.9489     0.0041
 31 H      0.8336     1.0000     0.1664     0.9527     0.9489     0.0038

  Mayer bond orders larger than 0.100000
B(  0-N ,  1-C ) :   1.0193 B(  0-N , 10-H ) :   0.8936 B(  0-N , 11-C ) :   1.2064 
B(  1-C ,  2-C ) :   0.8998 B(  1-C ,  4-C ) :   0.9287 B(  1-C , 14-O ) :   0.1443 
B(  1-C , 23-H ) :   0.9718 B(  2-C ,  3-O ) :   1.8682 B(  2-C , 12-N ) :   1.1860 
B(  4-C ,  5-C ) :   0.9672 B(  4-C , 24-H ) :   0.9760 B(  4-C , 25-H ) :   0.9634 
B(  5-C ,  6-C ) :   0.9642 B(  5-C , 26-H ) :   0.9629 B(  5-C , 27-H ) :   0.9712 
B(  6-C ,  7-C ) :   0.9418 B(  6-C , 28-H ) :   0.9750 B(  6-C , 29-H ) :   0.9725 
B(  7-C ,  8-N ) :   1.0102 B(  7-C , 30-H ) :   0.9287 B(  7-C , 31-H ) :   0.9284 
B(  8-N ,  9-H ) :   0.9202 B( 11-C , 14-O ) :   1.8612 B( 11-C , 15-C ) :   0.8945 
B( 12-N , 13-H ) :   0.9299 B( 12-N , 19-C ) :   0.9703 B( 15-C , 16-H ) :   0.9588 
B( 15-C , 17-H ) :   0.9589 B( 15-C , 18-H ) :   0.9759 B( 19-C , 20-H ) :   0.9597 
B( 19-C , 21-H ) :   0.9597 B( 19-C , 22-H ) :   0.9433 

-------
TIMINGS
-------

Total SCF time: 0 days 0 hours 0 min 16 sec 

Total time                  ....      16.292 sec
Sum of individual times     ....      15.648 sec  ( 96.1%)

Fock matrix formation       ....      13.462 sec  ( 82.6%)
  Split-RI-J                ....       1.101 sec  (  8.2% of F)
  Chain of spheres X        ....       9.397 sec  ( 69.8% of F)
  XC integration            ....       2.674 sec  ( 19.9% of F)
    Basis function eval.    ....       0.290 sec  ( 10.8% of XC)
    Density eval.           ....       0.407 sec  ( 15.2% of XC)
    XC-Functional eval.     ....       0.064 sec  (  2.4% of XC)
    XC-Potential eval.      ....       0.221 sec  (  8.3% of XC)
Diagonalization             ....       0.447 sec  (  2.7%)
Density matrix formation    ....       0.078 sec  (  0.5%)
Population analysis         ....       0.073 sec  (  0.4%)
Initial guess               ....       0.056 sec  (  0.3%)
Orbital Transformation      ....       0.000 sec  (  0.0%)
Orbital Orthonormalization  ....       0.042 sec  (  0.3%)
DIIS solution               ....       0.222 sec  (  1.4%)
Grid generation             ....       1.310 sec  (  8.0%)

Maximum memory used throughout the entire SCF-calculation: 84.0 MB

-------------------------   --------------------
FINAL SINGLE POINT ENERGY      -668.219443867449
-------------------------   --------------------

                                *** OPTIMIZATION RUN DONE ***

                            ***************************************
                            *     ORCA property calculations      *
                            ***************************************

                                    ---------------------
                                    Active property flags
                                    ---------------------
   (+) Dipole Moment


------------------------------------------------------------------------------
                       ORCA ELECTRIC PROPERTIES CALCULATION
------------------------------------------------------------------------------

Dipole Moment Calculation                       ... on
Quadrupole Moment Calculation                   ... off
Polarizability Calculation                      ... off
GBWName                                         ... opt.gbw
Electron density                                ... opt.scfp
The origin for moment calculation is the CENTER OF MASS  = (-0.758071, -0.177723  0.237849)

-------------
DIPOLE MOMENT
-------------
                                X             Y             Z
Electronic contribution:     -6.83015       1.61330      -0.23991
Nuclear contribution   :      6.84249      -3.00663       0.59058
                        -----------------------------------------
Total Dipole Moment    :      0.01235      -1.39333       0.35066
                        -----------------------------------------
Magnitude (a.u.)       :      1.43684
Magnitude (Debye)      :      3.65215



--------------------
Rotational spectrum 
--------------------
 
Rotational constants in cm-1:     0.019730     0.013270     0.009025 
Rotational constants in MHz :   591.492164   397.810879   270.550884 

 Dipole components along the rotational axes: 
x,y,z [a.u.] :     0.057075    -1.319885     0.564928 
x,y,z [Debye]:     0.145073    -3.354880     1.435934 

 

Timings for individual modules:

Sum of individual times         ...     2330.662 sec (=  38.844 min)
GTO integral calculation        ...      579.779 sec (=   9.663 min)  24.9 %
SCF iterations                  ...     1131.990 sec (=  18.866 min)  48.6 %
SCF Gradient evaluation         ...      617.667 sec (=  10.294 min)  26.5 %
Geometry relaxation             ...        1.226 sec (=   0.020 min)   0.1 %
                             ****ORCA TERMINATED NORMALLY****
TOTAL RUN TIME: 0 days 0 hours 45 minutes 12 seconds 721 msec
