
                                 *****************
                                 * O   R   C   A *
                                 *****************

                                            #,                                       
                                            ###                                      
                                            ####                                     
                                            #####                                    
                                            ######                                   
                                           ########,                                 
                                     ,,################,,,,,                         
                               ,,#################################,,                 
                          ,,##########################################,,             
                       ,#########################################, ''#####,          
                    ,#############################################,,   '####,        
                  ,##################################################,,,,####,       
                ,###########''''           ''''###############################       
              ,#####''   ,,,,##########,,,,          '''####'''          '####       
            ,##' ,,,,###########################,,,                        '##       
           ' ,,###''''                  '''############,,,                           
         ,,##''                                '''############,,,,        ,,,,,,###''
      ,#''                                            '''#######################'''  
     '                                                          ''''####''''         
             ,#######,   #######,   ,#######,      ##                                
            ,#'     '#,  ##    ##  ,#'     '#,    #''#        ######   ,####,        
            ##       ##  ##   ,#'  ##            #'  '#       #        #'  '#        
            ##       ##  #######   ##           ,######,      #####,   #    #        
            '#,     ,#'  ##    ##  '#,     ,#' ,#      #,         ##   #,  ,#        
             '#######'   ##     ##  '#######'  #'      '#     #####' # '####'        



                  #######################################################
                  #                        -***-                        #
                  #          Department of theory and spectroscopy      #
                  #    Directorship and core code : Frank Neese         #
                  #        Max Planck Institute fuer Kohlenforschung    #
                  #                Kaiser Wilhelm Platz 1               #
                  #                 D-45470 Muelheim/Ruhr               #
                  #                      Germany                        #
                  #                                                     #
                  #                  All rights reserved                #
                  #                        -***-                        #
                  #######################################################


                         Program Version 5.0.4 -  RELEASE  -


 With contributions from (in alphabetic order):
   Daniel Aravena         : Magnetic Suceptibility
   Michael Atanasov       : Ab Initio Ligand Field Theory (pilot matlab implementation)
   Alexander A. Auer      : GIAO ZORA, VPT2 properties, NMR spectrum
   Ute Becker             : Parallelization
   Giovanni Bistoni       : ED, misc. LED, open-shell LED, HFLD
   Martin Brehm           : Molecular dynamics
   Dmytro Bykov           : SCF Hessian
   Vijay G. Chilkuri      : MRCI spin determinant printing, contributions to CSF-ICE
   Dipayan Datta          : RHF DLPNO-CCSD density
   Achintya Kumar Dutta   : EOM-CC, STEOM-CC
   Dmitry Ganyushin       : Spin-Orbit,Spin-Spin,Magnetic field MRCI
   Miquel Garcia          : C-PCM and meta-GGA Hessian, CC/C-PCM, Gaussian charge scheme
   Yang Guo               : DLPNO-NEVPT2, F12-NEVPT2, CIM, IAO-localization
   Andreas Hansen         : Spin unrestricted coupled pair/coupled cluster methods
   Benjamin Helmich-Paris : MC-RPA, TRAH-SCF, COSX integrals
   Lee Huntington         : MR-EOM, pCC
   Robert Izsak           : Overlap fitted RIJCOSX, COSX-SCS-MP3, EOM
   Marcus Kettner         : VPT2
   Christian Kollmar      : KDIIS, OOCD, Brueckner-CCSD(T), CCSD density, CASPT2, CASPT2-K
   Simone Kossmann        : Meta GGA functionals, TD-DFT gradient, OOMP2, MP2 Hessian
   Martin Krupicka        : Initial AUTO-CI
   Lucas Lang             : DCDCAS
   Marvin Lechner         : AUTO-CI (C++ implementation), FIC-MRCC
   Dagmar Lenk            : GEPOL surface, SMD
   Dimitrios Liakos       : Extrapolation schemes; Compound Job, initial MDCI parallelization
   Dimitrios Manganas     : Further ROCIS development; embedding schemes
   Dimitrios Pantazis     : SARC Basis sets
   Anastasios Papadopoulos: AUTO-CI, single reference methods and gradients
   Taras Petrenko         : DFT Hessian,TD-DFT gradient, ASA, ECA, R-Raman, ABS, FL, XAS/XES, NRVS
   Peter Pinski           : DLPNO-MP2, DLPNO-MP2 Gradient
   Christoph Reimann      : Effective Core Potentials
   Marius Retegan         : Local ZFS, SOC
   Christoph Riplinger    : Optimizer, TS searches, QM/MM, DLPNO-CCSD(T), (RO)-DLPNO pert. Triples
   Tobias Risthaus        : Range-separated hybrids, TD-DFT gradient, RPA, STAB
   Michael Roemelt        : Original ROCIS implementation
   Masaaki Saitow         : Open-shell DLPNO-CCSD energy and density
   Barbara Sandhoefer     : DKH picture change effects
   Avijit Sen             : IP-ROCIS
   Kantharuban Sivalingam : CASSCF convergence, NEVPT2, FIC-MRCI
   Bernardo de Souza      : ESD, SOC TD-DFT
   Georgi Stoychev        : AutoAux, RI-MP2 NMR, DLPNO-MP2 response
   Willem Van den Heuvel  : Paramagnetic NMR
   Boris Wezisla          : Elementary symmetry handling
   Frank Wennmohs         : Technical directorship


 We gratefully acknowledge several colleagues who have allowed us to
 interface, adapt or use parts of their codes:
   Stefan Grimme, W. Hujo, H. Kruse, P. Pracht,  : VdW corrections, initial TS optimization,
                  C. Bannwarth, S. Ehlert          DFT functionals, gCP, sTDA/sTD-DF
   Ed Valeev, F. Pavosevic, A. Kumar             : LibInt (2-el integral package), F12 methods
   Garnet Chan, S. Sharma, J. Yang, R. Olivares  : DMRG
   Ulf Ekstrom                                   : XCFun DFT Library
   Mihaly Kallay                                 : mrcc  (arbitrary order and MRCC methods)
   Jiri Pittner, Ondrej Demel                    : Mk-CCSD
   Frank Weinhold                                : gennbo (NPA and NBO analysis)
   Christopher J. Cramer and Donald G. Truhlar   : smd solvation model
   Lars Goerigk                                  : TD-DFT with DH, B97 family of functionals
   V. Asgeirsson, H. Jonsson                     : NEB implementation
   FAccTs GmbH                                   : IRC, NEB, NEB-TS, DLPNO-Multilevel, CI-OPT
                                                   MM, QMMM, 2- and 3-layer-ONIOM, Crystal-QMMM,
                                                   LR-CPCM, SF, NACMEs, symmetry and pop. for TD-DFT,
                                                   nearIR, NL-DFT gradient (VV10), updates on ESD,
                                                   ML-optimized integration grids
   S Lehtola, MJT Oliveira, MAL Marques          : LibXC Library
   Liviu Ungur et al                             : ANISO software


 Your calculation uses the libint2 library for the computation of 2-el integrals
 For citations please refer to: http://libint.valeyev.net

 Your ORCA version has been built with support for libXC version: 5.1.0
 For citations please refer to: https://tddft.org/programs/libxc/

 This ORCA versions uses:
   CBLAS   interface :  Fast vector & matrix operations
   LAPACKE interface :  Fast linear algebra routines
   SCALAPACK package :  Parallel linear algebra routines
   Shared memory     :  Shared parallel matrices
   BLAS/LAPACK       :  OpenBLAS 0.3.15  USE64BITINT DYNAMIC_ARCH NO_AFFINITY Zen SINGLE_THREADED
        Core in use  :  Zen
   Copyright (c) 2011-2014, The OpenBLAS Project




***************************************
The coordinates will be read from file: opt.xyz
***************************************


================================================================================

----- Orbital basis set information -----
Your calculation utilizes the basis: EPR-II
   V. Barone, in Recent Advances in Density Functional Methods, Part 1 (ed. D. P. Chong), World Scientific, Singapore, 1995, p. 287.

----- AuxJ basis set information -----
Your calculation utilizes the AutoAux generation procedure.
  G. L. Stoychev, A. A. Auer, F. Neese, J. Chem. Theory Comput. 13, 554 (2017)

----- AuxC basis set information -----
Your calculation utilizes the AutoAux generation procedure.
  G. L. Stoychev, A. A. Auer, F. Neese, J. Chem. Theory Comput. 13, 554 (2017)

----- AuxJK basis set information -----
Your calculation utilizes the AutoAux generation procedure.
  G. L. Stoychev, A. A. Auer, F. Neese, J. Chem. Theory Comput. 13, 554 (2017)

================================================================================
                                        WARNINGS
                       Please study these warnings very carefully!
================================================================================


WARNING: your system is open-shell and RHF/RKS was chosen
  ===> : WILL SWITCH to UHF/UKS


INFO   : the flag for use of the SHARK integral package has been found!

================================================================================
                                       INPUT FILE
================================================================================
NAME = epr_info.inp
|  1> ! B3LYP EPR-II AUTOAUX
|  2> %pal nprocs 16 end
|  3> *XYZFile 1 2 opt.xyz
|  4> %EPRNMR
|  5>         GTENSOR   TRUE
|  6>         NUCLEI    = 9,10,11,12,13,19,29,30,31,32,33 {SHIFT, AISO, ADIP, AORB}
|  7>         ORI       GIAO
|  8> END
|  9> 
| 10>                          ****END OF INPUT****
================================================================================

                       ****************************
                       * Single Point Calculation *
                       ****************************

---------------------------------
CARTESIAN COORDINATES (ANGSTROEM)
---------------------------------
  N     -7.570114    1.332167   -0.035866
  C     -6.139711    1.163604    0.220474
  C     -6.068007    0.529956    1.641703
  O     -7.079422    0.467331    2.341866
  C     -5.291966    2.455937    0.081203
  C     -5.850617    3.690407    0.856911
  C     -5.449205    4.989859    0.221013
  C     -6.370739    5.753442   -0.676785
  N     -6.509954    5.104760   -2.068554
  H     -6.027754    6.776332   -0.843237
  H     -7.391589    5.779898   -0.281852
  H     -7.126802    5.658789   -2.668456
  H     -6.919542    4.116984   -1.991081
  H     -8.139377    0.905527    0.693199
  C     -8.169706    2.017355   -1.022761
  N     -4.846174    0.082959    2.023164
  H     -4.102475    0.070350    1.340557
  O     -7.535793    2.695916   -1.870463
  H     -5.599613    5.043062   -2.529114
  C     -4.612289   -0.587448    3.305866
  H     -4.588518   -1.674906    3.183079
  H     -3.663821   -0.250297    3.730304
  H     -5.426334   -0.327738    3.981823
  C     -9.682107    1.920477   -1.093286
  H    -10.109504    2.925853   -1.136331
  H     -9.945042    1.413845   -2.027131
  H    -10.120200    1.372662   -0.256970
  H     -5.735463    0.435617   -0.496525
  H     -4.274206    2.242225    0.421040
  H     -5.223769    2.679326   -0.983999
  H     -5.490728    3.656029    1.891616
  H     -6.942778    3.624837    0.902301
  H     -4.444414    5.377783    0.368497

----------------------------
CARTESIAN COORDINATES (A.U.)
----------------------------
  NO LB      ZA    FRAG     MASS         X           Y           Z
   0 N     7.0000    0    14.007  -14.305442    2.517432   -0.067777
   1 C     6.0000    0    12.011  -11.602372    2.198894    0.416636
   2 C     6.0000    0    12.011  -11.466871    1.001472    3.102370
   3 O     8.0000    0    15.999  -13.378168    0.883128    4.425485
   4 C     6.0000    0    12.011  -10.000366    4.641048    0.153452
   5 C     6.0000    0    12.011  -11.056064    6.973858    1.619328
   6 C     6.0000    0    12.011  -10.297506    9.429467    0.417654
   7 C     6.0000    0    12.011  -12.038952   10.872430   -1.278939
   8 N     7.0000    0    14.007  -12.302030    9.646599   -3.909000
   9 H     1.0000    0     1.008  -11.390804   12.805412   -1.593487
  10 H     1.0000    0     1.008  -13.968079   10.922424   -0.532624
  11 H     1.0000    0     1.008  -13.467704   10.693561   -5.042650
  12 H     1.0000    0     1.008  -13.076038    7.779972   -3.762598
  13 H     1.0000    0     1.008  -15.381193    1.711198    1.309957
  14 C     6.0000    0    12.011  -15.438507    3.812248   -1.932738
  15 N     7.0000    0    14.007   -9.157942    0.156771    3.823225
  16 H     1.0000    0     1.008   -7.752554    0.132942    2.533285
  17 O     8.0000    0    15.999  -14.240584    5.094544   -3.534663
  18 H     1.0000    0     1.008  -10.581734    9.530006   -4.779333
  19 C     6.0000    0    12.011   -8.715963   -1.110116    6.247181
  20 H     1.0000    0     1.008   -8.671042   -3.165114    6.015147
  21 H     1.0000    0     1.008   -6.923619   -0.472993    7.049254
  22 H     1.0000    0     1.008  -10.254285   -0.619335    7.524556
  23 C     6.0000    0    12.011  -18.296531    3.629175   -2.066012
  24 H     1.0000    0     1.008  -19.104194    5.529061   -2.147354
  25 H     1.0000    0     1.008  -18.793407    2.671781   -3.830723
  26 H     1.0000    0     1.008  -19.124406    2.593955   -0.485603
  27 H     1.0000    0     1.008  -10.838454    0.823198   -0.938297
  28 H     1.0000    0     1.008   -8.077078    4.237190    0.795651
  29 H     1.0000    0     1.008   -9.871493    5.063191   -1.859488
  30 H     1.0000    0     1.008  -10.375972    6.908893    3.574636
  31 H     1.0000    0     1.008  -13.119950    6.849949    1.705102
  32 H     1.0000    0     1.008   -8.398725   10.162537    0.696359

--------------------------------
INTERNAL COORDINATES (ANGSTROEM)
--------------------------------
 N      0   0   0     0.000000000000     0.00000000     0.00000000
 C      1   0   0     1.462934106300     0.00000000     0.00000000
 C      2   1   0     1.557736902846   104.58080370     0.00000000
 O      3   2   1     1.231710025385   120.10040096   349.65664556
 C      2   1   3     1.551834688252   114.98985942   235.10332769
 C      5   2   1     1.561323412853   114.73283806    49.86548519
 C      6   5   2     1.501357283348   112.22419038   207.37982866
 C      7   6   5     1.496103355084   122.08837427    99.16060518
 N      8   7   6     1.541813481117   112.49341218   285.50039868
 H      8   7   6     1.091626594398   112.09943869   165.43301219
 H      8   7   6     1.094900272336   111.72643757    42.76627336
 H      9   8   7     1.023392392777   110.84250765   181.37532251
 H      9   8   7     1.072131426963   110.90936304    61.27426289
 H      1   2   3     1.018635493577   111.88531717   353.07335226
 C      1   2   3     1.342741484918   128.62325368   168.74595045
 N      3   2   1     1.355799421425   115.61311750   170.06691198
 H     16   3   2     1.009554311714   118.53871622   351.98671850
 O     15   1   2     1.257334692203   123.07872923   356.36302734
 H      9   8   7     1.022078168607   110.59347548   300.85604825
 C     16   3   2     1.466108364622   122.73002721   182.48421017
 H     20  16   3     1.094625923168   111.07562979    98.87592387
 H     20  16   3     1.092433031921   109.71262009   219.89137825
 H     20  16   3     1.089512393816   108.33754856   339.40440585
 C     15   1   2     1.517141217610   116.53404361   175.32393002
 H     24  15   1     1.093299152318   109.43954420   128.40306651
 H     24  15   1     1.094475208719   107.98149911   244.95286465
 H     24  15   1     1.091536128133   113.36151014     5.77600323
 H      2   1   3     1.098849226786   108.76602010   115.18096403
 H      5   2   1     1.094073819955   108.51986659   172.61223472
 H      5   2   1     1.090508285842   107.00283787   287.25809773
 H      6   5   2     1.096045445166   109.07077282    85.44504086
 H      6   5   2     1.095069043058   109.27527212   329.21298542
 H      7   6   5     1.087125943354   119.90101015   282.20997827

---------------------------
INTERNAL COORDINATES (A.U.)
---------------------------
 N      0   0   0     0.000000000000     0.00000000     0.00000000
 C      1   0   0     2.764544812880     0.00000000     0.00000000
 C      2   1   0     2.943696135082   104.58080370     0.00000000
 O      3   2   1     2.327594624382   120.10040096   349.65664556
 C      2   1   3     2.932542565915   114.98985942   235.10332769
 C      5   2   1     2.950473656771   114.73283806    49.86548519
 C      6   5   2     2.837154094695   112.22419038   207.37982866
 C      7   6   5     2.827225609149   122.08837427    99.16060518
 N      8   7   6     2.913605228898   112.49341218   285.50039868
 H      8   7   6     2.062875303917   112.09943869   165.43301219
 H      8   7   6     2.069061658671   111.72643757    42.76627336
 H      9   8   7     1.933931349888   110.84250765   181.37532251
 H      9   8   7     2.026034776530   110.90936304    61.27426289
 H      1   2   3     1.924942113152   111.88531717   353.07335226
 C      1   2   3     2.537413675150   128.62325368   168.74595045
 N      3   2   1     2.562089599023   115.61311750   170.06691198
 H     16   3   2     1.907781166459   118.53871622   351.98671850
 O     15   1   2     2.376018226942   123.07872923   356.36302734
 H      9   8   7     1.931447826127   110.59347548   300.85604825
 C     16   3   2     2.770543291787   122.73002721   182.48421017
 H     20  16   3     2.068543213878   111.07562979    98.87592387
 H     20  16   3     2.064399249980   109.71262009   219.89137825
 H     20  16   3     2.058880043826   108.33754856   339.40440585
 C     15   1   2     2.866981407766   116.53404361   175.32393002
 H     24  15   1     2.066035980330   109.43954420   128.40306651
 H     24  15   1     2.068258404845   107.98149911   244.95286465
 H     24  15   1     2.062704347451   113.36151014     5.77600323
 H      2   1   3     2.076524101096   108.76602010   115.18096403
 H      5   2   1     2.067499890008   108.51986659   172.61223472
 H      5   2   1     2.060762007014   107.00283787   287.25809773
 H      6   5   2     2.071225721695   109.07077282    85.44504086
 H      6   5   2     2.069380589115   109.27527212   329.21298542
 H      7   6   5     2.054370306020   119.90101015   282.20997827

---------------------
BASIS SET INFORMATION
---------------------
There are 4 groups of distinct atoms

 Group   1 Type N   : 10s5p1d contracted to 6s2p1d pattern {511111/41/1}
 Group   2 Type C   : 10s5p1d contracted to 6s2p1d pattern {511111/41/1}
 Group   3 Type O   : 10s5p1d contracted to 6s2p1d pattern {511111/41/1}
 Group   4 Type H   : 6s1p contracted to 4s1p pattern {3111/1}

Atom   0N    basis set group =>   1
Atom   1C    basis set group =>   2
Atom   2C    basis set group =>   2
Atom   3O    basis set group =>   3
Atom   4C    basis set group =>   2
Atom   5C    basis set group =>   2
Atom   6C    basis set group =>   2
Atom   7C    basis set group =>   2
Atom   8N    basis set group =>   1
Atom   9H    basis set group =>   4
Atom  10H    basis set group =>   4
Atom  11H    basis set group =>   4
Atom  12H    basis set group =>   4
Atom  13H    basis set group =>   4
Atom  14C    basis set group =>   2
Atom  15N    basis set group =>   1
Atom  16H    basis set group =>   4
Atom  17O    basis set group =>   3
Atom  18H    basis set group =>   4
Atom  19C    basis set group =>   2
Atom  20H    basis set group =>   4
Atom  21H    basis set group =>   4
Atom  22H    basis set group =>   4
Atom  23C    basis set group =>   2
Atom  24H    basis set group =>   4
Atom  25H    basis set group =>   4
Atom  26H    basis set group =>   4
Atom  27H    basis set group =>   4
Atom  28H    basis set group =>   4
Atom  29H    basis set group =>   4
Atom  30H    basis set group =>   4
Atom  31H    basis set group =>   4
Atom  32H    basis set group =>   4
---------------------------------
AUXILIARY/J BASIS SET INFORMATION
---------------------------------
There are 4 groups of distinct atoms

 Group   1 Type N   : 17s13p12d2f contracted to 17s13p12d2f pattern {11111111111111111/1111111111111/111111111111/11}
 Group   2 Type C   : 17s13p12d2f contracted to 17s13p12d2f pattern {11111111111111111/1111111111111/111111111111/11}
 Group   3 Type O   : 17s13p12d2f contracted to 17s13p12d2f pattern {11111111111111111/1111111111111/111111111111/11}
 Group   4 Type H   : 15s6p1d contracted to 15s6p1d pattern {111111111111111/111111/1}

Atom   0N    basis set group =>   1
Atom   1C    basis set group =>   2
Atom   2C    basis set group =>   2
Atom   3O    basis set group =>   3
Atom   4C    basis set group =>   2
Atom   5C    basis set group =>   2
Atom   6C    basis set group =>   2
Atom   7C    basis set group =>   2
Atom   8N    basis set group =>   1
Atom   9H    basis set group =>   4
Atom  10H    basis set group =>   4
Atom  11H    basis set group =>   4
Atom  12H    basis set group =>   4
Atom  13H    basis set group =>   4
Atom  14C    basis set group =>   2
Atom  15N    basis set group =>   1
Atom  16H    basis set group =>   4
Atom  17O    basis set group =>   3
Atom  18H    basis set group =>   4
Atom  19C    basis set group =>   2
Atom  20H    basis set group =>   4
Atom  21H    basis set group =>   4
Atom  22H    basis set group =>   4
Atom  23C    basis set group =>   2
Atom  24H    basis set group =>   4
Atom  25H    basis set group =>   4
Atom  26H    basis set group =>   4
Atom  27H    basis set group =>   4
Atom  28H    basis set group =>   4
Atom  29H    basis set group =>   4
Atom  30H    basis set group =>   4
Atom  31H    basis set group =>   4
Atom  32H    basis set group =>   4
---------------------------------
AUXILIARY/C BASIS SET INFORMATION
---------------------------------
There are 4 groups of distinct atoms

 Group   1 Type N   : 17s13p12d2f contracted to 17s13p12d2f pattern {11111111111111111/1111111111111/111111111111/11}
 Group   2 Type C   : 17s13p12d2f contracted to 17s13p12d2f pattern {11111111111111111/1111111111111/111111111111/11}
 Group   3 Type O   : 17s13p12d2f contracted to 17s13p12d2f pattern {11111111111111111/1111111111111/111111111111/11}
 Group   4 Type H   : 15s6p1d contracted to 15s6p1d pattern {111111111111111/111111/1}

Atom   0N    basis set group =>   1
Atom   1C    basis set group =>   2
Atom   2C    basis set group =>   2
Atom   3O    basis set group =>   3
Atom   4C    basis set group =>   2
Atom   5C    basis set group =>   2
Atom   6C    basis set group =>   2
Atom   7C    basis set group =>   2
Atom   8N    basis set group =>   1
Atom   9H    basis set group =>   4
Atom  10H    basis set group =>   4
Atom  11H    basis set group =>   4
Atom  12H    basis set group =>   4
Atom  13H    basis set group =>   4
Atom  14C    basis set group =>   2
Atom  15N    basis set group =>   1
Atom  16H    basis set group =>   4
Atom  17O    basis set group =>   3
Atom  18H    basis set group =>   4
Atom  19C    basis set group =>   2
Atom  20H    basis set group =>   4
Atom  21H    basis set group =>   4
Atom  22H    basis set group =>   4
Atom  23C    basis set group =>   2
Atom  24H    basis set group =>   4
Atom  25H    basis set group =>   4
Atom  26H    basis set group =>   4
Atom  27H    basis set group =>   4
Atom  28H    basis set group =>   4
Atom  29H    basis set group =>   4
Atom  30H    basis set group =>   4
Atom  31H    basis set group =>   4
Atom  32H    basis set group =>   4
----------------------------------
AUXILIARY/JK BASIS SET INFORMATION
----------------------------------
There are 4 groups of distinct atoms

 Group   1 Type N   : 17s13p12d2f contracted to 17s13p12d2f pattern {11111111111111111/1111111111111/111111111111/11}
 Group   2 Type C   : 17s13p12d2f contracted to 17s13p12d2f pattern {11111111111111111/1111111111111/111111111111/11}
 Group   3 Type O   : 17s13p12d2f contracted to 17s13p12d2f pattern {11111111111111111/1111111111111/111111111111/11}
 Group   4 Type H   : 15s6p1d contracted to 15s6p1d pattern {111111111111111/111111/1}

Atom   0N    basis set group =>   1
Atom   1C    basis set group =>   2
Atom   2C    basis set group =>   2
Atom   3O    basis set group =>   3
Atom   4C    basis set group =>   2
Atom   5C    basis set group =>   2
Atom   6C    basis set group =>   2
Atom   7C    basis set group =>   2
Atom   8N    basis set group =>   1
Atom   9H    basis set group =>   4
Atom  10H    basis set group =>   4
Atom  11H    basis set group =>   4
Atom  12H    basis set group =>   4
Atom  13H    basis set group =>   4
Atom  14C    basis set group =>   2
Atom  15N    basis set group =>   1
Atom  16H    basis set group =>   4
Atom  17O    basis set group =>   3
Atom  18H    basis set group =>   4
Atom  19C    basis set group =>   2
Atom  20H    basis set group =>   4
Atom  21H    basis set group =>   4
Atom  22H    basis set group =>   4
Atom  23C    basis set group =>   2
Atom  24H    basis set group =>   4
Atom  25H    basis set group =>   4
Atom  26H    basis set group =>   4
Atom  27H    basis set group =>   4
Atom  28H    basis set group =>   4
Atom  29H    basis set group =>   4
Atom  30H    basis set group =>   4
Atom  31H    basis set group =>   4
Atom  32H    basis set group =>   4


           ************************************************************
           *        Program running with 16 parallel MPI-processes    *
           *              working on a common directory               *
           ************************************************************
------------------------------------------------------------------------------
                           ORCA GTO INTEGRAL CALCULATION
                           -- RI-GTO INTEGRALS CHOSEN --
------------------------------------------------------------------------------
------------------------------------------------------------------------------
                   ___                                                        
                  /   \      - P O W E R E D   B Y -                         
                 /     \                                                     
                 |  |  |   _    _      __       _____    __    __             
                 |  |  |  | |  | |    /  \     |  _  \  |  |  /  |          
                  \  \/   | |  | |   /    \    | | | |  |  | /  /          
                 / \  \   | |__| |  /  /\  \   | |_| |  |  |/  /          
                |  |  |   |  __  | /  /__\  \  |    /   |      \           
                |  |  |   | |  | | |   __   |  |    \   |  |\   \          
                \     /   | |  | | |  |  |  |  | |\  \  |  | \   \       
                 \___/    |_|  |_| |__|  |__|  |_| \__\ |__|  \__/        
                                                                              
                      - O R C A' S   B I G   F R I E N D -                    
                                      &                                       
                       - I N T E G R A L  F E E D E R -                       
                                                                              
 v1 FN, 2020, v2 2021                                                         
------------------------------------------------------------------------------


Reading SHARK input file epr_info.SHARKINP.tmp ... ok
----------------------
SHARK INTEGRAL PACKAGE
----------------------

Number of atoms                             ...     33
Number of basis functions                   ...    371
Number of shells                            ...    221
Maximum angular momentum                    ...      2
Integral batch strategy                     ... SHARK/LIBINT Hybrid
RI-J (if used) integral strategy            ... SPLIT-RIJ (Revised 2003 algorithm where possible)
Printlevel                                  ...      1
Contraction scheme used                     ... SEGMENTED contraction
Coulomb Range Separation                    ... NOT USED
Exchange Range Separation                   ... NOT USED
Finite Nucleus Model                        ... NOT USED
Auxiliary Coulomb fitting basis             ... AVAILABLE
   # of basis functions in Aux-J            ...   2542
   # of shells in Aux-J                     ...   1034
   Maximum angular momentum in Aux-J        ...      3
Auxiliary J/K fitting basis                 ... AVAILABLE
   # of basis functions in Aux-JK           ...   2542
   # of shells in Aux-JK                    ...   1034
   Maximum angular momentum in Aux-JK       ...      3
Auxiliary Correlation fitting basis         ... AVAILABLE
   # of basis functions in Aux-C            ...   2542
   # of shells in Aux-C                     ...   1034
   Maximum angular momentum in Aux-C        ...      3
Auxiliary 'external' fitting basis          ... NOT available
Integral threshold                          ...     1.000000e-10
Primitive cut-off                           ...     1.000000e-11
Primitive pair pre-selection threshold      ...     1.000000e-11

Calculating pre-screening integrals         ... done (  0.0 sec) Dimension = 221
Organizing shell pair data                  ... done (  0.1 sec)
Shell pair information
Total number of shell pairs                 ...     24531
Shell pairs after pre-screening             ...     16358
Total number of primitive shell pairs       ...     64184
Primitive shell pairs kept                  ...     31116
          la=0 lb=0:   7695 shell pairs
          la=1 lb=0:   5573 shell pairs
          la=1 lb=1:    958 shell pairs
          la=2 lb=0:   1507 shell pairs
          la=2 lb=1:    537 shell pairs
          la=2 lb=2:     88 shell pairs

Calculating one electron integrals          ... done (  0.0 sec)
Calculating RI/J V-Matrix + Cholesky decomp.... done (  0.3 sec)
Calculating RI/JK V-Matrix + Cholesky decomp... done (  0.3 sec)
Calculating RI/C V-Matrix + Cholesky decomp.... done (  0.3 sec)
Calculating Nuclear repulsion               ... done (  0.0 sec) ENN=    972.129610000558 Eh

SHARK setup successfully completed in   1.2 seconds

Maximum memory used throughout the entire GTOINT-calculation: 29.4 MB


           ************************************************************
           *        Program running with 16 parallel MPI-processes    *
           *              working on a common directory               *
           ************************************************************
-------------------------------------------------------------------------------
                                 ORCA SCF
-------------------------------------------------------------------------------

------------
SCF SETTINGS
------------
Hamiltonian:
 Density Functional     Method          .... DFT(GTOs)
 Exchange Functional    Exchange        .... B88
   X-Alpha parameter    XAlpha          ....  0.666667
   Becke's b parameter  XBeta           ....  0.004200
 Correlation Functional Correlation     .... LYP
 LDA part of GGA corr.  LDAOpt          .... VWN-5
 Gradients option       PostSCFGGA      .... off
 Hybrid DFT is turned on
   Fraction HF Exchange ScalHFX         ....  0.200000
   Scaling of DF-GGA-X  ScalDFX         ....  0.720000
   Scaling of DF-GGA-C  ScalDFC         ....  0.810000
   Scaling of DF-LDA-C  ScalLDAC        ....  1.000000
   Perturbative correction              ....  0.000000
   Density functional embedding theory  .... OFF
   NL short-range parameter             ....  4.800000
 RI-approximation to the Coulomb term is turned on
   Number of AuxJ basis functions       .... 2542
   RIJ-COSX (HFX calculated with COS-X)).... on


General Settings:
 Integral files         IntName         .... epr_info
 Hartree-Fock type      HFTyp           .... UHF
 Total Charge           Charge          ....    1
 Multiplicity           Mult            ....    2
 Number of Electrons    NEL             ....  109
 Basis Dimension        Dim             ....  371
 Nuclear Repulsion      ENuc            ....    972.1296100006 Eh

Convergence Acceleration:
 DIIS                   CNVDIIS         .... on
   Start iteration      DIISMaxIt       ....    12
   Startup error        DIISStart       ....  0.200000
   # of expansion vecs  DIISMaxEq       ....     5
   Bias factor          DIISBfac        ....   1.050
   Max. coefficient     DIISMaxC        ....  10.000
 Trust-Rad. Augm. Hess. CNVTRAH         .... auto
   Auto Start mean grad. ratio tolernc. ....  1.125000
   Auto Start start iteration           ....    20
   Auto Start num. interpolation iter.  ....    10
   Max. Number of Micro iterations      ....    16
   Max. Number of Macro iterations      .... Maxiter - #DIIS iter
   Number of Davidson start vectors     ....     2
   Converg. threshold I  (grad. norm)   ....   5.000e-05
   Converg. threshold II (energy diff.) ....   1.000e-06
   Grad. Scal. Fac. for Micro threshold ....   0.100
   Minimum threshold for Micro iter.    ....   0.010
   NR start threshold (gradient norm)   ....   0.001
   Initial trust radius                 ....   0.400
   Minimum AH scaling param. (alpha)    ....   1.000
   Maximum AH scaling param. (alpha)    .... 1000.000
   Orbital update algorithm             .... Taylor
   White noise on init. David. guess    .... on
   Maximum white noise                  ....   0.010
   Quad. conv. algorithm                .... NR
 SOSCF                  CNVSOSCF        .... off
 Level Shifting         CNVShift        .... on
   Level shift para.    LevelShift      ....    0.2500
   Turn off err/grad.   ShiftErr        ....    0.0010
 Zerner damping         CNVZerner       .... off
 Static damping         CNVDamp         .... on
   Fraction old density DampFac         ....    0.7000
   Max. Damping (<1)    DampMax         ....    0.9800
   Min. Damping (>=0)   DampMin         ....    0.0000
   Turn off err/grad.   DampErr         ....    0.1000
 Fernandez-Rico         CNVRico         .... off

SCF Procedure:
 Maximum # iterations   MaxIter         ....   125
 SCF integral mode      SCFMode         .... Direct
   Integral package                     .... SHARK and LIBINT hybrid scheme
 Reset frequency        DirectResetFreq ....    20
 Integral Threshold     Thresh          ....  1.000e-10 Eh
 Primitive CutOff       TCut            ....  1.000e-11 Eh

Convergence Tolerance:
 Convergence Check Mode ConvCheckMode   .... Total+1el-Energy
 Convergence forced     ConvForced      .... 0
 Energy Change          TolE            ....  1.000e-06 Eh
 1-El. energy change                    ....  1.000e-03 Eh
 DIIS Error             TolErr          ....  1.000e-06


Diagonalization of the overlap matrix:
Smallest eigenvalue                        ... 1.052e-03
Time for diagonalization                   ...    0.014 sec
Threshold for overlap eigenvalues          ... 1.000e-08
Number of eigenvalues below threshold      ... 0
Time for construction of square roots      ...    0.011 sec
Total time needed                          ...    0.027 sec

Time for model grid setup =    0.116 sec

------------------------------
INITIAL GUESS: MODEL POTENTIAL
------------------------------
Loading Hartree-Fock densities                     ... done
Calculating cut-offs                               ... done
Initializing the effective Hamiltonian             ... done
Setting up the integral package (SHARK)            ... done
Starting the Coulomb interaction                   ... done (   0.1 sec)
Reading the grid                                   ... done
Mapping shells                                     ... done
Starting the XC term evaluation                    ... done (   0.0 sec)
  promolecular density results
     # of electrons  =    109.992615403
     EX              =    -88.061873134
     EC              =     -3.695341975
     EX+EC           =    -91.757215109
Transforming the Hamiltonian                       ... done (   0.0 sec)
Diagonalizing the Hamiltonian                      ... done (   0.0 sec)
Back transforming the eigenvectors                 ... done (   0.0 sec)
Now organizing SCF variables                       ... done
                      ------------------
                      INITIAL GUESS DONE (   0.3 sec)
                      ------------------
-------------------
DFT GRID GENERATION
-------------------

General Integration Accuracy     IntAcc      ... 4.388
Radial Grid Type                 RadialGrid  ... OptM3 with GC (2021)
Angular Grid (max. ang.)         AngularGrid ... 4 (Lebedev-302)
Angular grid pruning method      GridPruning ... 4 (adaptive)
Weight generation scheme         WeightScheme... Becke
Basis function cutoff            BFCut       ... 1.0000e-10
Integration weight cutoff        WCut        ... 1.0000e-14
Angular grids for H and He will be reduced by one unit
Partially contracted basis set               ... off
Rotationally invariant grid construction     ... off

Total number of grid points                  ...   144426
Total number of batches                      ...     2275
Average number of points per batch           ...       63
Average number of grid points per atom       ...     4377
Time for grid setup =    0.616 sec

--------------------
COSX GRID GENERATION
--------------------

GRIDX 1
-------
General Integration Accuracy     IntAcc      ... 3.816
Radial Grid Type                 RadialGrid  ... OptM3 with GC (2021)
Angular Grid (max. ang.)         AngularGrid ... 1 (Lebedev-50)
Angular grid pruning method      GridPruning ... 4 (adaptive)
Weight generation scheme         WeightScheme... Becke
Basis function cutoff            BFCut       ... 1.0000e-10
Integration weight cutoff        WCut        ... 1.0000e-14
Angular grids for H and He will be reduced by one unit
Partially contracted basis set               ... on
Rotationally invariant grid construction     ... off

Total number of grid points                  ...    18428
Total number of batches                      ...      309
Average number of points per batch           ...       59
Average number of grid points per atom       ...      558
UseSFitting                                  ... on

GRIDX 2
-------
General Integration Accuracy     IntAcc      ... 4.020
Radial Grid Type                 RadialGrid  ... OptM3 with GC (2021)
Angular Grid (max. ang.)         AngularGrid ... 2 (Lebedev-110)
Angular grid pruning method      GridPruning ... 4 (adaptive)
Weight generation scheme         WeightScheme... Becke
Basis function cutoff            BFCut       ... 1.0000e-10
Integration weight cutoff        WCut        ... 1.0000e-14
Angular grids for H and He will be reduced by one unit
Partially contracted basis set               ... on
Rotationally invariant grid construction     ... off

Total number of grid points                  ...    38815
Total number of batches                      ...      625
Average number of points per batch           ...       62
Average number of grid points per atom       ...     1176
UseSFitting                                  ... on

GRIDX 3
-------
General Integration Accuracy     IntAcc      ... 4.338
Radial Grid Type                 RadialGrid  ... OptM3 with GC (2021)
Angular Grid (max. ang.)         AngularGrid ... 3 (Lebedev-194)
Angular grid pruning method      GridPruning ... 4 (adaptive)
Weight generation scheme         WeightScheme... Becke
Basis function cutoff            BFCut       ... 1.0000e-10
Integration weight cutoff        WCut        ... 1.0000e-14
Angular grids for H and He will be reduced by one unit
Partially contracted basis set               ... on
Rotationally invariant grid construction     ... off

Total number of grid points                  ...    84540
Total number of batches                      ...     1340
Average number of points per batch           ...       63
Average number of grid points per atom       ...     2562
UseSFitting                                  ... on

Time for X-Grid setup             =    0.685 sec

--------------
SCF ITERATIONS
--------------
ITER       Energy         Delta-E        Max-DP      RMS-DP      [F,P]     Damp
               ***  Starting incremental Fock matrix formation  ***
  0   -668.1931956928   0.000000000000 0.06153215  0.00081057  0.1257563 0.7000
  1   -668.3937953061  -0.200599613309 0.03447510  0.00053883  0.0475266 0.7000
                               ***Turning on DIIS***
  2   -668.4676627728  -0.073867466650 0.04239813  0.00083462  0.0174143 0.0000
  3   -668.5904231512  -0.122760378429 0.02398956  0.00038875  0.0226520 0.0000
  4   -668.6153399941  -0.024916842856 0.00891283  0.00012757  0.0075071 0.0000
  5   -668.6167902064  -0.001450212353 0.00410329  0.00004891  0.0048553 0.0000
  6   -668.6170837579  -0.000293551512 0.00259547  0.00003006  0.0006407 0.0000
               *** Restarting incremental Fock matrix formation ***
                                   *** Resetting DIIS ***
  7   -668.6171059794  -0.000022221446 0.00188930  0.00001730  0.0005765 0.0000
  8   -668.6170920847   0.000013894713 0.00087678  0.00000717  0.0010338 0.0000
  9   -668.6171141439  -0.000022059269 0.00038533  0.00000391  0.0002418 0.0000
 10   -668.6171159475  -0.000001803545 0.00013942  0.00000139  0.0000809 0.0000
                 **** Energy Check signals convergence ****

               *****************************************************
               *                     SUCCESS                       *
               *           SCF CONVERGED AFTER  11 CYCLES          *
               *****************************************************

Old exchange energy                            =    -17.880483850 Eh
New exchange energy                            =    -17.880489187 Eh
Exchange energy change after final integration =     -0.000005337 Eh
Total energy after final integration           =   -668.617121295 Eh
Final COS-X integration done in                =     2.315 sec

----------------
TOTAL SCF ENERGY
----------------

Total Energy       :         -668.61712130 Eh          -18193.99684 eV

Components:
Nuclear Repulsion  :          972.12961000 Eh           26452.99153 eV
Electronic Energy  :        -1640.74673130 Eh          -44646.98837 eV
One Electron Energy:        -2823.04568997 Eh          -76818.97863 eV
Two Electron Energy:         1182.29895868 Eh           32171.99026 eV
Max COSX asymmetry :            0.00000155 Eh               0.00004 eV

Virial components:
Potential Energy   :        -1332.64967107 Eh          -36263.24114 eV
Kinetic Energy     :          664.03254978 Eh           18069.24430 eV
Virial Ratio       :            2.00690414


DFT components:
N(Alpha)           :       54.999737428966 electrons
N(Beta)            :       53.999761869318 electrons
N(Total)           :      108.999499298284 electrons
E(X)               :      -71.022124021423 Eh       
E(C)               :       -4.319357536304 Eh       
E(XC)              :      -75.341481557728 Eh       
DFET-embed. en.    :        0.000000000000 Eh       

---------------
SCF CONVERGENCE
---------------

  Last Energy change         ...   -1.1011e-08  Tolerance :   1.0000e-06
  Last MAX-Density change    ...    0.0000e+00  Tolerance :   1.0000e-05
  Last RMS-Density change    ...    0.0000e+00  Tolerance :   1.0000e-06
  Last DIIS Error            ...    1.0182e-04  Tolerance :   1.0000e-06

             **** THE GBW FILE WAS UPDATED (epr_info.gbw) ****
             **** DENSITY epr_info.scfp WAS UPDATED ****
             **** ENERGY FILE WAS UPDATED (epr_info.en.tmp) ****
----------------------
UHF SPIN CONTAMINATION
----------------------

Warning: in a DFT calculation there is little theoretical justification to 
         calculate <S**2> as in Hartree-Fock theory. We will do it anyways
         but you should keep in mind that the values have only limited relevance

Expectation value of <S**2>     :     0.754009
Ideal value S*(S+1) for S=0.5   :     0.750000
Deviation                       :     0.004009

             **** THE GBW FILE WAS UPDATED (epr_info.gbw) ****
             **** DENSITY epr_info.scfp WAS UPDATED ****
----------------
ORBITAL ENERGIES
----------------
                 SPIN UP ORBITALS
  NO   OCC          E(Eh)            E(eV) 
   0   1.0000     -19.249501      -523.8055 
   1   1.0000     -19.230692      -523.2937 
   2   1.0000     -14.578952      -396.7134 
   3   1.0000     -14.489835      -394.2885 
   4   1.0000     -14.477219      -393.9452 
   5   1.0000     -10.435210      -283.9565 
   6   1.0000     -10.413891      -283.3764 
   7   1.0000     -10.399771      -282.9921 
   8   1.0000     -10.370270      -282.1894 
   9   1.0000     -10.355392      -281.7846 
  10   1.0000     -10.328779      -281.0604 
  11   1.0000     -10.326579      -281.0005 
  12   1.0000     -10.313969      -280.6574 
  13   1.0000     -10.306555      -280.4556 
  14   1.0000      -1.170015       -31.8377 
  15   1.0000      -1.154337       -31.4111 
  16   1.0000      -1.130910       -30.7736 
  17   1.0000      -1.055781       -28.7292 
  18   1.0000      -1.036390       -28.2016 
  19   1.0000      -0.949043       -25.8248 
  20   1.0000      -0.911537       -24.8042 
  21   1.0000      -0.864634       -23.5279 
  22   1.0000      -0.840970       -22.8840 
  23   1.0000      -0.806217       -21.9383 
  24   1.0000      -0.775188       -21.0939 
  25   1.0000      -0.740971       -20.1628 
  26   1.0000      -0.727818       -19.8049 
  27   1.0000      -0.708274       -19.2731 
  28   1.0000      -0.704999       -19.1840 
  29   1.0000      -0.687362       -18.7041 
  30   1.0000      -0.655235       -17.8299 
  31   1.0000      -0.637557       -17.3488 
  32   1.0000      -0.616134       -16.7659 
  33   1.0000      -0.613715       -16.7000 
  34   1.0000      -0.595773       -16.2118 
  35   1.0000      -0.585060       -15.9203 
  36   1.0000      -0.571603       -15.5541 
  37   1.0000      -0.566656       -15.4195 
  38   1.0000      -0.563035       -15.3210 
  39   1.0000      -0.549055       -14.9405 
  40   1.0000      -0.539539       -14.6816 
  41   1.0000      -0.531423       -14.4608 
  42   1.0000      -0.524463       -14.2714 
  43   1.0000      -0.514183       -13.9916 
  44   1.0000      -0.503757       -13.7079 
  45   1.0000      -0.494264       -13.4496 
  46   1.0000      -0.490314       -13.3421 
  47   1.0000      -0.486314       -13.2333 
  48   1.0000      -0.477636       -12.9971 
  49   1.0000      -0.473407       -12.8821 
  50   1.0000      -0.401499       -10.9253 
  51   1.0000      -0.398769       -10.8511 
  52   1.0000      -0.380886       -10.3644 
  53   1.0000      -0.369785       -10.0624 
  54   1.0000      -0.355929        -9.6853 
  55   0.0000      -0.133580        -3.6349 
  56   0.0000      -0.122267        -3.3270 
  57   0.0000      -0.102346        -2.7850 
  58   0.0000      -0.095876        -2.6089 
  59   0.0000      -0.087132        -2.3710 
  60   0.0000      -0.084690        -2.3045 
  61   0.0000      -0.071063        -1.9337 
  62   0.0000      -0.060434        -1.6445 
  63   0.0000      -0.047401        -1.2899 
  64   0.0000      -0.044561        -1.2126 
  65   0.0000      -0.032986        -0.8976 
  66   0.0000      -0.030276        -0.8238 
  67   0.0000      -0.025348        -0.6898 
  68   0.0000      -0.015062        -0.4099 
  69   0.0000      -0.004222        -0.1149 
  70   0.0000       0.013271         0.3611 
  71   0.0000       0.027607         0.7512 
  72   0.0000       0.030119         0.8196 
  73   0.0000       0.031241         0.8501 
  74   0.0000       0.042739         1.1630 
  75   0.0000       0.046170         1.2563 
  76   0.0000       0.049798         1.3551 
  77   0.0000       0.057593         1.5672 
  78   0.0000       0.063484         1.7275 
  79   0.0000       0.079611         2.1663 
  80   0.0000       0.083305         2.2668 
  81   0.0000       0.086897         2.3646 
  82   0.0000       0.091444         2.4883 
  83   0.0000       0.096018         2.6128 
  84   0.0000       0.106053         2.8858 
  85   0.0000       0.111116         3.0236 
  86   0.0000       0.113697         3.0938 
  87   0.0000       0.122941         3.3454 
  88   0.0000       0.129110         3.5133 
  89   0.0000       0.134447         3.6585 
  90   0.0000       0.146407         3.9839 
  91   0.0000       0.150160         4.0861 
  92   0.0000       0.156108         4.2479 
  93   0.0000       0.158950         4.3253 
  94   0.0000       0.161374         4.3912 
  95   0.0000       0.172308         4.6887 
  96   0.0000       0.173823         4.7300 
  97   0.0000       0.180662         4.9161 
  98   0.0000       0.184978         5.0335 
  99   0.0000       0.188691         5.1345 
 100   0.0000       0.200172         5.4470 
 101   0.0000       0.208628         5.6770 
 102   0.0000       0.210789         5.7359 
 103   0.0000       0.219617         5.9761 
 104   0.0000       0.228972         6.2306 
 105   0.0000       0.229680         6.2499 
 106   0.0000       0.244023         6.6402 
 107   0.0000       0.259485         7.0610 
 108   0.0000       0.263179         7.1615 
 109   0.0000       0.267724         7.2851 
 110   0.0000       0.284660         7.7460 
 111   0.0000       0.292574         7.9613 
 112   0.0000       0.299792         8.1578 
 113   0.0000       0.308542         8.3959 
 114   0.0000       0.315921         8.5967 
 115   0.0000       0.326713         8.8903 
 116   0.0000       0.332486         9.0474 
 117   0.0000       0.343886         9.3576 
 118   0.0000       0.357321         9.7232 
 119   0.0000       0.361156         9.8275 
 120   0.0000       0.372241        10.1292 
 121   0.0000       0.376296        10.2395 
 122   0.0000       0.391522        10.6539 
 123   0.0000       0.401002        10.9118 
 124   0.0000       0.407155        11.0792 
 125   0.0000       0.413218        11.2442 
 126   0.0000       0.421220        11.4620 
 127   0.0000       0.433958        11.8086 
 128   0.0000       0.458849        12.4859 
 129   0.0000       0.464057        12.6276 
 130   0.0000       0.477533        12.9943 
 131   0.0000       0.493484        13.4284 
 132   0.0000       0.499572        13.5940 
 133   0.0000       0.527365        14.3503 
 134   0.0000       0.544299        14.8111 
 135   0.0000       0.577269        15.7083 
 136   0.0000       0.601973        16.3805 
 137   0.0000       0.605927        16.4881 
 138   0.0000       0.620492        16.8845 
 139   0.0000       0.652391        17.7525 
 140   0.0000       0.670404        18.2426 
 141   0.0000       0.681489        18.5442 
 142   0.0000       0.689917        18.7736 
 143   0.0000       0.698704        19.0127 
 144   0.0000       0.711994        19.3743 
 145   0.0000       0.720365        19.6021 
 146   0.0000       0.725373        19.7384 
 147   0.0000       0.731596        19.9078 
 148   0.0000       0.737014        20.0552 
 149   0.0000       0.742222        20.1969 
 150   0.0000       0.753058        20.4918 
 151   0.0000       0.760664        20.6987 
 152   0.0000       0.768339        20.9076 
 153   0.0000       0.771995        21.0071 
 154   0.0000       0.779453        21.2100 
 155   0.0000       0.782777        21.3004 
 156   0.0000       0.798659        21.7326 
 157   0.0000       0.807149        21.9636 
 158   0.0000       0.814455        22.1625 
 159   0.0000       0.819416        22.2974 
 160   0.0000       0.827112        22.5068 
 161   0.0000       0.830901        22.6100 
 162   0.0000       0.856446        23.3051 
 163   0.0000       0.860983        23.4286 
 164   0.0000       0.863574        23.4990 
 165   0.0000       0.870016        23.6743 
 166   0.0000       0.878663        23.9096 
 167   0.0000       0.882471        24.0132 
 168   0.0000       0.894602        24.3434 
 169   0.0000       0.898548        24.4507 
 170   0.0000       0.912105        24.8196 
 171   0.0000       0.917712        24.9722 
 172   0.0000       0.929471        25.2922 
 173   0.0000       0.936160        25.4742 
 174   0.0000       0.954491        25.9730 
 175   0.0000       0.987709        26.8769 
 176   0.0000       1.002031        27.2666 
 177   0.0000       1.026926        27.9441 
 178   0.0000       1.036984        28.2178 
 179   0.0000       1.040953        28.3258 
 180   0.0000       1.055450        28.7202 
 181   0.0000       1.082248        29.4495 
 182   0.0000       1.089178        29.6380 
 183   0.0000       1.097762        29.8716 
 184   0.0000       1.104071        30.0433 
 185   0.0000       1.130614        30.7656 
 186   0.0000       1.143436        31.1145 
 187   0.0000       1.172343        31.9011 
 188   0.0000       1.191035        32.4097 
 189   0.0000       1.196531        32.5593 
 190   0.0000       1.217106        33.1191 
 191   0.0000       1.235754        33.6266 
 192   0.0000       1.247009        33.9328 
 193   0.0000       1.266814        34.4718 
 194   0.0000       1.287012        35.0214 
 195   0.0000       1.294202        35.2170 
 196   0.0000       1.299066        35.3494 
 197   0.0000       1.307467        35.5780 
 198   0.0000       1.316739        35.8303 
 199   0.0000       1.324723        36.0475 
 200   0.0000       1.326497        36.0958 
 201   0.0000       1.351137        36.7663 
 202   0.0000       1.363029        37.0899 
 203   0.0000       1.378701        37.5164 
 204   0.0000       1.382426        37.6177 
 205   0.0000       1.389927        37.8218 
 206   0.0000       1.408333        38.3227 
 207   0.0000       1.415369        38.5142 
 208   0.0000       1.422449        38.7068 
 209   0.0000       1.430012        38.9126 
 210   0.0000       1.443685        39.2847 
 211   0.0000       1.449161        39.4337 
 212   0.0000       1.471931        40.0533 
 213   0.0000       1.473488        40.0957 
 214   0.0000       1.490026        40.5457 
 215   0.0000       1.493305        40.6349 
 216   0.0000       1.519964        41.3603 
 217   0.0000       1.525158        41.5017 
 218   0.0000       1.532086        41.6902 
 219   0.0000       1.543916        42.0121 
 220   0.0000       1.546112        42.0719 
 221   0.0000       1.556714        42.3603 
 222   0.0000       1.570042        42.7230 
 223   0.0000       1.578568        42.9550 
 224   0.0000       1.594334        43.3840 
 225   0.0000       1.594799        43.3967 
 226   0.0000       1.604712        43.6664 
 227   0.0000       1.620548        44.0973 
 228   0.0000       1.642317        44.6897 
 229   0.0000       1.649433        44.8833 
 230   0.0000       1.651270        44.9333 
 231   0.0000       1.664761        45.3004 
 232   0.0000       1.672461        45.5100 
 233   0.0000       1.685528        45.8656 
 234   0.0000       1.693160        46.0732 
 235   0.0000       1.700461        46.2719 
 236   0.0000       1.714053        46.6417 
 237   0.0000       1.732677        47.1485 
 238   0.0000       1.742612        47.4189 
 239   0.0000       1.768323        48.1185 
 240   0.0000       1.788118        48.6572 
 241   0.0000       1.799317        48.9619 
 242   0.0000       1.825714        49.6802 
 243   0.0000       1.840230        50.0752 
 244   0.0000       1.859614        50.6027 
 245   0.0000       1.884718        51.2858 
 246   0.0000       1.902015        51.7565 
 247   0.0000       1.909615        51.9633 
 248   0.0000       1.928707        52.4828 
 249   0.0000       1.930145        52.5219 
 250   0.0000       1.949729        53.0548 
 251   0.0000       1.951766        53.1103 
 252   0.0000       1.959530        53.3215 
 253   0.0000       1.987203        54.0745 
 254   0.0000       2.003905        54.5290 
 255   0.0000       2.029838        55.2347 
 256   0.0000       2.048532        55.7434 
 257   0.0000       2.064943        56.1899 
 258   0.0000       2.083335        56.6904 
 259   0.0000       2.097789        57.0837 
 260   0.0000       2.136788        58.1449 
 261   0.0000       2.142090        58.2892 
 262   0.0000       2.147694        58.4417 
 263   0.0000       2.169228        59.0277 
 264   0.0000       2.180244        59.3274 
 265   0.0000       2.188155        59.5427 
 266   0.0000       2.232940        60.7614 
 267   0.0000       2.241464        60.9933 
 268   0.0000       2.247922        61.1691 
 269   0.0000       2.260896        61.5221 
 270   0.0000       2.277213        61.9661 
 271   0.0000       2.287385        62.2429 
 272   0.0000       2.297075        62.5066 
 273   0.0000       2.314023        62.9678 
 274   0.0000       2.335861        63.5620 
 275   0.0000       2.348501        63.9060 
 276   0.0000       2.354846        64.0786 
 277   0.0000       2.361803        64.2679 
 278   0.0000       2.370893        64.5153 
 279   0.0000       2.383176        64.8495 
 280   0.0000       2.394610        65.1606 
 281   0.0000       2.408346        65.5344 
 282   0.0000       2.415358        65.7252 
 283   0.0000       2.437348        66.3236 
 284   0.0000       2.469761        67.2056 
 285   0.0000       2.474567        67.3364 
 286   0.0000       2.502489        68.0962 
 287   0.0000       2.524988        68.7084 
 288   0.0000       2.541030        69.1449 
 289   0.0000       2.577010        70.1240 
 290   0.0000       2.592164        70.5364 
 291   0.0000       2.622745        71.3685 
 292   0.0000       2.646514        72.0153 
 293   0.0000       2.653278        72.1994 
 294   0.0000       2.671312        72.6901 
 295   0.0000       2.681726        72.9735 
 296   0.0000       2.724264        74.1310 
 297   0.0000       2.861459        77.8643 
 298   0.0000       2.901560        78.9555 
 299   0.0000       2.980629        81.1070 
 300   0.0000       3.138173        85.3940 
 301   0.0000       3.221256        87.6548 
 302   0.0000       3.274834        89.1128 
 303   0.0000       3.326468        90.5178 
 304   0.0000       3.349244        91.1376 
 305   0.0000       4.712324       128.2289 
 306   0.0000       4.842047       131.7588 
 307   0.0000       4.859758       132.2407 
 308   0.0000       4.873785       132.6224 
 309   0.0000       4.880532       132.8060 
 310   0.0000       4.895091       133.2022 
 311   0.0000       4.906825       133.5215 
 312   0.0000       4.922327       133.9433 
 313   0.0000       4.928713       134.1171 
 314   0.0000       4.952673       134.7691 
 315   0.0000       4.993431       135.8782 
 316   0.0000       5.006715       136.2396 
 317   0.0000       5.026779       136.7856 
 318   0.0000       5.057349       137.6175 
 319   0.0000       5.107200       138.9740 
 320   0.0000       5.122503       139.3904 
 321   0.0000       5.145515       140.0166 
 322   0.0000       5.157211       140.3348 
 323   0.0000       5.172168       140.7419 
 324   0.0000       5.187267       141.1527 
 325   0.0000       5.250068       142.8616 
 326   0.0000       5.270588       143.4200 
 327   0.0000       5.300318       144.2290 
 328   0.0000       5.497800       149.6028 
 329   0.0000       5.540397       150.7619 
 330   0.0000       5.590095       152.1142 
 331   0.0000       5.618312       152.8821 
 332   0.0000       5.689517       154.8196 
 333   0.0000       7.149613       194.5509 
 334   0.0000       7.177019       195.2966 
 335   0.0000       7.213532       196.2902 
 336   0.0000       8.956019       243.7057 
 337   0.0000       8.992323       244.6936 
 338   0.0000      29.436291       801.0022 
 339   0.0000      29.493843       802.5683 
 340   0.0000      29.574596       804.7657 
 341   0.0000      29.741398       809.3046 
 342   0.0000      29.819311       811.4247 
 343   0.0000      29.935492       814.5862 
 344   0.0000      29.965789       815.4106 
 345   0.0000      29.998835       816.3098 
 346   0.0000      30.103170       819.1489 
 347   0.0000      36.312820       988.1221 
 348   0.0000      36.460531       992.1415 
 349   0.0000      36.475370       992.5453 
 350   0.0000      36.492917       993.0227 
 351   0.0000      36.513644       993.5868 
 352   0.0000      36.525118       993.8990 
 353   0.0000      36.527918       993.9752 
 354   0.0000      36.549034       994.5498 
 355   0.0000      36.577502       995.3244 
 356   0.0000      36.596652       995.8455 
 357   0.0000      36.597962       995.8812 
 358   0.0000      36.620936       996.5063 
 359   0.0000      36.650987       997.3241 
 360   0.0000      36.679705       998.1055 
 361   0.0000      36.715526       999.0803 
 362   0.0000      36.751031      1000.0464 
 363   0.0000      36.798554      1001.3396 
 364   0.0000      36.807005      1001.5695 
 365   0.0000      36.811671      1001.6965 
 366   0.0000      41.068998      1117.5442 
 367   0.0000      41.116377      1118.8335 
 368   0.0000      41.152376      1119.8131 
 369   0.0000      53.496123      1455.7035 
 370   0.0000      53.526641      1456.5339 

                 SPIN DOWN ORBITALS
  NO   OCC          E(Eh)            E(eV) 
   0   1.0000     -19.249495      -523.8054 
   1   1.0000     -19.230673      -523.2932 
   2   1.0000     -14.576954      -396.6591 
   3   1.0000     -14.489833      -394.2884 
   4   1.0000     -14.477186      -393.9442 
   5   1.0000     -10.435191      -283.9560 
   6   1.0000     -10.413902      -283.3767 
   7   1.0000     -10.400604      -283.0148 
   8   1.0000     -10.370103      -282.1848 
   9   1.0000     -10.341915      -281.4178 
  10   1.0000     -10.327452      -281.0243 
  11   1.0000     -10.327268      -281.0192 
  12   1.0000     -10.313971      -280.6574 
  13   1.0000     -10.306556      -280.4556 
  14   1.0000      -1.169911       -31.8349 
  15   1.0000      -1.154274       -31.4094 
  16   1.0000      -1.127331       -30.6762 
  17   1.0000      -1.055654       -28.7258 
  18   1.0000      -1.036319       -28.1997 
  19   1.0000      -0.937436       -25.5089 
  20   1.0000      -0.905278       -24.6339 
  21   1.0000      -0.863248       -23.4902 
  22   1.0000      -0.840225       -22.8637 
  23   1.0000      -0.804202       -21.8835 
  24   1.0000      -0.769969       -20.9519 
  25   1.0000      -0.734671       -19.9914 
  26   1.0000      -0.726430       -19.7672 
  27   1.0000      -0.706490       -19.2246 
  28   1.0000      -0.697151       -18.9705 
  29   1.0000      -0.686005       -18.6672 
  30   1.0000      -0.654938       -17.8218 
  31   1.0000      -0.630604       -17.1596 
  32   1.0000      -0.613018       -16.6811 
  33   1.0000      -0.611909       -16.6509 
  34   1.0000      -0.593707       -16.1556 
  35   1.0000      -0.583729       -15.8841 
  36   1.0000      -0.569555       -15.4984 
  37   1.0000      -0.566204       -15.4072 
  38   1.0000      -0.561390       -15.2762 
  39   1.0000      -0.547077       -14.8867 
  40   1.0000      -0.537199       -14.6179 
  41   1.0000      -0.530496       -14.4355 
  42   1.0000      -0.520307       -14.1583 
  43   1.0000      -0.513735       -13.9794 
  44   1.0000      -0.499378       -13.5888 
  45   1.0000      -0.493802       -13.4370 
  46   1.0000      -0.489620       -13.3232 
  47   1.0000      -0.483739       -13.1632 
  48   1.0000      -0.475935       -12.9509 
  49   1.0000      -0.470937       -12.8148 
  50   1.0000      -0.400561       -10.8998 
  51   1.0000      -0.398503       -10.8438 
  52   1.0000      -0.380751       -10.3608 
  53   1.0000      -0.368943       -10.0395 
  54   0.0000      -0.221241        -6.0203 
  55   0.0000      -0.128267        -3.4903 
  56   0.0000      -0.121433        -3.3044 
  57   0.0000      -0.101716        -2.7678 
  58   0.0000      -0.094378        -2.5682 
  59   0.0000      -0.087009        -2.3676 
  60   0.0000      -0.082724        -2.2510 
  61   0.0000      -0.069505        -1.8913 
  62   0.0000      -0.059902        -1.6300 
  63   0.0000      -0.046608        -1.2683 
  64   0.0000      -0.044282        -1.2050 
  65   0.0000      -0.031556        -0.8587 
  66   0.0000      -0.027711        -0.7541 
  67   0.0000      -0.024248        -0.6598 
  68   0.0000      -0.012176        -0.3313 
  69   0.0000      -0.000551        -0.0150 
  70   0.0000       0.014839         0.4038 
  71   0.0000       0.028514         0.7759 
  72   0.0000       0.031523         0.8578 
  73   0.0000       0.035416         0.9637 
  74   0.0000       0.044467         1.2100 
  75   0.0000       0.046933         1.2771 
  76   0.0000       0.052487         1.4282 
  77   0.0000       0.058885         1.6023 
  78   0.0000       0.063792         1.7359 
  79   0.0000       0.080888         2.2011 
  80   0.0000       0.083630         2.2757 
  81   0.0000       0.088137         2.3983 
  82   0.0000       0.092829         2.5260 
  83   0.0000       0.096577         2.6280 
  84   0.0000       0.106857         2.9077 
  85   0.0000       0.111971         3.0469 
  86   0.0000       0.114733         3.1220 
  87   0.0000       0.129158         3.5146 
  88   0.0000       0.130333         3.5466 
  89   0.0000       0.137478         3.7410 
  90   0.0000       0.147057         4.0016 
  91   0.0000       0.153557         4.1785 
  92   0.0000       0.157703         4.2913 
  93   0.0000       0.160185         4.3588 
  94   0.0000       0.163331         4.4445 
  95   0.0000       0.174070         4.7367 
  96   0.0000       0.175747         4.7823 
  97   0.0000       0.182960         4.9786 
  98   0.0000       0.186164         5.0658 
  99   0.0000       0.190981         5.1969 
 100   0.0000       0.201034         5.4704 
 101   0.0000       0.208980         5.6866 
 102   0.0000       0.211793         5.7632 
 103   0.0000       0.220969         6.0129 
 104   0.0000       0.230227         6.2648 
 105   0.0000       0.232100         6.3158 
 106   0.0000       0.245539         6.6815 
 107   0.0000       0.260320         7.0837 
 108   0.0000       0.264159         7.1881 
 109   0.0000       0.273386         7.4392 
 110   0.0000       0.292346         7.9551 
 111   0.0000       0.298742         8.1292 
 112   0.0000       0.306217         8.3326 
 113   0.0000       0.310870         8.4592 
 114   0.0000       0.320806         8.7296 
 115   0.0000       0.332436         9.0460 
 116   0.0000       0.334299         9.0967 
 117   0.0000       0.347024         9.4430 
 118   0.0000       0.358495         9.7551 
 119   0.0000       0.365494         9.9456 
 120   0.0000       0.377690        10.2775 
 121   0.0000       0.379651        10.3308 
 122   0.0000       0.393550        10.7090 
 123   0.0000       0.402961        10.9651 
 124   0.0000       0.410413        11.1679 
 125   0.0000       0.414433        11.2773 
 126   0.0000       0.422642        11.5007 
 127   0.0000       0.435799        11.8587 
 128   0.0000       0.459888        12.5142 
 129   0.0000       0.466425        12.6921 
 130   0.0000       0.479367        13.0443 
 131   0.0000       0.494852        13.4656 
 132   0.0000       0.500945        13.6314 
 133   0.0000       0.529290        14.4027 
 134   0.0000       0.544723        14.8227 
 135   0.0000       0.577929        15.7263 
 136   0.0000       0.603807        16.4304 
 137   0.0000       0.608752        16.5650 
 138   0.0000       0.623456        16.9651 
 139   0.0000       0.653604        17.7855 
 140   0.0000       0.671556        18.2740 
 141   0.0000       0.684636        18.6299 
 142   0.0000       0.692557        18.8454 
 143   0.0000       0.699375        19.0309 
 144   0.0000       0.713074        19.4037 
 145   0.0000       0.721707        19.6386 
 146   0.0000       0.726732        19.7754 
 147   0.0000       0.732373        19.9289 
 148   0.0000       0.737503        20.0685 
 149   0.0000       0.743744        20.2383 
 150   0.0000       0.753911        20.5150 
 151   0.0000       0.761321        20.7166 
 152   0.0000       0.769535        20.9401 
 153   0.0000       0.774219        21.0676 
 154   0.0000       0.782031        21.2802 
 155   0.0000       0.784354        21.3433 
 156   0.0000       0.800792        21.7907 
 157   0.0000       0.808285        21.9946 
 158   0.0000       0.816287        22.2123 
 159   0.0000       0.819978        22.3127 
 160   0.0000       0.828973        22.5575 
 161   0.0000       0.832630        22.6570 
 162   0.0000       0.857811        23.3422 
 163   0.0000       0.862642        23.4737 
 164   0.0000       0.864845        23.5336 
 165   0.0000       0.872883        23.7524 
 166   0.0000       0.880767        23.9669 
 167   0.0000       0.883427        24.0393 
 168   0.0000       0.896991        24.4084 
 169   0.0000       0.899988        24.4899 
 170   0.0000       0.912992        24.8438 
 171   0.0000       0.920291        25.0424 
 172   0.0000       0.935110        25.4456 
 173   0.0000       0.937364        25.5070 
 174   0.0000       0.957590        26.0573 
 175   0.0000       0.990387        26.9498 
 176   0.0000       1.003830        27.3156 
 177   0.0000       1.027311        27.9546 
 178   0.0000       1.040437        28.3117 
 179   0.0000       1.046218        28.4690 
 180   0.0000       1.058660        28.8076 
 181   0.0000       1.083567        29.4854 
 182   0.0000       1.090394        29.6711 
 183   0.0000       1.098878        29.9020 
 184   0.0000       1.104257        30.0483 
 185   0.0000       1.138306        30.9749 
 186   0.0000       1.146570        31.1997 
 187   0.0000       1.175672        31.9917 
 188   0.0000       1.193741        32.4834 
 189   0.0000       1.197648        32.5897 
 190   0.0000       1.218789        33.1649 
 191   0.0000       1.237479        33.6735 
 192   0.0000       1.249273        33.9944 
 193   0.0000       1.269363        34.5411 
 194   0.0000       1.287816        35.0433 
 195   0.0000       1.296820        35.2883 
 196   0.0000       1.299578        35.3633 
 197   0.0000       1.311611        35.6908 
 198   0.0000       1.317815        35.8596 
 199   0.0000       1.326138        36.0861 
 200   0.0000       1.332416        36.2569 
 201   0.0000       1.354882        36.8682 
 202   0.0000       1.366874        37.1945 
 203   0.0000       1.379379        37.5348 
 204   0.0000       1.383873        37.6571 
 205   0.0000       1.390842        37.8467 
 206   0.0000       1.411328        38.4042 
 207   0.0000       1.417145        38.5625 
 208   0.0000       1.423474        38.7347 
 209   0.0000       1.433498        39.0075 
 210   0.0000       1.446430        39.3594 
 211   0.0000       1.450957        39.4825 
 212   0.0000       1.473095        40.0850 
 213   0.0000       1.475802        40.1586 
 214   0.0000       1.491456        40.5846 
 215   0.0000       1.497645        40.7530 
 216   0.0000       1.522550        41.4307 
 217   0.0000       1.528125        41.5824 
 218   0.0000       1.536095        41.7993 
 219   0.0000       1.545872        42.0653 
 220   0.0000       1.547882        42.1200 
 221   0.0000       1.560585        42.4657 
 222   0.0000       1.571590        42.7651 
 223   0.0000       1.581017        43.0217 
 224   0.0000       1.596819        43.4517 
 225   0.0000       1.597682        43.4751 
 226   0.0000       1.607408        43.7398 
 227   0.0000       1.621227        44.1158 
 228   0.0000       1.645245        44.7694 
 229   0.0000       1.651031        44.9268 
 230   0.0000       1.652455        44.9656 
 231   0.0000       1.668703        45.4077 
 232   0.0000       1.675473        45.5919 
 233   0.0000       1.688324        45.9416 
 234   0.0000       1.694737        46.1161 
 235   0.0000       1.703562        46.3563 
 236   0.0000       1.714949        46.6661 
 237   0.0000       1.735462        47.2243 
 238   0.0000       1.744326        47.4655 
 239   0.0000       1.770769        48.1851 
 240   0.0000       1.790576        48.7240 
 241   0.0000       1.802741        49.0551 
 242   0.0000       1.829447        49.7818 
 243   0.0000       1.841979        50.1228 
 244   0.0000       1.861744        50.6606 
 245   0.0000       1.888485        51.3883 
 246   0.0000       1.903233        51.7896 
 247   0.0000       1.911949        52.0268 
 248   0.0000       1.929506        52.5045 
 249   0.0000       1.934041        52.6279 
 250   0.0000       1.950666        53.0803 
 251   0.0000       1.953089        53.1463 
 252   0.0000       1.959806        53.3290 
 253   0.0000       1.991471        54.1907 
 254   0.0000       2.005138        54.5626 
 255   0.0000       2.030092        55.2416 
 256   0.0000       2.052501        55.8514 
 257   0.0000       2.066258        56.2257 
 258   0.0000       2.084524        56.7228 
 259   0.0000       2.099768        57.1376 
 260   0.0000       2.137541        58.1655 
 261   0.0000       2.143757        58.3346 
 262   0.0000       2.149584        58.4932 
 263   0.0000       2.170160        59.0531 
 264   0.0000       2.182315        59.3838 
 265   0.0000       2.188984        59.5653 
 266   0.0000       2.234930        60.8155 
 267   0.0000       2.241798        61.0024 
 268   0.0000       2.248335        61.1803 
 269   0.0000       2.261937        61.5504 
 270   0.0000       2.278694        62.0064 
 271   0.0000       2.287831        62.2551 
 272   0.0000       2.299910        62.5837 
 273   0.0000       2.315145        62.9983 
 274   0.0000       2.336480        63.5788 
 275   0.0000       2.350098        63.9494 
 276   0.0000       2.355398        64.0936 
 277   0.0000       2.362636        64.2906 
 278   0.0000       2.372290        64.5533 
 279   0.0000       2.384217        64.8778 
 280   0.0000       2.395152        65.1754 
 281   0.0000       2.410893        65.6037 
 282   0.0000       2.415925        65.7407 
 283   0.0000       2.438803        66.3632 
 284   0.0000       2.471904        67.2639 
 285   0.0000       2.477074        67.4046 
 286   0.0000       2.502767        68.1037 
 287   0.0000       2.527360        68.7730 
 288   0.0000       2.541809        69.1661 
 289   0.0000       2.577672        70.1420 
 290   0.0000       2.594509        70.6002 
 291   0.0000       2.623094        71.3780 
 292   0.0000       2.647362        72.0384 
 293   0.0000       2.655156        72.2505 
 294   0.0000       2.671666        72.6997 
 295   0.0000       2.682512        72.9949 
 296   0.0000       2.724401        74.1347 
 297   0.0000       2.861560        77.8670 
 298   0.0000       2.901639        78.9576 
 299   0.0000       2.980697        81.1089 
 300   0.0000       3.138301        85.3975 
 301   0.0000       3.221279        87.6555 
 302   0.0000       3.274881        89.1141 
 303   0.0000       3.326496        90.5185 
 304   0.0000       3.349374        91.1411 
 305   0.0000       4.712986       128.2469 
 306   0.0000       4.844885       131.8360 
 307   0.0000       4.863106       132.3318 
 308   0.0000       4.873815       132.6233 
 309   0.0000       4.880829       132.8141 
 310   0.0000       4.895235       133.2061 
 311   0.0000       4.906951       133.5249 
 312   0.0000       4.923193       133.9669 
 313   0.0000       4.929241       134.1315 
 314   0.0000       4.957404       134.8978 
 315   0.0000       4.994842       135.9166 
 316   0.0000       5.006388       136.2308 
 317   0.0000       5.030828       136.8958 
 318   0.0000       5.058741       137.6553 
 319   0.0000       5.108788       139.0172 
 320   0.0000       5.123290       139.4118 
 321   0.0000       5.145602       140.0190 
 322   0.0000       5.158405       140.3673 
 323   0.0000       5.174910       140.8165 
 324   0.0000       5.187921       141.1705 
 325   0.0000       5.250125       142.8632 
 326   0.0000       5.271423       143.4427 
 327   0.0000       5.301361       144.2574 
 328   0.0000       5.498188       149.6133 
 329   0.0000       5.542653       150.8232 
 330   0.0000       5.594368       152.2305 
 331   0.0000       5.624335       153.0459 
 332   0.0000       5.692278       154.8948 
 333   0.0000       7.153353       194.6526 
 334   0.0000       7.177115       195.2992 
 335   0.0000       7.213601       196.2921 
 336   0.0000       8.956032       243.7060 
 337   0.0000       8.992367       244.6947 
 338   0.0000      29.441120       801.1336 
 339   0.0000      29.494501       802.5862 
 340   0.0000      29.578797       804.8800 
 341   0.0000      29.741838       809.3166 
 342   0.0000      29.819373       811.4264 
 343   0.0000      29.941630       814.7532 
 344   0.0000      29.966769       815.4373 
 345   0.0000      30.001092       816.3712 
 346   0.0000      30.103836       819.1670 
 347   0.0000      36.313375       988.1372 
 348   0.0000      36.464299       992.2440 
 349   0.0000      36.475813       992.5573 
 350   0.0000      36.492940       993.0234 
 351   0.0000      36.513821       993.5916 
 352   0.0000      36.525361       993.9056 
 353   0.0000      36.527997       993.9773 
 354   0.0000      36.550025       994.5767 
 355   0.0000      36.581679       995.4381 
 356   0.0000      36.590833       995.6872 
 357   0.0000      36.597464       995.8676 
 358   0.0000      36.621020       996.5086 
 359   0.0000      36.652072       997.3536 
 360   0.0000      36.680207       998.1192 
 361   0.0000      36.716684       999.1118 
 362   0.0000      36.751434      1000.0574 
 363   0.0000      36.798631      1001.3417 
 364   0.0000      36.807047      1001.5707 
 365   0.0000      36.813445      1001.7448 
 366   0.0000      41.071499      1117.6123 
 367   0.0000      41.116410      1118.8344 
 368   0.0000      41.152416      1119.8142 
 369   0.0000      53.496130      1455.7037 
 370   0.0000      53.526663      1456.5345 

                    ********************************
                    * MULLIKEN POPULATION ANALYSIS *
                    ********************************

--------------------------------------------
MULLIKEN ATOMIC CHARGES AND SPIN POPULATIONS
--------------------------------------------
   0 N :   -0.062667    0.000102
   1 C :   -0.077512    0.005478
   2 C :    0.085069    0.000181
   3 O :   -0.316267    0.000635
   4 C :   -0.287182    0.053945
   5 C :   -0.243790   -0.063410
   6 C :   -0.088997    0.974248
   7 C :   -0.296474   -0.025747
   8 N :   -0.380270    0.056069
   9 H :    0.203307    0.002718
  10 H :    0.207674    0.017441
  11 H :    0.312624    0.006923
  12 H :    0.340841   -0.005260
  13 H :    0.271932   -0.000001
  14 C :    0.140990    0.001863
  15 N :   -0.093717    0.001231
  16 H :    0.235705   -0.000037
  17 O :   -0.374417   -0.000669
  18 H :    0.312731   -0.001953
  19 C :   -0.440726   -0.000096
  20 H :    0.184884    0.000118
  21 H :    0.168562    0.000061
  22 H :    0.203396    0.000002
  23 C :   -0.515415   -0.000076
  24 H :    0.177798    0.000027
  25 H :    0.204599    0.000065
  26 H :    0.170378    0.000003
  27 H :    0.172225    0.001425
  28 H :    0.154050   -0.001404
  29 H :    0.146254   -0.002911
  30 H :    0.171258    0.019933
  31 H :    0.152579    0.005612
  32 H :    0.160579   -0.046515
Sum of atomic charges         :    1.0000000
Sum of atomic spin populations:    1.0000000

-----------------------------------------------------
MULLIKEN REDUCED ORBITAL CHARGES AND SPIN POPULATIONS
-----------------------------------------------------
CHARGE
[...]
 -----------------------------------
                -8.9864              -0.5829              -1.7525
                -0.5840               1.1841               4.4835
                -1.7531               4.4818              -0.9205

 A(FC)          -2.9071              -2.9071              -2.9071
 A(SD)          -1.3603               7.8162              -6.4559
 A(ORB+DIA)     -0.0000               0.0005              -0.0020    A(PC) =  -0.0005
 A(ORB)         -0.0004               0.0002              -0.0021    A(PC) =  -0.0008
 A(DIA)          0.0003               0.0003               0.0002    A(PC) =   0.0003
             ----------           ----------           ----------
 A(Tot)         -4.2675               4.9097              -9.3649    A(iso)=   -2.9076
 Orientation: 
  X           0.1987424            0.1114161           -0.9736981
  Y           0.6351236           -0.7713014            0.0413789
  Z          -0.7464044           -0.6266424           -0.2240532

Notes:  (1) The A matrix conforms to the "SAI" spin Hamiltonian convention.
        (2) Tensor is right-handed.

 -----------------------------------------------------------
 Nucleus  30H : A:ISTP=    1 I=  0.5 P=533.5514 MHz/au**3
                Q:ISTP=    2 I=  1.0 Q=  0.0029 barn     
 -----------------------------------------------------------
 Solving for nuclear perturbation:
Forming RHS of the CP-SCF equations         ... 
Calc. nucleus orbit integrals (SHARK)       ... done

------------------------------------------------------------------------------
                           ORCA CP-SCF CALCULATION
------------------------------------------------------------------------------

Input orbitals are from        ... epr_info.gbw
Input Perturbation             ... epr_info.pin.tmp
Wavefunction output            ... epr_info.pout.tmp
Perturbation mode              ... Imaginary perturbation
Solver                         ... POPLE
Max. number of iterations      ... 64
Convergence tolerance          ... 1.000e-03
Integral handling              ... Direct
DFT GridXC                     ... 1
COSX GridX                     ... 1
COSX IntAccX                   ... 3.067
COSX Algorithm                 ... Auto
Number of perturbations        ... 3
Number of operators            ... 2
Orbital ranges used for CP-SCF:
 Operator 0:  Orbitals   0... 54  to  55...370
 Operator 1:  Orbitals   0... 53  to  54...370
Variables per perturbation     ... 34498
DFT calculation                         ... on
XC functional terms                     ... off
Hybrid DFT                              ... on
   Exchange mixing (SCF)                ...  0.200
   Exchange mixing (CP-SCF)             ...  0.200
   GGA exch. scaling(SCF)               ...  0.720
   GGA exch. scaling (CP-SCF)           ...  0.720
   GGA corr. scaling (SCF)              ...  0.810
   GGA corr. scaling (CP-SCF)           ...  0.810

CP-SCF GRID
-----------

General Integration Accuracy     IntAcc      ... 3.467
Radial Grid Type                 RadialGrid  ... OptM3 with GC (2021)
Angular Grid (max. ang.)         AngularGrid ... 1 (Lebedev-50)
Angular grid pruning method      GridPruning ... 4 (adaptive)
Weight generation scheme         WeightScheme... Becke
Basis function cutoff            BFCut       ... 1.0000e-10
Integration weight cutoff        WCut        ... 1.0000e-14
Angular grids for H and He will be reduced by one unit
Partially contracted basis set               ... off
Rotationally invariant grid construction     ... off

Total number of grid points                  ...    20257
Total number of batches                      ...      332
Average number of points per batch           ...       61
Average number of grid points per atom       ...      614

CP-SCF GRIDX
------------

General Integration Accuracy     IntAcc      ... 3.067
Radial Grid Type                 RadialGrid  ... OptM3 with GC (2021)
Angular Grid (max. ang.)         AngularGrid ... 1 (Lebedev-50)
Angular grid pruning method      GridPruning ... 4 (adaptive)
Weight generation scheme         WeightScheme... Becke
Basis function cutoff            BFCut       ... 1.0000e-10
Integration weight cutoff        WCut        ... 1.0000e-14
Angular grids for H and He will be reduced by one unit
Partially contracted basis set               ... on
Rotationally invariant grid construction     ... off

Total number of grid points                  ...     9594
Total number of batches                      ...      171
Average number of points per batch           ...       56
Average number of grid points per atom       ...      291

Memory available               ... 918.8 MB
Memory needed per perturbation ...   8.2 MB
Perturbations treated per batch... 3
Number of batches              ... 1
     CP-SCF ITERATION   0:   3.9928e-02 (   0.5 sec   0/  3 done)
     CP-SCF ITERATION   1:   1.2894e-03 (   0.5 sec   1/  3 done)
     CP-SCF ITERATION   2:   1.0285e-04 (   0.4 sec   3/  3 done)
                    *** THE CP-SCF HAS CONVERGED ***

Forming final perturbed densities           ... done
Transforming perturbed density to AO basis  ... done

 Raw HFC matrix (all values in MHz): 
 -----------------------------------
                49.3594               0.1218               0.3579
                 0.1237              55.5255              -6.5828
                 0.3545              -6.5817              56.4210

 A(FC)          53.7674              53.7674              53.7674
 A(SD)          -4.7330              -4.0692               8.8022
 A(ORB+DIA)     -0.0010               0.0011               0.0034    A(PC) =   0.0012
 A(ORB)         -0.0010               0.0006               0.0027    A(PC) =   0.0008
 A(DIA)         -0.0000               0.0005               0.0007    A(PC) =   0.0004
             ----------           ----------           ----------
 A(Tot)         49.0335              49.6994              62.5730    A(iso)=   53.7686
 Orientation: 
  X           0.7166171            0.6973361            0.0135030
  Y          -0.5031512            0.5302765           -0.6823824
  Z          -0.4830102            0.4822128            0.7308707

Notes:  (1) The A matrix conforms to the "SAI" spin Hamiltonian convention.
        (2) Tensor is right-handed.

 -----------------------------------------------------------
 Nucleus  31H : A:ISTP=    1 I=  0.5 P=533.5514 MHz/au**3
                Q:ISTP=    2 I=  1.0 Q=  0.0029 barn     
 -----------------------------------------------------------
 Solving for nuclear perturbation:
Forming RHS of the CP-SCF equations         ... 
Calc. nucleus orbit integrals (SHARK)       ... done

------------------------------------------------------------------------------
                           ORCA CP-SCF CALCULATION
------------------------------------------------------------------------------

Input orbitals are from        ... epr_info.gbw
Input Perturbation             ... epr_info.pin.tmp
Wavefunction output            ... epr_info.pout.tmp
Perturbation mode              ... Imaginary perturbation
Solver                         ... POPLE
Max. number of iterations      ... 64
Convergence tolerance          ... 1.000e-03
Integral handling              ... Direct
DFT GridXC                     ... 1
COSX GridX                     ... 1
COSX IntAccX                   ... 3.067
COSX Algorithm                 ... Auto
Number of perturbations        ... 3
Number of operators            ... 2
Orbital ranges used for CP-SCF:
 Operator 0:  Orbitals   0... 54  to  55...370
 Operator 1:  Orbitals   0... 53  to  54...370
Variables per perturbation     ... 34498
DFT calculation                         ... on
XC functional terms                     ... off
Hybrid DFT                              ... on
   Exchange mixing (SCF)                ...  0.200
   Exchange mixing (CP-SCF)             ...  0.200
   GGA exch. scaling(SCF)               ...  0.720
   GGA exch. scaling (CP-SCF)           ...  0.720
   GGA corr. scaling (SCF)              ...  0.810
   GGA corr. scaling (CP-SCF)           ...  0.810

CP-SCF GRID
-----------

General Integration Accuracy     IntAcc      ... 3.467
Radial Grid Type                 RadialGrid  ... OptM3 with GC (2021)
Angular Grid (max. ang.)         AngularGrid ... 1 (Lebedev-50)
Angular grid pruning method      GridPruning ... 4 (adaptive)
Weight generation scheme         WeightScheme... Becke
Basis function cutoff            BFCut       ... 1.0000e-10
Integration weight cutoff        WCut        ... 1.0000e-14
Angular grids for H and He will be reduced by one unit
Partially contracted basis set               ... off
Rotationally invariant grid construction     ... off

Total number of grid points                  ...    20257
Total number of batches                      ...      332
Average number of points per batch           ...       61
Average number of grid points per atom       ...      614

CP-SCF GRIDX
------------

General Integration Accuracy     IntAcc      ... 3.067
Radial Grid Type                 RadialGrid  ... OptM3 with GC (2021)
Angular Grid (max. ang.)         AngularGrid ... 1 (Lebedev-50)
Angular grid pruning method      GridPruning ... 4 (adaptive)
Weight generation scheme         WeightScheme... Becke
Basis function cutoff            BFCut       ... 1.0000e-10
Integration weight cutoff        WCut        ... 1.0000e-14
Angular grids for H and He will be reduced by one unit
Partially contracted basis set               ... on
Rotationally invariant grid construction     ... off

Total number of grid points                  ...     9594
Total number of batches                      ...      171
Average number of points per batch           ...       56
Average number of grid points per atom       ...      291

Memory available               ... 918.4 MB
Memory needed per perturbation ...   8.2 MB
Perturbations treated per batch... 3
Number of batches              ... 1
     CP-SCF ITERATION   0:   4.3436e-02 (   0.5 sec   0/  3 done)
     CP-SCF ITERATION   1:   1.2291e-03 (   0.5 sec   0/  3 done)
     CP-SCF ITERATION   2:   1.0581e-04 (   0.5 sec   3/  3 done)
                    *** THE CP-SCF HAS CONVERGED ***

Forming final perturbed densities           ... done
Transforming perturbed density to AO basis  ... done

 Raw HFC matrix (all values in MHz): 
 -----------------------------------
                15.3826               6.0147              -2.4870
                 6.0126              16.0689              -2.5086
                -2.4837              -2.5071              11.5490

 A(FC)          14.3315              14.3315              14.3315
 A(SD)          -4.6402              -3.8765               8.5167
 A(ORB+DIA)      0.0023               0.0003               0.0035    A(PC) =   0.0020
 A(ORB)          0.0013              -0.0005               0.0026    A(PC) =   0.0011
 A(DIA)          0.0010               0.0008               0.0008    A(PC) =   0.0009
             ----------           ----------           ----------
 A(Tot)          9.6936              10.4553              22.8516    A(iso)=   14.3335
 Orientation: 
  X           0.7435430            0.1253347           -0.6568372
  Y          -0.6606338            0.2896851           -0.6925644
  Z           0.1034736            0.9488803            0.2981936

Notes:  (1) The A matrix conforms to the "SAI" spin Hamiltonian convention.
        (2) Tensor is right-handed.

 -----------------------------------------------------------
 Nucleus  32H : A:ISTP=    1 I=  0.5 P=533.5514 MHz/au**3
                Q:ISTP=    2 I=  1.0 Q=  0.0029 barn     
 -----------------------------------------------------------
 Solving for nuclear perturbation:
Forming RHS of the CP-SCF equations         ... 
Calc. nucleus orbit integrals (SHARK)       ... done

------------------------------------------------------------------------------
                           ORCA CP-SCF CALCULATION
------------------------------------------------------------------------------

Input orbitals are from        ... epr_info.gbw
Input Perturbation             ... epr_info.pin.tmp
Wavefunction output            ... epr_info.pout.tmp
Perturbation mode              ... Imaginary perturbation
Solver                         ... POPLE
Max. number of iterations      ... 64
Convergence tolerance          ... 1.000e-03
Integral handling              ... Direct
DFT GridXC                     ... 1
COSX GridX                     ... 1
COSX IntAccX                   ... 3.067
COSX Algorithm                 ... Auto
Number of perturbations        ... 3
Number of operators            ... 2
Orbital ranges used for CP-SCF:
 Operator 0:  Orbitals   0... 54  to  55...370
 Operator 1:  Orbitals   0... 53  to  54...370
Variables per perturbation     ... 34498
DFT calculation                         ... on
XC functional terms                     ... off
Hybrid DFT                              ... on
   Exchange mixing (SCF)                ...  0.200
   Exchange mixing (CP-SCF)             ...  0.200
   GGA exch. scaling(SCF)               ...  0.720
   GGA exch. scaling (CP-SCF)           ...  0.720
   GGA corr. scaling (SCF)              ...  0.810
   GGA corr. scaling (CP-SCF)           ...  0.810

CP-SCF GRID
-----------

General Integration Accuracy     IntAcc      ... 3.467
Radial Grid Type                 RadialGrid  ... OptM3 with GC (2021)
Angular Grid (max. ang.)         AngularGrid ... 1 (Lebedev-50)
Angular grid pruning method      GridPruning ... 4 (adaptive)
Weight generation scheme         WeightScheme... Becke
Basis function cutoff            BFCut       ... 1.0000e-10
Integration weight cutoff        WCut        ... 1.0000e-14
Angular grids for H and He will be reduced by one unit
Partially contracted basis set               ... off
Rotationally invariant grid construction     ... off

Total number of grid points                  ...    20257
Total number of batches                      ...      332
Average number of points per batch           ...       61
Average number of grid points per atom       ...      614

CP-SCF GRIDX
------------

General Integration Accuracy     IntAcc      ... 3.067
Radial Grid Type                 RadialGrid  ... OptM3 with GC (2021)
Angular Grid (max. ang.)         AngularGrid ... 1 (Lebedev-50)
Angular grid pruning method      GridPruning ... 4 (adaptive)
Weight generation scheme         WeightScheme... Becke
Basis function cutoff            BFCut       ... 1.0000e-10
Integration weight cutoff        WCut        ... 1.0000e-14
Angular grids for H and He will be reduced by one unit
Partially contracted basis set               ... on
Rotationally invariant grid construction     ... off

Total number of grid points                  ...     9594
Total number of batches                      ...      171
Average number of points per batch           ...       56
Average number of grid points per atom       ...      291

Memory available               ... 918.0 MB
Memory needed per perturbation ...   8.2 MB
Perturbations treated per batch... 3
Number of batches              ... 1
     CP-SCF ITERATION   0:   5.8853e-02 (   0.5 sec   0/  3 done)
     CP-SCF ITERATION   1:   2.3964e-03 (   0.5 sec   0/  3 done)
     CP-SCF ITERATION   2:   1.6187e-04 (   0.5 sec   3/  3 done)
                    *** THE CP-SCF HAS CONVERGED ***

Forming final perturbed densities           ... done
Transforming perturbed density to AO basis  ... done

 Raw HFC matrix (all values in MHz): 
 -----------------------------------
               -31.7503              17.2985               0.6404
                17.2940             -83.2288              18.0279
                 0.6424              18.0296             -78.2582

 A(FC)         -64.4232             -64.4232             -64.4232
 A(SD)          38.6545              -1.6967             -36.9578
 A(ORB+DIA)      0.0099              -0.0032               0.0258    A(PC) =   0.0108
 A(ORB)          0.0050               0.0006               0.0268    A(PC) =   0.0108
 A(DIA)          0.0049              -0.0037              -0.0010    A(PC) =   0.0000
             ----------           ----------           ----------
 A(Tot)        -25.7589             -66.1231            -101.3552    A(iso)=  -64.4124
 Orientation: 
  X           0.9392787           -0.2873826            0.1875279
  Y           0.3208731            0.5418298           -0.7768275
  Z           0.1216385            0.7898302            0.6011426

Notes:  (1) The A matrix conforms to the "SAI" spin Hamiltonian convention.
        (2) Tensor is right-handed.


--------------------------------------------------------------------------------
----------------------------------------------------------------------------
                           ORCA EULER ANGLE PROGRAM
----------------------------------------------------------------------------

Only g-tensor available        -->  using g-tensor as reference tensor

Reference tensor               ...  g

g-tensor ordering              ...  |g_min> --> |gx>
                                    |g_mid> --> |gy>
                                    |g_max> --> |gz>

A- and EFG-tensor ordering     ...  the axes |Ax>, |Qx>, |Ay>, etc. are assigned
                                    such that the Euler rotation is minimal. You
                                    can find the respective eigenvalues as Ax,
                                    EFGx, Ay, etc. in the tables below.
                                    The relation of |Ax>, |Ay>,  etc. to Amin, Amid, etc.
                                    (as printed in the ORCA EPR/NMR CALCULATION Output)
                                    is obtained in the detailed printout.

Euler rotation around          ...  z - y - z
   First rotation              -->  by alpha around z
   Second rotation             -->  by beta around y'
   Third rotation              -->  by gamma around z''
   Positive / Negative angle   -->  clockwise / counterclockwise rotation

Plot EFG-tensors                    (-)
Plot HFC-tensors                    (-)
Detailed Printout                   (-)

-------------------------------------------------------------------------
          Euler rotation of hyperfine tensor to g-tensor
-------------------------------------------------------------------------

-------------------------------------------------------------------
 Atom  |   Alpha    Beta    Gamma   |   Ax       Ay       Az 
       |          [degrees]         |           [MHz]         
-------------------------------------------------------------------
  8N        8.3     35.8     14.0     714.21   616.50   616.22
  9H      -68.5     29.8     84.5       3.92     2.00    17.38
 10H       34.1     20.0    -36.1      41.78    39.23    54.12
 11H     -155.2     11.1    176.9       7.67     5.82    16.43
 12H     -123.1     37.3     95.6      -9.23     2.79    -6.00
 18H       25.3     27.6    -42.0       3.46   -10.83    -6.00
 28H      -36.9     35.0     26.9      -7.81    -5.94     2.40
 29H       90.9     36.7    -62.5       4.91    -4.27    -9.36
 30H     -125.7     41.5    112.8      49.03    49.70    62.57
 31H        4.2     33.4      8.8      10.46    22.85     9.69
 32H      -82.8     34.6     93.7     -66.12   -25.76  -101.36
-------------------------------------------------------------------


Maximum memory used throughout the entire EPRNMR-calculation: 141.5 MB

Timings for individual modules:

Sum of individual times         ...      361.526 sec (=   6.025 min)
GTO integral calculation        ...        3.566 sec (=   0.059 min)   1.0 %
Spin-Orbit-Coupling Matrices    ...        4.979 sec (=   0.083 min)   1.4 %
SCF iterations                  ...       25.562 sec (=   0.426 min)   7.1 %
EPR/NMR calculation             ...      327.419 sec (=   5.457 min)  90.6 %
                             ****ORCA TERMINATED NORMALLY****
TOTAL RUN TIME: 0 days 0 hours 6 minutes 4 seconds 257 msec
