
                                 *****************
                                 * O   R   C   A *
                                 *****************

                                            #,                                       
                                            ###                                      
                                            ####                                     
                                            #####                                    
                                            ######                                   
                                           ########,                                 
                                     ,,################,,,,,                         
                               ,,#################################,,                 
                          ,,##########################################,,             
                       ,#########################################, ''#####,          
                    ,#############################################,,   '####,        
                  ,##################################################,,,,####,       
                ,###########''''           ''''###############################       
              ,#####''   ,,,,##########,,,,          '''####'''          '####       
            ,##' ,,,,###########################,,,                        '##       
           ' ,,###''''                  '''############,,,                           
         ,,##''                                '''############,,,,        ,,,,,,###''
      ,#''                                            '''#######################'''  
     '                                                          ''''####''''         
             ,#######,   #######,   ,#######,      ##                                
            ,#'     '#,  ##    ##  ,#'     '#,    #''#        ######   ,####,        
            ##       ##  ##   ,#'  ##            #'  '#       #        #'  '#        
            ##       ##  #######   ##           ,######,      #####,   #    #        
            '#,     ,#'  ##    ##  '#,     ,#' ,#      #,         ##   #,  ,#        
             '#######'   ##     ##  '#######'  #'      '#     #####' # '####'        



                  #######################################################
                  #                        -***-                        #
                  #          Department of theory and spectroscopy      #
                  #    Directorship and core code : Frank Neese         #
                  #        Max Planck Institute fuer Kohlenforschung    #
                  #                Kaiser Wilhelm Platz 1               #
                  #                 D-45470 Muelheim/Ruhr               #
                  #                      Germany                        #
                  #                                                     #
                  #                  All rights reserved                #
                  #                        -***-                        #
                  #######################################################


                         Program Version 5.0.4 -  RELEASE  -


 With contributions from (in alphabetic order):
   Daniel Aravena         : Magnetic Suceptibility
   Michael Atanasov       : Ab Initio Ligand Field Theory (pilot matlab implementation)
   Alexander A. Auer      : GIAO ZORA, VPT2 properties, NMR spectrum
   Ute Becker             : Parallelization
   Giovanni Bistoni       : ED, misc. LED, open-shell LED, HFLD
   Martin Brehm           : Molecular dynamics
   Dmytro Bykov           : SCF Hessian
   Vijay G. Chilkuri      : MRCI spin determinant printing, contributions to CSF-ICE
   Dipayan Datta          : RHF DLPNO-CCSD density
   Achintya Kumar Dutta   : EOM-CC, STEOM-CC
   Dmitry Ganyushin       : Spin-Orbit,Spin-Spin,Magnetic field MRCI
   Miquel Garcia          : C-PCM and meta-GGA Hessian, CC/C-PCM, Gaussian charge scheme
   Yang Guo               : DLPNO-NEVPT2, F12-NEVPT2, CIM, IAO-localization
   Andreas Hansen         : Spin unrestricted coupled pair/coupled cluster methods
   Benjamin Helmich-Paris : MC-RPA, TRAH-SCF, COSX integrals
   Lee Huntington         : MR-EOM, pCC
   Robert Izsak           : Overlap fitted RIJCOSX, COSX-SCS-MP3, EOM
   Marcus Kettner         : VPT2
   Christian Kollmar      : KDIIS, OOCD, Brueckner-CCSD(T), CCSD density, CASPT2, CASPT2-K
   Simone Kossmann        : Meta GGA functionals, TD-DFT gradient, OOMP2, MP2 Hessian
   Martin Krupicka        : Initial AUTO-CI
   Lucas Lang             : DCDCAS
   Marvin Lechner         : AUTO-CI (C++ implementation), FIC-MRCC
   Dagmar Lenk            : GEPOL surface, SMD
   Dimitrios Liakos       : Extrapolation schemes; Compound Job, initial MDCI parallelization
   Dimitrios Manganas     : Further ROCIS development; embedding schemes
   Dimitrios Pantazis     : SARC Basis sets
   Anastasios Papadopoulos: AUTO-CI, single reference methods and gradients
   Taras Petrenko         : DFT Hessian,TD-DFT gradient, ASA, ECA, R-Raman, ABS, FL, XAS/XES, NRVS
   Peter Pinski           : DLPNO-MP2, DLPNO-MP2 Gradient
   Christoph Reimann      : Effective Core Potentials
   Marius Retegan         : Local ZFS, SOC
   Christoph Riplinger    : Optimizer, TS searches, QM/MM, DLPNO-CCSD(T), (RO)-DLPNO pert. Triples
   Tobias Risthaus        : Range-separated hybrids, TD-DFT gradient, RPA, STAB
   Michael Roemelt        : Original ROCIS implementation
   Masaaki Saitow         : Open-shell DLPNO-CCSD energy and density
   Barbara Sandhoefer     : DKH picture change effects
   Avijit Sen             : IP-ROCIS
   Kantharuban Sivalingam : CASSCF convergence, NEVPT2, FIC-MRCI
   Bernardo de Souza      : ESD, SOC TD-DFT
   Georgi Stoychev        : AutoAux, RI-MP2 NMR, DLPNO-MP2 response
   Willem Van den Heuvel  : Paramagnetic NMR
   Boris Wezisla          : Elementary symmetry handling
   Frank Wennmohs         : Technical directorship


 We gratefully acknowledge several colleagues who have allowed us to
 interface, adapt or use parts of their codes:
   Stefan Grimme, W. Hujo, H. Kruse, P. Pracht,  : VdW corrections, initial TS optimization,
                  C. Bannwarth, S. Ehlert          DFT functionals, gCP, sTDA/sTD-DF
   Ed Valeev, F. Pavosevic, A. Kumar             : LibInt (2-el integral package), F12 methods
   Garnet Chan, S. Sharma, J. Yang, R. Olivares  : DMRG
   Ulf Ekstrom                                   : XCFun DFT Library
   Mihaly Kallay                                 : mrcc  (arbitrary order and MRCC methods)
   Jiri Pittner, Ondrej Demel                    : Mk-CCSD
   Frank Weinhold                                : gennbo (NPA and NBO analysis)
   Christopher J. Cramer and Donald G. Truhlar   : smd solvation model
   Lars Goerigk                                  : TD-DFT with DH, B97 family of functionals
   V. Asgeirsson, H. Jonsson                     : NEB implementation
   FAccTs GmbH                                   : IRC, NEB, NEB-TS, DLPNO-Multilevel, CI-OPT
                                                   MM, QMMM, 2- and 3-layer-ONIOM, Crystal-QMMM,
                                                   LR-CPCM, SF, NACMEs, symmetry and pop. for TD-DFT,
                                                   nearIR, NL-DFT gradient (VV10), updates on ESD,
                                                   ML-optimized integration grids
   S Lehtola, MJT Oliveira, MAL Marques          : LibXC Library
   Liviu Ungur et al                             : ANISO software


 Your calculation uses the libint2 library for the computation of 2-el integrals
 For citations please refer to: http://libint.valeyev.net

 Your ORCA version has been built with support for libXC version: 5.1.0
 For citations please refer to: https://tddft.org/programs/libxc/

 This ORCA versions uses:
   CBLAS   interface :  Fast vector & matrix operations
   LAPACKE interface :  Fast linear algebra routines
   SCALAPACK package :  Parallel linear algebra routines
   Shared memory     :  Shared parallel matrices
   BLAS/LAPACK       :  OpenBLAS 0.3.15  USE64BITINT DYNAMIC_ARCH NO_AFFINITY Zen SINGLE_THREADED
        Core in use  :  Zen
   Copyright (c) 2011-2014, The OpenBLAS Project




***************************************
The coordinates will be read from file: opt.xyz
***************************************


XCFun DFT library Copyright 2009-2010 Ulf Ekstrom and contributors.
See http://admol.org/xcfun for more information.
This is free software; see the source code for copying conditions.
There is ABSOLUTELY NO WARRANTY; not even for MERCHANTABILITY or FITNESS FOR A PARTICULAR PURPOSE.
For details see the documentation.
Scientific users of this library should cite U. Ekstrom, L. Visscher, R. Bast, A. J. Thorvaldsen and K. Ruud;
J.Chem.Theor.Comp. 2010, DOI: 10.1021/ct100117s
XCFun Version 0.99 

================================================================================

----- Orbital basis set information -----
Your calculation utilizes the basis: def2-TZVP
   F. Weigend and R. Ahlrichs, Phys. Chem. Chem. Phys. 7, 3297 (2005).

----- AuxJ basis set information -----
Your calculation utilizes the auxiliary basis: def2/J
   F. Weigend, Phys. Chem. Chem. Phys. 8, 1057 (2006).

================================================================================
                                        WARNINGS
                       Please study these warnings very carefully!
================================================================================


WARNING: your system is open-shell and RHF/RKS was chosen
  ===> : WILL SWITCH to UHF/UKS


WARNING: Geometry Optimization
  ===> : Switching off AutoStart
         For restart on a previous wavefunction, please use MOREAD

WARNING: Minnesota functionals are quite sensitive to the integration grid.
         see SE Wheeler, KN Houk, JCTC 2010, 6, 395,
             N Mardirossian, M Head-Gordon, JCTC 2016, 12, 4303.
         DEFGRID3 seems to be a minimum grid for reliable results with these functionals!
  ===> : Please increase the integration grid!


INFO   : the flag for use of the SHARK integral package has been found!

================================================================================
                                       INPUT FILE
================================================================================
NAME = freq.inp
|  1> ! M062X def2-TZVP OPT FREQ
|  2> %pal nprocs 16 end
|  3> *XYZFile 1 2 opt.xyz
|  4> 
|  5>                          ****END OF INPUT****
================================================================================

                       *****************************
                       * Geometry Optimization Run *
                       *****************************

Geometry optimization settings:
Update method            Update   .... BFGS
Choice of coordinates    CoordSys .... Z-matrix Internals
Initial Hessian          InHess   .... Almoef's Model

Convergence Tolerances:
Energy Change            TolE     ....  5.0000e-06 Eh
Max. Gradient            TolMAXG  ....  3.0000e-04 Eh/bohr
RMS Gradient             TolRMSG  ....  1.0000e-04 Eh/bohr
Max. Displacement        TolMAXD  ....  4.0000e-03 bohr
RMS Displacement         TolRMSD  ....  2.0000e-03 bohr
Strict Convergence                ....  False
------------------------------------------------------------------------------
                        ORCA OPTIMIZATION COORDINATE SETUP
------------------------------------------------------------------------------

The optimization will be done in new redundant internal coordinates
Making redundant internal coordinates   ...  (new redundants) done
Evaluating the initial hessian          ...  (Almloef) done
Evaluating the coordinates              ...  done
Calculating the B-matrix                .... done
Calculating the G-matrix                .... done
Diagonalizing the G-matrix              .... done
Small eigenvalue found = 4.355e-03
Small eigenvalue found = 8.766e-03
Small eigenvalue found = 9.174e-03
Small eigenvalue found = 1.574e-02
Small eigenvalue found = 1.688e-02
The first mode is                       ....   67
The number of degrees of freedom        ....   93

    -----------------------------------------------------------------
                    Redundant Internal Coordinates


    -----------------------------------------------------------------
         Definition                    Initial Value    Approx d2E/dq
    -----------------------------------------------------------------
      1. B(C   1,N   0)                  1.4629         0.428069   
      2. B(C   2,C   1)                  1.5577         0.337384   
      3. B(O   3,C   2)                  1.2317         1.000961   
      4. B(C   4,C   1)                  1.5518         0.344780   
      5. B(C   5,C   4)                  1.5613         0.332968   
      6. B(C   6,C   5)                  1.5014         0.415026   
      7. B(C   7,C   6)                  1.4961         0.423114   
      8. B(N   8,C   7)                  1.5418         0.320381   
      9. B(H   9,C   7)                  1.0916         0.357955   
     10. B(H  10,C   7)                  1.0949         0.353676   
     11. B(H  11,N   8)                  1.0234         0.411935   
     12. B(H  12,N   8)                  1.0721         0.344404   
     13. B(H  13,N   0)                  1.0186         0.419196   
     14. B(C  14,N   0)                  1.3427         0.665692   
     15. B(N  15,C   2)                  1.3558         0.634513   
     16. B(H  16,N  15)                  1.0096         0.433417   
     17. B(O  17,C  14)                  1.2573         0.911034   
     18. B(H  18,N   8)                  1.0221         0.413928   
     19. B(C  19,N  15)                  1.4661         0.423106   
     20. B(H  20,C  19)                  1.0946         0.354032   
     21. B(H  21,C  19)                  1.0924         0.356896   
     22. B(H  22,C  19)                  1.0895         0.360746   
     23. B(C  23,C  14)                  1.5171         0.391645   
     24. B(H  24,C  23)                  1.0933         0.355762   
     25. B(H  25,C  23)                  1.0945         0.354228   
     26. B(H  26,C  23)                  1.0915         0.358074   
     27. B(H  27,C   1)                  1.0988         0.348582   
     28. B(H  28,C   4)                  1.0941         0.354751   
     29. B(H  29,C   4)                  1.0905         0.359428   
     30. B(H  30,C   5)                  1.0960         0.352191   
     31. B(H  31,C   5)                  1.0951         0.353456   
     32. B(H  32,C   6)                  1.0871         0.363922   
     33. A(C   1,N   0,C  14)          128.6233         0.406178   
     34. A(H  13,N   0,C  14)          119.3555         0.361083   
     35. A(C   1,N   0,H  13)          111.8853         0.335206   
     36. A(N   0,C   1,H  27)          108.7660         0.327923   
     37. A(C   4,C   1,H  27)          106.9889         0.318391   
     38. A(N   0,C   1,C   2)          104.5808         0.363213   
     39. A(C   2,C   1,H  27)          107.9928         0.317268   
     40. A(N   0,C   1,C   4)          114.9899         0.364562   
     41. A(C   2,C   1,C   4)          113.2964         0.352273   
     42. A(O   3,C   2,N  15)          124.2851         0.469263   
     43. A(C   1,C   2,N  15)          115.6131         0.388761   
     44. A(C   1,C   2,O   3)          120.1004         0.421341   
     45. A(C   5,C   4,H  29)          110.2251         0.318172   
     46. A(C   1,C   4,H  29)          107.0028         0.319987   
     47. A(C   5,C   4,H  28)          109.4491         0.317494   
     48. A(H  28,C   4,H  29)          106.5737         0.290072   
     49. A(C   1,C   4,H  28)          108.5199         0.319304   
     50. A(C   1,C   4,C   5)          114.7328         0.351489   
     51. A(C   4,C   5,C   6)          112.2242         0.362741   
     52. A(C   4,C   5,H  31)          109.2753         0.317305   
     53. A(C   6,C   5,H  31)          109.6356         0.328977   
     54. A(H  30,C   5,H  31)          106.6469         0.288983   
     55. A(C   6,C   5,H  30)          109.8283         0.328782   
     56. A(C   4,C   5,H  30)          109.0708         0.317120   
     57. A(C   5,C   6,C   7)          122.0884         0.377995   
     58. A(C   5,C   6,H  32)          119.9010         0.330567   
     59. A(C   7,C   6,H  32)          117.9431         0.331625   
     60. A(H   9,C   7,H  10)          108.9841         0.289747   
     61. A(N   8,C   7,H  10)          104.5710         0.313491   
     62. A(C   6,C   7,H  10)          111.7264         0.330061   
     63. A(N   8,C   7,H   9)          106.5566         0.314103   
     64. A(C   6,C   7,H   9)          112.0994         0.330718   
     65. A(C   6,C   7,N   8)          112.4934         0.359309   
     66. A(C   7,N   8,H  12)          110.9094         0.309545   
     67. A(C   7,N   8,H  11)          110.8425         0.318667   
     68. A(H  12,N   8,H  18)          108.4944         0.290436   
     69. A(H  11,N   8,H  18)          107.7816         0.298767   
     70. A(C   7,N   8,H  18)          110.5935         0.318918   
     71. A(H  11,N   8,H  12)          108.1111         0.290216   
     72. A(N   0,C  14,O  17)          123.0787         0.465310   
     73. A(O  17,C  14,C  23)          120.3790         0.425504   
     74. A(N   0,C  14,C  23)          116.5340         0.402436   
     75. A(H  16,N  15,C  19)          117.9261         0.336419   
     76. A(C   2,N  15,C  19)          122.7300         0.401925   
     77. A(C   2,N  15,H  16)          118.5387         0.360185   
     78. A(H  20,C  19,H  21)          109.3495         0.289658   
     79. A(N  15,C  19,H  21)          109.7126         0.328568   
     80. A(N  15,C  19,H  20)          111.0756         0.328131   
     81. A(H  21,C  19,H  22)          109.5167         0.290513   
     82. A(H  20,C  19,H  22)          108.8222         0.290146   
     83. A(N  15,C  19,H  22)          108.3375         0.329150   
     84. A(H  25,C  23,H  26)          108.9653         0.289833   
     85. A(H  24,C  23,H  26)          109.5592         0.290030   
     86. A(C  14,C  23,H  26)          113.3615         0.326545   
     87. A(H  24,C  23,H  25)          107.3474         0.289539   
     88. A(C  14,C  23,H  25)          107.9815         0.325965   
     89. A(C  14,C  23,H  24)          109.4395         0.326197   
     90. D(C   2,C   1,N   0,H  13)     -6.9266         0.015623   
     91. D(H  27,C   1,N   0,H  13)    108.2543         0.015623   
     92. D(C   2,C   1,N   0,C  14)    168.7460         0.015623   
     93. D(C   4,C   1,N   0,H  13)   -131.8233         0.015623   
     94. D(C   4,C   1,N   0,C  14)     43.8493         0.015623   
     95. D(H  27,C   1,N   0,C  14)    -76.0731         0.015623   
     96. D(N  15,C   2,C   1,N   0)    170.0669         0.008663   
     97. D(N  15,C   2,C   1,C   4)    -63.9695         0.008663   
     98. D(O   3,C   2,C   1,C   4)    115.6203         0.008663   
     99. D(O   3,C   2,C   1,N   0)    -10.3434         0.008663   
    100. D(N  15,C   2,C   1,H  27)     54.3462         0.008663   
    101. D(O   3,C   2,C   1,H  27)   -126.0641         0.008663   
    102. D(C   5,C   4,C   1,C   2)    -70.3397         0.009601   
    103. D(C   5,C   4,C   1,H  27)    170.7645         0.009601   
    104. D(C   5,C   4,C   1,N   0)     49.8655         0.009601   
    105. D(H  29,C   4,C   1,C   2)    167.0529         0.009601   
    106. D(H  29,C   4,C   1,N   0)    -72.7419         0.009601   
    107. D(H  29,C   4,C   1,H  27)     48.1572         0.009601   
    108. D(H  28,C   4,C   1,H  27)    -66.4887         0.009601   
    109. D(H  28,C   4,C   1,N   0)    172.6122         0.009601   
    110. D(H  28,C   4,C   1,C   2)     52.4071         0.009601   
    111. D(H  31,C   5,C   4,H  29)     90.0649         0.009012   
    112. D(H  31,C   5,C   4,H  28)   -153.0319         0.009012   
    113. D(H  31,C   5,C   4,C   1)    -30.7870         0.009012   
    114. D(H  30,C   5,C   4,H  29)   -153.7031         0.009012   
    115. D(H  30,C   5,C   4,H  28)    -36.7998         0.009012   
    116. D(C   6,C   5,C   4,H  29)    -31.7683         0.009012   
    117. D(C   6,C   5,C   4,H  28)     85.1350         0.009012   
    118. D(C   6,C   5,C   4,C   1)   -152.6202         0.009012   
    119. D(H  30,C   5,C   4,C   1)     85.4450         0.009012   
    120. D(C   7,C   6,C   5,C   4)     99.1606         0.012746   
    121. D(H  32,C   6,C   5,H  31)    160.5827         0.012746   
    122. D(H  32,C   6,C   5,H  30)     43.7120         0.012746   
    123. D(H  32,C   6,C   5,C   4)    -77.7900         0.012746   
    124. D(C   7,C   6,C   5,H  31)    -22.4667         0.012746   
    125. D(C   7,C   6,C   5,H  30)   -139.3374         0.012746   
    126. D(H  10,C   7,C   6,H  32)   -140.2260         0.013232   
    127. D(H  10,C   7,C   6,C   5)     42.7663         0.013232   
    128. D(H   9,C   7,C   6,H  32)    -17.5593         0.013232   
    129. D(H   9,C   7,C   6,C   5)    165.4330         0.013232   
    130. D(N   8,C   7,C   6,H  32)    102.5081         0.013232   
    131. D(N   8,C   7,C   6,C   5)    -74.4996         0.013232   
    132. D(H  18,N   8,C   7,H  10)    179.4160         0.009577   
    133. D(H  18,N   8,C   7,H   9)     64.0796         0.009577   
    134. D(H  18,N   8,C   7,C   6)    -59.1440         0.009577   
    135. D(H  12,N   8,C   7,H  10)    -60.1658         0.009577   
    136. D(H  12,N   8,C   7,H   9)   -175.5022         0.009577   
    137. D(H  12,N   8,C   7,C   6)     61.2743         0.009577   
    138. D(H  11,N   8,C   7,H  10)     59.9353         0.009577   
    139. D(H  11,N   8,C   7,H   9)    -55.4011         0.009577   
    140. D(H  11,N   8,C   7,C   6)   -178.6247         0.009577   
    141. D(C  23,C  14,N   0,H  13)     -9.2838         0.036319   
    142. D(C  23,C  14,N   0,C   1)    175.3239         0.036319   
    143. D(O  17,C  14,N   0,H  13)    171.7553         0.036319   
    144. D(O  17,C  14,N   0,C   1)     -3.6370         0.036319   
    145. D(C  19,N  15,C   2,O   3)      2.9138         0.032722   
    146. D(C  19,N  15,C   2,C   1)   -177.5158         0.032722   
    147. D(H  16,N  15,C   2,O   3)    172.4163         0.032722   
    148. D(H  16,N  15,C   2,C   1)     -8.0133         0.032722   
    149. D(H  21,C  19,N  15,H  16)     50.3281         0.015264   
    150. D(H  21,C  19,N  15,C   2)   -140.1086         0.015264   
    151. D(H  20,C  19,N  15,H  16)    -70.6873         0.015264   
    152. D(H  20,C  19,N  15,C   2)     98.8759         0.015264   
    153. D(H  22,C  19,N  15,H  16)    169.8411         0.015264   
    154. D(H  22,C  19,N  15,C   2)    -20.5956         0.015264   
    155. D(H  26,C  23,C  14,O  17)   -175.2332         0.011407   
    156. D(H  26,C  23,C  14,N   0)      5.7760         0.011407   
    157. D(H  25,C  23,C  14,O  17)     63.9436         0.011407   
    158. D(H  25,C  23,C  14,N   0)   -115.0471         0.011407   
    159. D(H  24,C  23,C  14,O  17)    -52.6062         0.011407   
    160. D(H  24,C  23,C  14,N   0)    128.4031         0.011407   
    -----------------------------------------------------------------

Number of atoms                         .... 33
Number of degrees of freedom            .... 160

         *************************************************************
         *                GEOMETRY OPTIMIZATION CYCLE   1            *
         *************************************************************
---------------------------------
CARTESIAN COORDINATES (ANGSTROEM)
---------------------------------
  N     -7.570114    1.332167   -0.035866
  C     -6.139711    1.163604    0.220474
  C     -6.068007    0.529956    1.641703
  O     -7.079422    0.467331    2.341866
  C     -5.291966    2.455937    0.081203
  C     -5.850617    3.690407    0.856911
  C     -5.449205    4.989859    0.221013
  C     -6.370739    5.753442   -0.676785
  N     -6.509954    5.104760   -2.068554
  H     -6.027754    6.776332   -0.843237
  H     -7.391589    5.779898   -0.281852
  H     -7.126802    5.658789   -2.668456
  H     -6.919542    4.116984   -1.991081
  H     -8.139377    0.905527    0.693199
  C     -8.169706    2.017355   -1.022761
  N     -4.846174    0.082959    2.023164
  H     -4.102475    0.070350    1.340557
  O     -7.535793    2.695916   -1.870463
  H     -5.599613    5.043062   -2.529114
  C     -4.612289   -0.587448    3.305866
  H     -4.588518   -1.674906    3.183079
  H     -3.663821   -0.250297    3.730304
  H     -5.426334   -0.327738    3.981823
  C     -9.682107    1.920477   -1.093286
  H    -10.109504    2.925853   -1.136331
  H     -9.945042    1.413845   -2.027131
  H    -10.120200    1.372662   -0.256970
  H     -5.735463    0.435617   -0.496525
  H     -4.274206    2.242225    0.421040
  H     -5.223769    2.679326   -0.983999
  H     -5.490728    3.656029    1.891616
  H     -6.942778    3.624837    0.902301
  H     -4.444414    5.377783    0.368497

----------------------------
CARTESIAN COORDINATES (A.U.)
----------------------------
  NO LB      ZA    FRAG     MASS         X           Y           Z
   0 N     7.0000    0    14.007  -14.305442    2.517432   -0.067777
   1 C     6.0000    0    12.011  -11.602372    2.198894    0.416636
   2 C     6.0000    0    12.011  -11.466871    1.001472    3.102370
   3 O     8.0000    0    15.999  -13.378168    0.883128    4.425485
   4 C     6.0000    0    12.011  -10.000366    4.641048    0.153452
   5 C     6.0000    0    12.011  -11.056064    6.973858    1.619328
   6 C     6.0000    0    12.011  -10.297506    9.429467    0.417654
   7 C     6.0000    0    12.011  -12.038952   10.872430   -1.278939
   8 N     7.0000    0    14.007  -12.302030    9.646599   -3.909000
   9 H     1.0000    0     1.008  -11.390804   12.805412   -1.593487
  10 H     1.0000    0     1.008  -13.968079   10.922424   -0.532624
  11 H     1.0000    0     1.008  -13.467704   10.693561   -5.042650
  12 H     1.0000    0     1.008  -13.076038    7.779972   -3.762598
  13 H     1.0000    0     1.008  -15.381193    1.711198    1.309957
  14 C     6.0000    0    12.011  -15.438507    3.812248   -1.932738
  15 N     7.0000    0    14.007   -9.157942    0.156771    3.823225
  16 H     1.0000    0     1.008   -7.752554    0.132942    2.533285
  17 O     8.0000    0    15.999  -14.240584    5.094544   -3.534663
  18 H     1.0000    0     1.008  -10.581734    9.530006   -4.779333
  19 C     6.0000    0    12.011   -8.715963   -1.110116    6.247181
  20 H     1.0000    0     1.008   -8.671042   -3.165114    6.015147
  21 H     1.0000    0     1.008   -6.923619   -0.472993    7.049254
  22 H     1.0000    0     1.008  -10.254285   -0.619335    7.524556
  23 C     6.0000    0    12.011  -18.296531    3.629175   -2.066012
  24 H     1.0000    0     1.008  -19.104194    5.529061   -2.147354
  25 H     1.0000    0     1.008  -18.793407    2.671781   -3.830723
  26 H     1.0000    0     1.008  -19.124406    2.593955   -0.485603
  27 H     1.0000    0     1.008  -10.838454    0.823198   -0.938297
  28 H     1.0000    0     1.008   -8.077078    4.237190    0.795651
  29 H     1.0000    0     1.008   -9.871493    5.063191   -1.859488
  30 H     1.0000    0     1.008  -10.375972    6.908893    3.574636
  31 H     1.0000    0     1.008  -13.119950    6.849949    1.705102
  32 H     1.0000    0     1.008   -8.398725   10.162537    0.696359

--------------------------------
INTERNAL COORDINATES (ANGSTROEM)
--------------------------------
 N      0   0   0     0.000000000000     0.00000000     0.00000000
 C      1   0   0     1.462934106300     0.00000000     0.00000000
 C      2   1   0     1.557736902846   104.58080370     0.00000000
 O      3   2   1     1.231710025385   120.10040096   349.65664556
 C      2   1   3     1.551834688252   114.98985942   235.10332769
 C      5   2   1     1.561323412853   114.73283806    49.86548519
 C      6   5   2     1.501357283348   112.22419038   207.37982866
 C      7   6   5     1.496103355084   122.08837427    99.16060518
 N      8   7   6     1.541813481117   112.49341218   285.50039868
 H      8   7   6     1.091626594398   112.09943869   165.43301219
 H      8   7   6     1.094900272336   111.72643757    42.76627336
 H      9   8   7     1.023392392777   110.84250765   181.37532251
 H      9   8   7     1.072131426963   110.90936304    61.27426289
 H      1   2   3     1.018635493577   111.88531717   353.07335226
 C      1   2   3     1.342741484918   128.62325368   168.74595045
 N      3   2   1     1.355799421425   115.61311750   170.06691198
 H     16   3   2     1.009554311714   118.53871622   351.98671850
 O     15   1   2     1.257334692203   123.07872923   356.36302734
 H      9   8   7     1.022078168607   110.59347548   300.85604825
 C     16   3   2     1.466108364622   122.73002721   182.48421017
 H     20  16   3     1.094625923168   111.07562979    98.87592387
 H     20  16   3     1.092433031921   109.71262009   219.89137825
 H     20  16   3     1.089512393816   108.33754856   339.40440585
 C     15   1   2     1.517141217610   116.53404361   175.32393002
 H     24  15   1     1.093299152318   109.43954420   128.40306651
 H     24  15   1     1.094475208719   107.98149911   244.95286465
 H     24  15   1     1.091536128133   113.36151014     5.77600323
 H      2   1   3     1.098849226786   108.76602010   115.18096403
 H      5   2   1     1.094073819955   108.51986659   172.61223472
 H      5   2   1     1.090508285842   107.00283787   287.25809773
 H      6   5   2     1.096045445166   109.07077282    85.44504086
 H      6   5   2     1.095069043058   109.27527212   329.21298542
 H      7   6   5     1.087125943354   119.90101015   282.20997827

---------------------------
INTERNAL COORDINATES (A.U.)
---------------------------
 N      0   0   0     0.000000000000     0.00000000     0.00000000
 C      1   0   0     2.764544812880     0.00000000     0.00000000
 C      2   1   0     2.943696135082   104.58080370     0.00000000
 O      3   2   1     2.327594624382   120.10040096   349.65664556
 C      2   1   3     2.932542565915   114.98985942   235.10332769
 C      5   2   1     2.950473656771   114.73283806    49.86548519
 C      6   5   2     2.837154094695   112.22419038   207.37982866
 C      7   6   5     2.827225609149   122.08837427    99.16060518
 N      8   7   6     2.913605228898   112.49341218   285.50039868
 H      8   7   6     2.062875303917   112.09943869   165.43301219
 H      8   7   6     2.069061658671   111.72643757    42.76627336
 H      9   8   7     1.933931349888   110.84250765   181.37532251
 H      9   8   7     2.026034776530   110.90936304    61.27426289
 H      1   2   3     1.924942113152   111.88531717   353.07335226
 C      1   2   3     2.537413675150   128.62325368   168.74595045
 N      3   2   1     2.562089599023   115.61311750   170.06691198
 H     16   3   2     1.907781166459   118.53871622   351.98671850
 O     15   1   2     2.376018226942   123.07872923   356.36302734
 H      9   8   7     1.931447826127   110.59347548   300.85604825
 C     16   3   2     2.770543291787   122.73002721   182.48421017
 H     20  16   3     2.068543213878   111.07562979    98.87592387
 H     20  16   3     2.064399249980   109.71262009   219.89137825
 H     20  16   3     2.058880043826   108.33754856   339.40440585
 C     15   1   2     2.866981407766   116.53404361   175.32393002
 H     24  15   1     2.066035980330   109.43954420   128.40306651
 H     24  15   1     2.068258404845   107.98149911   244.95286465
 H     24  15   1     2.062704347451   113.36151014     5.77600323
 H      2   1   3     2.076524101096   108.76602010   115.18096403
 H      5   2   1     2.067499890008   108.51986659   172.61223472
 H      5   2   1     2.060762007014   107.00283787   287.25809773
 H      6   5   2     2.071225721695   109.07077282    85.44504086
 H      6   5   2     2.069380589115   109.27527212   329.21298542
 H      7   6   5     2.054370306020   119.90101015   282.20997827

---------------------
BASIS SET INFORMATION
---------------------
There are 4 groups of distinct atoms

 Group   1 Type N   : 11s6p2d1f contracted to 5s3p2d1f pattern {62111/411/11/1}
 Group   2 Type C   : 11s6p2d1f contracted to 5s3p2d1f pattern {62111/411/11/1}
 Group   3 Type O   : 11s6p2d1f contracted to 5s3p2d1f pattern {62111/411/11/1}
 Group   4 Type H   : 5s1p contracted to 3s1p pattern {311/1}

Atom   0N    basis set group =>   1
Atom   1C    basis set group =>   2
Atom   2C    basis set group =>   2
Atom   3O    basis set group =>   3
Atom   4C    basis set group =>   2
Atom   5C    basis set group =>   2
Atom   6C    basis set group =>   2
Atom   7C    basis set group =>   2
Atom   8N    basis set group =>   1
Atom   9H    basis set group =>   4
Atom  10H    basis set group =>   4
Atom  11H    basis set group =>   4
Atom  12H    basis set group =>   4
Atom  13H    basis set group =>   4
Atom  14C    basis set group =>   2
Atom  15N    basis set group =>   1
Atom  16H    basis set group =>   4
Atom  17O    basis set group =>   3
Atom  18H    basis set group =>   4
Atom  19C    basis set group =>   2
Atom  20H    basis set group =>   4
Atom  21H    basis set group =>   4
Atom  22H    basis set group =>   4
Atom  23C    basis set group =>   2
Atom  24H    basis set group =>   4
Atom  25H    basis set group =>   4
Atom  26H    basis set group =>   4
Atom  27H    basis set group =>   4
Atom  28H    basis set group =>   4
Atom  29H    basis set group =>   4
Atom  30H    basis set group =>   4
Atom  31H    basis set group =>   4
Atom  32H    basis set group =>   4
---------------------------------
AUXILIARY/J BASIS SET INFORMATION
---------------------------------
There are 4 groups of distinct atoms

 Group   1 Type N   : 12s5p4d2f1g contracted to 6s4p3d1f1g pattern {711111/2111/211/2/1}
 Group   2 Type C   : 12s5p4d2f1g contracted to 6s4p3d1f1g pattern {711111/2111/211/2/1}
 Group   3 Type O   : 12s5p4d2f1g contracted to 6s4p3d1f1g pattern {711111/2111/211/2/1}
 Group   4 Type H   : 5s2p1d contracted to 3s1p1d pattern {311/2/1}

Atom   0N    basis set group =>   1
Atom   1C    basis set group =>   2
Atom   2C    basis set group =>   2
Atom   3O    basis set group =>   3
Atom   4C    basis set group =>   2
Atom   5C    basis set group =>   2
Atom   6C    basis set group =>   2
Atom   7C    basis set group =>   2
Atom   8N    basis set group =>   1
Atom   9H    basis set group =>   4
Atom  10H    basis set group =>   4
Atom  11H    basis set group =>   4
Atom  12H    basis set group =>   4
Atom  13H    basis set group =>   4
Atom  14C    basis set group =>   2
Atom  15N    basis set group =>   1
Atom  16H    basis set group =>   4
Atom  17O    basis set group =>   3
Atom  18H    basis set group =>   4
Atom  19C    basis set group =>   2
Atom  20H    basis set group =>   4
Atom  21H    basis set group =>   4
Atom  22H    basis set group =>   4
Atom  23C    basis set group =>   2
Atom  24H    basis set group =>   4
Atom  25H    basis set group =>   4
Atom  26H    basis set group =>   4
Atom  27H    basis set group =>   4
Atom  28H    basis set group =>   4
Atom  29H    basis set group =>   4
Atom  30H    basis set group =>   4
Atom  31H    basis set group =>   4
Atom  32H    basis set group =>   4


           ************************************************************
           *        Program running with 16 parallel MPI-processes    *
           *              working on a common directory               *
           ************************************************************
------------------------------------------------------------------------------
                           ORCA GTO INTEGRAL CALCULATION
                           -- RI-GTO INTEGRALS CHOSEN --
------------------------------------------------------------------------------
------------------------------------------------------------------------------
                   ___                                                        
                  /   \      - P O W E R E D   B Y -                         
                 /     \                                                     
                 |  |  |   _    _      __       _____    __    __             
                 |  |  |  | |  | |    /  \     |  _  \  |  |  /  |          
                  \  \/   | |  | |   /    \    | | | |  |  | /  /          
                 / \  \   | |__| |  /  /\  \   | |_| |  |  |/  /          
                |  |  |   |  __  | /  /__\  \  |    /   |      \           
                |  |  |   | |  | | |   __   |  |    \   |  |\   \          
                \     /   | |  | | |  |  |  |  | |\  \  |  | \   \       
                 \___/    |_|  |_| |__|  |__|  |_| \__\ |__|  \__/        
                                                                              
                      - O R C A' S   B I G   F R I E N D -                    
                                      &                                       
                       - I N T E G R A L  F E E D E R -                       
                                                                              
 v1 FN, 2020, v2 2021                                                         
------------------------------------------------------------------------------


Reading SHARK input file freq.SHARKINP.tmp ... ok
----------------------
SHARK INTEGRAL PACKAGE
----------------------

Number of atoms                             ...     33
Number of basis functions                   ...    548
Number of shells                            ...    230
Maximum angular momentum                    ...      3
Integral batch strategy                     ... SHARK/LIBINT Hybrid
RI-J (if used) integral strategy            ... SPLIT-RIJ (Revised 2003 algorithm where possible)
Printlevel                                  ...      1
Contraction scheme used                     ... SEGMENTED contraction
Coulomb Range Separation                    ... NOT USED
Exchange Range Separation                   ... NOT USED
Finite Nucleus Model                        ... NOT USED
Auxiliary Coulomb fitting basis             ... AVAILABLE
   # of basis functions in Aux-J            ...    895
   # of shells in Aux-J                     ...    305
   Maximum angular momentum in Aux-J        ...      4
Auxiliary J/K fitting basis                 ... NOT available
Auxiliary Correlation fitting basis         ... NOT available
Auxiliary 'external' fitting basis          ... NOT available
Integral threshold                          ...     2.500000e-11
Primitive cut-off                           ...     2.500000e-12
Primitive pair pre-selection threshold      ...     2.500000e-12

Calculating pre-screening integrals         ... done (  0.0 sec) Dimension = 230
Organizing shell pair data                  ... done (  0.1 sec)
Shell pair information
Total number of shell pairs                 ...     26565
Shell pairs after pre-screening             ...     20959
Total number of primitive shell pairs       ...     78180
Primitive shell pairs kept                  ...     43015
          la=0 lb=0:   6292 shell pairs
          la=1 lb=0:   6205 shell pairs
          la=1 lb=1:   1569 shell pairs
          la=2 lb=0:   2786 shell pairs
          la=2 lb=1:   1383 shell pairs
          la=2 lb=2:    330 shell pairs
          la=3 lb=0:   1330 shell pairs
          la=3 lb=1:    677 shell pairs
          la=3 lb=2:    304 shell pairs
          la=3 lb=3:     83 shell pairs

Calculating one electron integrals          ... done (  0.0 sec)
Calculating RI/J V-Matrix + Cholesky decomp.... done (  0.0 sec)
Calculating Nuclear repulsion               ... done (  0.0 sec) ENN=    972.129610000558 Eh

SHARK setup successfully completed in   0.4 seconds

Maximum memory used throughout the entire GTOINT-calculation: 32.4 MB


           ************************************************************
           *        Program running with 16 parallel MPI-processes    *
           *              working on a common directory               *
           ************************************************************
-------------------------------------------------------------------------------
                                 ORCA SCF
-------------------------------------------------------------------------------

------------
SCF SETTINGS
------------
Hamiltonian:
 Density Functional     Method          .... DFT(GTOs)
 Exchange Functional    Exchange        .... M062X
 Correlation Functional Correlation     .... M062X
 Gradients option       PostSCFGGA      .... off
 Hybrid DFT is turned on
   Fraction HF Exchange ScalHFX         ....  0.540000
   Scaling of DF-GGA-X  ScalDFX         ....  0.460000
   Scaling of DF-GGA-C  ScalDFC         ....  1.000000
   Scaling of DF-LDA-C  ScalLDAC        ....  1.000000
   Perturbative correction              ....  0.000000
   Density functional embedding theory  .... OFF
 RI-approximation to the Coulomb term is turned on
   Number of AuxJ basis functions       .... 895
   RIJ-COSX (HFX calculated with COS-X)).... on


General Settings:
 Integral files         IntName         .... freq
 Hartree-Fock type      HFTyp           .... UHF
 Total Charge           Charge          ....    1
 Multiplicity           Mult            ....    2
 Number of Electrons    NEL             ....  109
 Basis Dimension        Dim             ....  548
 Nuclear Repulsion      ENuc            ....    972.1296100006 Eh

Convergence Acceleration:
 DIIS                   CNVDIIS         .... on
   Start iteration      DIISMaxIt       ....    12
   Startup error        DIISStart       ....  0.200000
   # of expansion vecs  DIISMaxEq       ....     5
   Bias factor          DIISBfac        ....   1.050
   Max. coefficient     DIISMaxC        ....  10.000
 Trust-Rad. Augm. Hess. CNVTRAH         .... auto
   Auto Start mean grad. ratio tolernc. ....  1.125000
   Auto Start start iteration           ....    20
   Auto Start num. interpolation iter.  ....    10
   Max. Number of Micro iterations      ....    16
   Max. Number of Macro iterations      .... Maxiter - #DIIS iter
   Number of Davidson start vectors     ....     2
   Converg. threshold I  (grad. norm)   ....   1.000e-05
   Converg. threshold II (energy diff.) ....   1.000e-08
   Grad. Scal. Fac. for Micro threshold ....   0.100
   Minimum threshold for Micro iter.    ....   0.010
   NR start threshold (gradient norm)   ....   0.001
   Initial trust radius                 ....   0.400
   Minimum AH scaling param. (alpha)    ....   1.000
   Maximum AH scaling param. (alpha)    .... 1000.000
   Orbital update algorithm             .... Taylor
   White noise on init. David. guess    .... on
   Maximum white noise                  ....   0.010
   Quad. conv. algorithm                .... NR
 SOSCF                  CNVSOSCF        .... off
 Level Shifting         CNVShift        .... on
   Level shift para.    LevelShift      ....    0.2500
   Turn off err/grad.   ShiftErr        ....    0.0010
 Zerner damping         CNVZerner       .... off
 Static damping         CNVDamp         .... on
   Fraction old density DampFac         ....    0.7000
   Max. Damping (<1)    DampMax         ....    0.9800
   Min. Damping (>=0)   DampMin         ....    0.0000
   Turn off err/grad.   DampErr         ....    0.1000
 Fernandez-Rico         CNVRico         .... off

SCF Procedure:
 Maximum # iterations   MaxIter         ....   125
 SCF integral mode      SCFMode         .... Direct
   Integral package                     .... SHARK and LIBINT hybrid scheme
 Reset frequency        DirectResetFreq ....    20
 Integral Threshold     Thresh          ....  2.500e-11 Eh
 Primitive CutOff       TCut            ....  2.500e-12 Eh

Convergence Tolerance:
 Convergence Check Mode ConvCheckMode   .... Total+1el-Energy
 Convergence forced     ConvForced      .... 0
 Energy Change          TolE            ....  1.000e-08 Eh
 1-El. energy change                    ....  1.000e-05 Eh
 DIIS Error             TolErr          ....  5.000e-07


Diagonalization of the overlap matrix:
Smallest eigenvalue                        ... 7.594e-05
Time for diagonalization                   ...    0.037 sec
Threshold for overlap eigenvalues          ... 1.000e-08
Number of eigenvalues below threshold      ... 0
Time for construction of square roots      ...    0.024 sec
Total time needed                          ...    0.062 sec

Time for model grid setup =    0.130 sec

------------------------------
INITIAL GUESS: MODEL POTENTIAL
------------------------------
Loading Hartree-Fock densities                     ... done
Calculating cut-offs                               ... done
Initializing the effective Hamiltonian             ... done
Setting up the integral package (SHARK)            ... done
Starting the Coulomb interaction                   ... done (   0.1 sec)
Reading the grid                                   ... done
Mapping shells                                     ... done
Starting the XC term evaluation                    ... done (   0.1 sec)
  promolecular density results
     # of electrons  =    109.992616245
     EX              =    -87.579872695
     EC              =     -3.657926274
     EX+EC           =    -91.237798968
Transforming the Hamiltonian                       ... done (   0.0 sec)
Diagonalizing the Hamiltonian                      ... done (   0.0 sec)
Back transforming the eigenvectors                 ... done (   0.0 sec)
Now organizing SCF variables                       ... done
                      ------------------
                      INITIAL GUESS DONE (   0.4 sec)
                      ------------------
-------------------
DFT GRID GENERATION
-------------------

General Integration Accuracy     IntAcc      ... 4.388
Radial Grid Type                 RadialGrid  ... OptM3 with GC (2021)
Angular Grid (max. ang.)         AngularGrid ... 4 (Lebedev-302)
Angular grid pruning method      GridPruning ... 4 (adaptive)
Weight generation scheme         WeightScheme... Becke
Basis function cutoff            BFCut       ... 1.0000e-11
Integration weight cutoff        WCut        ... 1.0000e-14
Angular grids for H and He will be reduced by one unit
Partially contracted basis set               ... off
Rotationally invariant grid construction     ... off

Total number of grid points                  ...   144426
Total number of batches                      ...     2275
Average number of points per batch           ...       63
Average number of grid points per atom       ...     4377
Time for grid setup =    0.636 sec

--------------------
COSX GRID GENERATION
--------------------

GRIDX 1
-------
General Integration Accuracy     IntAcc      ... 3.816
Radial Grid Type                 RadialGrid  ... OptM3 with GC (2021)
Angular Grid (max. ang.)         AngularGrid ... 1 (Lebedev-50)
Angular grid pruning method      GridPruning ... 4 (adaptive)
Weight generation scheme         WeightScheme... Becke
Basis function cutoff            BFCut       ... 1.0000e-11
Integration weight cutoff        WCut        ... 1.0000e-14
Angular grids for H and He will be reduced by one unit
Partially contracted basis set               ... on
Rotationally invariant grid construction     ... off

Total number of grid points                  ...    18428
Total number of batches                      ...      309
Average number of points per batch           ...       59
Average number of grid points per atom       ...      558
UseSFitting                                  ... on

GRIDX 2
-------
General Integration Accuracy     IntAcc      ... 4.020
Radial Grid Type                 RadialGrid  ... OptM3 with GC (2021)
Angular Grid (max. ang.)         AngularGrid ... 2 (Lebedev-110)
Angular grid pruning method      GridPruning ... 4 (adaptive)
Weight generation scheme         WeightScheme... Becke
Basis function cutoff            BFCut       ... 1.0000e-11
Integration weight cutoff        WCut        ... 1.0000e-14
Angular grids for H and He will be reduced by one unit
Partially contracted basis set               ... on
Rotationally invariant grid construction     ... off

Total number of grid points                  ...    38815
Total number of batches                      ...      625
Average number of points per batch           ...       62
Average number of grid points per atom       ...     1176
UseSFitting                                  ... on

GRIDX 3
-------
General Integration Accuracy     IntAcc      ... 4.338
Radial Grid Type                 RadialGrid  ... OptM3 with GC (2021)
Angular Grid (max. ang.)         AngularGrid ... 3 (Lebedev-194)
Angular grid pruning method      GridPruning ... 4 (adaptive)
Weight generation scheme         WeightScheme... Becke
Basis function cutoff            BFCut       ... 1.0000e-11
Integration weight cutoff        WCut        ... 1.0000e-14
Angular grids for H and He will be reduced by one unit
Partially contracted basis set               ... on
Rotationally invariant grid construction     ... off

Total number of grid points                  ...    84540
Total number of batches                      ...     1340
Average number of points per batch           ...       63
Average number of grid points per atom       ...     2562
UseSFitting                                  ... on

Time for X-Grid setup             =    0.830 sec

--------------
SCF ITERATIONS
--------------
ITER       Energy         Delta-E        Max-DP      RMS-DP      [F,P]     Damp
               ***  Starting incremental Fock matrix formation  ***
  0   -668.4096516100   0.000000000000 0.05055146  0.00039960  0.1452530 0.7000
  1   -668.5936024564  -0.183950846351 0.04543227  0.00032832  0.0683169 0.7000
                               ***Turning on DIIS***
  2   -668.6766059927  -0.083003536293 0.07793439  0.00067660  0.0247866 0.0000
  3   -668.8108033438  -0.134197351163 0.02653041  0.00020582  0.0318019 0.0000
  4   -668.8342353506  -0.023432006784 0.00391981  0.00006203  0.0057415 0.0000
  5   -668.8351256713  -0.000890320635 0.00230470  0.00002911  0.0032738 0.0000
  6   -668.8353074236  -0.000181752352 0.00259395  0.00002210  0.0007811 0.0000
               *** Restarting incremental Fock matrix formation ***
                                   *** Resetting DIIS ***
  7   -668.8352792840   0.000028139583 0.00092286  0.00000906  0.0005346 0.0000
  8   -668.8352804207  -0.000001136654 0.00062926  0.00000393  0.0008439 0.0000
  9   -668.8352899812  -0.000009560483 0.00023647  0.00000202  0.0001969 0.0000
 10   -668.8352906745  -0.000000693353 0.00009893  0.00000101  0.0001405 0.0000
 11   -668.8352909857  -0.000000311224 0.00002980  0.00000030  0.0000414 0.0000
 12   -668.8352910082  -0.000000022478 0.00000557  0.00000009  0.0000118 0.0000
 13   -668.8352909955   0.000000012711 0.00000431  0.00000004  0.0000050 0.0000
 14   -668.8352910251  -0.000000029633 0.00000406  0.00000003  0.0000036 0.0000
                 **** Energy Check signals convergence ****

               *****************************************************
               *                     SUCCESS                       *
               *           SCF CONVERGED AFTER  15 CYCLES          *
               *****************************************************

Old exchange energy                            =    -48.310692025 Eh
New exchange energy                            =    -48.310706802 Eh
Exchange energy change after final integration =     -0.000014778 Eh
Total energy after final integration           =   -668.835305808 Eh
Final COS-X integration done in                =     5.157 sec

----------------
TOTAL SCF ENERGY
----------------

Total Energy       :         -668.83530581 Eh          -18199.93394 eV

Components:
Nuclear Repulsion  :          972.12961000 Eh           26452.99153 eV
Electronic Energy  :        -1640.96491581 Eh          -44652.92547 eV
One Electron Energy:        -2822.85417393 Eh          -76813.76721 eV
Two Electron Energy:         1181.88925812 Eh           32160.84174 eV
Max COSX asymmetry :            0.00000086 Eh               0.00002 eV

Virial components:
Potential Energy   :        -1333.97440239 Eh          -36299.28891 eV
Kinetic Energy     :          665.13909658 Eh           18099.35497 eV
Virial Ratio       :            2.00555705


DFT components:
N(Alpha)           :       54.999689057559 electrons
N(Beta)            :       53.999725408391 electrons
N(Total)           :      108.999414465950 electrons
E(XC)              :      -45.059082577150 Eh       
DFET-embed. en.    :        0.000000000000 Eh       

---------------
SCF CONVERGENCE
---------------

  Last Energy change         ...   -5.6352e-09  Tolerance :   1.0000e-08
  Last MAX-Density change    ...    0.0000e+00  Tolerance :   1.0000e-07
  Last RMS-Density change    ...    0.0000e+00  Tolerance :   5.0000e-09
  Last DIIS Error            ...    9.4514e-07  Tolerance :   5.0000e-07

             **** THE GBW FILE WAS UPDATED (freq.gbw) ****
             **** DENSITY freq.scfp WAS UPDATED ****
             **** ENERGY FILE WAS UPDATED (freq.en.tmp) ****
----------------------
UHF SPIN CONTAMINATION
----------------------

Warning: in a DFT calculation there is little theoretical justification to 
         calculate <S**2> as in Hartree-Fock theory. We will do it anyways
         but you should keep in mind that the values have only limited relevance

Expectation value of <S**2>     :     0.755498
Ideal value S*(S+1) for S=0.5   :     0.750000
Deviation                       :     0.005498

             **** THE GBW FILE WAS UPDATED (freq.gbw) ****
             **** DENSITY freq.scfp WAS UPDATED ****
----------------
ORBITAL ENERGIES
----------------
                 SPIN UP ORBITALS
  NO   OCC          E(Eh)            E(eV) 
   0   1.0000     -19.737950      -537.0969 
   1   1.0000     -19.715871      -536.4961 
   2   1.0000     -14.998055      -408.1178 
   3   1.0000     -14.908949      -405.6931 
   4   1.0000     -14.893468      -405.2719 
   5   1.0000     -10.791020      -293.6386 
   6   1.0000     -10.768295      -293.0202 
   7   1.0000     -10.754393      -292.6419 
   8   1.0000     -10.725301      -291.8503 
   9   1.0000     -10.708134      -291.3832 
  10   1.0000     -10.681944      -290.6705 
  11   1.0000     -10.678913      -290.5880 
  12   1.0000     -10.668879      -290.3150 
  13   1.0000     -10.660878      -290.0972 
  14   1.0000      -1.296068       -35.2678 
  15   1.0000      -1.279275       -34.8108 
  16   1.0000      -1.241070       -33.7712 
  17   1.0000      -1.168463       -31.7955 
  18   1.0000      -1.147297       -31.2196 
  19   1.0000      -1.051998       -28.6263 
  20   1.0000      -1.011929       -27.5360 
  21   1.0000      -0.961935       -26.1756 
  22   1.0000      -0.937132       -25.5006 
  23   1.0000      -0.898838       -24.4586 
  24   1.0000      -0.864273       -23.5181 
  25   1.0000      -0.823841       -22.4178 
  26   1.0000      -0.810738       -22.0613 
  27   1.0000      -0.789264       -21.4770 
  28   1.0000      -0.784211       -21.3395 
  29   1.0000      -0.769624       -20.9425 
  30   1.0000      -0.735624       -20.0174 
  31   1.0000      -0.711871       -19.3710 
  32   1.0000      -0.694723       -18.9044 
  33   1.0000      -0.692294       -18.8383 
  34   1.0000      -0.672148       -18.2901 
  35   1.0000      -0.661304       -17.9950 
  36   1.0000      -0.649026       -17.6609 
  37   1.0000      -0.644210       -17.5299 
  38   1.0000      -0.636584       -17.3223 
  39   1.0000      -0.621863       -16.9217 
  40   1.0000      -0.610030       -16.5998 
  41   1.0000      -0.604154       -16.4399 
  42   1.0000      -0.595517       -16.2048 
  43   1.0000      -0.582176       -15.8418 
  44   1.0000      -0.571008       -15.5379 
  45   1.0000      -0.562136       -15.2965 
  46   1.0000      -0.560227       -15.2445 
  47   1.0000      -0.554778       -15.0963 
  48   1.0000      -0.543497       -14.7893 
  49   1.0000      -0.541287       -14.7292 
  50   1.0000      -0.479859       -13.0576 
  51   1.0000      -0.467800       -12.7295 
  52   1.0000      -0.457678       -12.4541 
  53   1.0000      -0.435411       -11.8481 
  54   1.0000      -0.412209       -11.2168 
  55   0.0000      -0.102017        -2.7760 
  56   0.0000      -0.087029        -2.3682 
  57   0.0000      -0.064656        -1.7594 
  58   0.0000      -0.059743        -1.6257 
  59   0.0000      -0.054118        -1.4726 
  60   0.0000      -0.043193        -1.1754 
  61   0.0000      -0.037742        -1.0270 
  62   0.0000      -0.024730        -0.6729 
  63   0.0000      -0.013215        -0.3596 
  64   0.0000      -0.007780        -0.2117 
  65   0.0000      -0.001745        -0.0475 
  66   0.0000       0.000688         0.0187 
  67   0.0000       0.013412         0.3650 
  68   0.0000       0.016261         0.4425 
  69   0.0000       0.026428         0.7191 
  70   0.0000       0.030088         0.8187 
  71   0.0000       0.038608         1.0506 
  72   0.0000       0.047681         1.2975 
  73   0.0000       0.049039         1.3344 
  74   0.0000       0.056392         1.5345 
  75   0.0000       0.062429         1.6988 
  76   0.0000       0.065817         1.7910 
  77   0.0000       0.068094         1.8529 
  78   0.0000       0.071794         1.9536 
  79   0.0000       0.081361         2.2139 
  80   0.0000       0.091524         2.4905 
  81   0.0000       0.097454         2.6519 
  82   0.0000       0.100147         2.7251 
  83   0.0000       0.106156         2.8887 
  84   0.0000       0.114900         3.1266 
  85   0.0000       0.121616         3.3093 
  86   0.0000       0.123855         3.3703 
  87   0.0000       0.135340         3.6828 
  88   0.0000       0.140250         3.8164 
  89   0.0000       0.149897         4.0789 
  90   0.0000       0.156867         4.2686 
  91   0.0000       0.158923         4.3245 
  92   0.0000       0.165334         4.4990 
  93   0.0000       0.168339         4.5807 
  94   0.0000       0.180364         4.9079 
  95   0.0000       0.187672         5.1068 
  96   0.0000       0.194188         5.2841 
  97   0.0000       0.204062         5.5528 
  98   0.0000       0.206697         5.6245 
  99   0.0000       0.220313         5.9950 
 100   0.0000       0.230592         6.2747 
 101   0.0000       0.235087         6.3970 
 102   0.0000       0.240913         6.5556 
 103   0.0000       0.250582         6.8187 
 104   0.0000       0.268675         7.3110 
 105   0.0000       0.270935         7.3725 
 106   0.0000       0.282013         7.6740 
 107   0.0000       0.284575         7.7437 
 108   0.0000       0.292853         7.9689 
 109   0.0000       0.295162         8.0318 
 110   0.0000       0.299099         8.1389 
 111   0.0000       0.300484         8.1766 
 112   0.0000       0.307077         8.3560 
 113   0.0000       0.310647         8.4531 
 114   0.0000       0.315508         8.5854 
 115   0.0000       0.326651         8.8886 
 116   0.0000       0.333006         9.0616 
 117   0.0000       0.335855         9.1391 
 118   0.0000       0.341279         9.2867 
 119   0.0000       0.345301         9.3961 
 120   0.0000       0.348537         9.4842 
 121   0.0000       0.353020         9.6062 
 122   0.0000       0.361550         9.8383 
 123   0.0000       0.369579        10.0568 
 124   0.0000       0.375704        10.2234 
 125   0.0000       0.381066        10.3693 
 126   0.0000       0.388826        10.5805 
 127   0.0000       0.390148        10.6165 
 128   0.0000       0.396089        10.7781 
 129   0.0000       0.401648        10.9294 
 130   0.0000       0.404179        10.9983 
 131   0.0000       0.408861        11.1257 
 132   0.0000       0.412914        11.2360 
 133   0.0000       0.427704        11.6384 
 134   0.0000       0.430151        11.7050 
 135   0.0000       0.435690        11.8557 
 136   0.0000       0.440747        11.9933 
 137   0.0000       0.444079        12.0840 
 138   0.0000       0.450833        12.2678 
 139   0.0000       0.459831        12.5126 
 140   0.0000       0.463511        12.6128 
 141   0.0000       0.477244        12.9865 
 142   0.0000       0.480662        13.0795 
 143   0.0000       0.487154        13.2561 
 144   0.0000       0.501025        13.6336 
 145   0.0000       0.506555        13.7841 
 146   0.0000       0.517817        14.0905 
 147   0.0000       0.525320        14.2947 
 148   0.0000       0.532764        14.4972 
 149   0.0000       0.544690        14.8218 
 150   0.0000       0.554575        15.0908 
 151   0.0000       0.567365        15.4388 
 152   0.0000       0.576007        15.6740 
 153   0.0000       0.590715        16.0742 
 154   0.0000       0.602842        16.4042 
 155   0.0000       0.627695        17.0804 
 156   0.0000       0.629660        17.1339 
 157   0.0000       0.632344        17.2070 
 158   0.0000       0.647961        17.6319 
 159   0.0000       0.663863        18.0646 
 160   0.0000       0.675650        18.3854 
 161   0.0000       0.685561        18.6551 
 162   0.0000       0.696019        18.9396 
 163   0.0000       0.715559        19.4713 
 164   0.0000       0.720715        19.6117 
 165   0.0000       0.736275        20.0351 
 166   0.0000       0.740597        20.1527 
 167   0.0000       0.756064        20.5735 
 168   0.0000       0.773443        21.0464 
 169   0.0000       0.779427        21.2093 
 170   0.0000       0.788676        21.4610 
 171   0.0000       0.791126        21.5276 
 172   0.0000       0.816786        22.2259 
 173   0.0000       0.823145        22.3989 
 174   0.0000       0.830003        22.5855 
 175   0.0000       0.830618        22.6023 
 176   0.0000       0.863523        23.4976 
 177   0.0000       0.882177        24.0053 
 178   0.0000       0.884983        24.0816 
 179   0.0000       0.893269        24.3071 
 180   0.0000       0.900748        24.5106 
 181   0.0000       0.905002        24.6264 
 182   0.0000       0.921951        25.0876 
 183   0.0000       0.928762        25.2729 
 184   0.0000       0.950158        25.8551 
 185   0.0000       0.956797        26.0358 
 186   0.0000       0.960533        26.1374 
 187   0.0000       0.966447        26.2984 
 188   0.0000       0.975275        26.5386 
 189   0.0000       0.987850        26.8808 
 190   0.0000       0.994913        27.0729 
 191   0.0000       1.016228        27.6530 
 192   0.0000       1.020055        27.7571 
 193   0.0000       1.026545        27.9337 
 194   0.0000       1.041155        28.3313 
 195   0.0000       1.062372        28.9086 
 196   0.0000       1.083126        29.4734 
 197   0.0000       1.088584        29.6219 
 198   0.0000       1.104649        30.0590 
 199   0.0000       1.112136        30.2628 
 200   0.0000       1.117682        30.4137 
 201   0.0000       1.132512        30.8172 
 202   0.0000       1.168167        31.7874 
 203   0.0000       1.174681        31.9647 
 204   0.0000       1.178061        32.0567 
 205   0.0000       1.193031        32.4640 
 206   0.0000       1.198432        32.6110 
 207   0.0000       1.215414        33.0731 
 208   0.0000       1.223116        33.2827 
 209   0.0000       1.242663        33.8146 
 210   0.0000       1.248047        33.9611 
 211   0.0000       1.257020        34.2053 
 212   0.0000       1.280316        34.8392 
 213   0.0000       1.292813        35.1792 
 214   0.0000       1.308335        35.6016 
 215   0.0000       1.332912        36.2704 
 216   0.0000       1.353170        36.8216 
 217   0.0000       1.367477        37.2109 
 218   0.0000       1.379892        37.5488 
 219   0.0000       1.385700        37.7068 
 220   0.0000       1.399540        38.0834 
 221   0.0000       1.409143        38.3447 
 222   0.0000       1.413673        38.4680 
 223   0.0000       1.424740        38.7691 
 224   0.0000       1.431779        38.9607 
 225   0.0000       1.441550        39.2266 
 226   0.0000       1.450418        39.4679 
 227   0.0000       1.456436        39.6316 
 228   0.0000       1.463209        39.8159 
 229   0.0000       1.465811        39.8867 
 230   0.0000       1.475189        40.1419 
 231   0.0000       1.480883        40.2969 
 232   0.0000       1.485807        40.4309 
 233   0.0000       1.501270        40.8516 
 234   0.0000       1.505833        40.9758 
 235   0.0000       1.512467        41.1563 
 236   0.0000       1.521704        41.4077 
 237   0.0000       1.538858        41.8745 
 238   0.0000       1.545253        42.0485 
 239   0.0000       1.546378        42.0791 
 240   0.0000       1.563432        42.5431 
 241   0.0000       1.565943        42.6115 
 242   0.0000       1.582060        43.0500 
 243   0.0000       1.597053        43.4580 
 244   0.0000       1.606807        43.7234 
 245   0.0000       1.611852        43.8607 
 246   0.0000       1.620401        44.0934 
 247   0.0000       1.630144        44.3585 
 248   0.0000       1.649469        44.8843 
 249   0.0000       1.655534        45.0494 
 250   0.0000       1.663815        45.2747 
 251   0.0000       1.672817        45.5197 
 252   0.0000       1.687704        45.9248 
 253   0.0000       1.693269        46.0762 
 254   0.0000       1.706414        46.4339 
 255   0.0000       1.711667        46.5768 
 256   0.0000       1.719955        46.8024 
 257   0.0000       1.723419        46.8966 
 258   0.0000       1.745217        47.4898 
 259   0.0000       1.752042        47.6755 
 260   0.0000       1.763103        47.9765 
 261   0.0000       1.775261        48.3073 
 262   0.0000       1.792724        48.7825 
 263   0.0000       1.795542        48.8592 
 264   0.0000       1.818425        49.4819 
 265   0.0000       1.821334        49.5610 
 266   0.0000       1.833730        49.8983 
 267   0.0000       1.844601        50.1941 
 268   0.0000       1.861347        50.6498 
 269   0.0000       1.864664        50.7401 
 270   0.0000       1.875639        51.0387 
 271   0.0000       1.887209        51.3536 
 272   0.0000       1.898300        51.6554 
 273   0.0000       1.904743        51.8307 
 274   0.0000       1.919741        52.2388 
 275   0.0000       1.938844        52.7586 
 276   0.0000       1.954524        53.1853 
 277   0.0000       1.959704        53.3263 
 278   0.0000       1.962000        53.3887 
 279   0.0000       1.983272        53.9676 
 280   0.0000       1.990818        54.1729 
 281   0.0000       2.022264        55.0286 
 282   0.0000       2.035942        55.4008 
 283   0.0000       2.060182        56.0604 
 284   0.0000       2.063376        56.1473 
 285   0.0000       2.079685        56.5911 
 286   0.0000       2.086326        56.7718 
 287   0.0000       2.102522        57.2125 
 288   0.0000       2.110569        57.4315 
 289   0.0000       2.119839        57.6838 
 290   0.0000       2.125693        57.8431 
 291   0.0000       2.149124        58.4806 
 292   0.0000       2.152554        58.5740 
 293   0.0000       2.178843        59.2893 
 294   0.0000       2.187358        59.5210 
 295   0.0000       2.190772        59.6139 
 296   0.0000       2.201684        59.9109 
 297   0.0000       2.211275        60.1718 
 298   0.0000       2.220729        60.4291 
 299   0.0000       2.226713        60.5920 
 300   0.0000       2.232478        60.7488 
 301   0.0000       2.247082        61.1462 
 302   0.0000       2.254263        61.3416 
 303   0.0000       2.262995        61.5792 
 304   0.0000       2.267006        61.6884 
 305   0.0000       2.279688        62.0335 
 306   0.0000       2.295296        62.4582 
 307   0.0000       2.297087        62.5069 
 308   0.0000       2.306468        62.7622 
 309   0.0000       2.344074        63.7855 
 310   0.0000       2.347225        63.8712 
 311   0.0000       2.371534        64.5327 
 312   0.0000       2.382099        64.8202 
 313   0.0000       2.394156        65.1483 
 314   0.0000       2.407284        65.5055 
 315   0.0000       2.418651        65.8148 
 316   0.0000       2.428155        66.0735 
 317   0.0000       2.432958        66.2042 
 318   0.0000       2.447411        66.5975 
 319   0.0000       2.452562        66.7376 
 320   0.0000       2.456923        66.8563 
 321   0.0000       2.459375        66.9230 
 322   0.0000       2.464236        67.0553 
 323   0.0000       2.477769        67.4235 
 324   0.0000       2.486493        67.6609 
 325   0.0000       2.496689        67.9384 
 326   0.0000       2.506745        68.2120 
 327   0.0000       2.509305        68.2817 
 328   0.0000       2.531976        68.8986 
 329   0.0000       2.536436        69.0199 
 330   0.0000       2.543361        69.2084 
 331   0.0000       2.551326        69.4251 
 332   0.0000       2.558955        69.6327 
 333   0.0000       2.579013        70.1785 
 334   0.0000       2.593582        70.5750 
 335   0.0000       2.606184        70.9179 
 336   0.0000       2.612517        71.0902 
 337   0.0000       2.618047        71.2407 
 338   0.0000       2.624978        71.4293 
 339   0.0000       2.629668        71.5569 
 340   0.0000       2.637439        71.7684 
 341   0.0000       2.668363        72.6099 
 342   0.0000       2.672993        72.7358 
 343   0.0000       2.689575        73.1871 
 344   0.0000       2.698867        73.4399 
 345   0.0000       2.708120        73.6917 
 346   0.0000       2.726102        74.1810 
 347   0.0000       2.744172        74.6727 
 348   0.0000       2.754306        74.9485 
 349   0.0000       2.776398        75.5496 
 350   0.0000       2.788335        75.8745 
 351   0.0000       2.805116        76.3311 
 352   0.0000       2.813597        76.5619 
 353   0.0000       2.821812        76.7854 
 354   0.0000       2.839009        77.2534 
 355   0.0000       2.843209        77.3676 
 356   0.0000       2.857460        77.7554 
 357   0.0000       2.869503        78.0831 
 358   0.0000       2.873809        78.2003 
 359   0.0000       2.888607        78.6030 
 360   0.0000       2.894758        78.7704 
 361   0.0000       2.899422        78.8973 
 362   0.0000       2.912858        79.2629 
 363   0.0000       2.914352        79.3035 
 364   0.0000       2.928426        79.6865 
 365   0.0000       2.945684        80.1561 
 366   0.0000       2.951648        80.3184 
 367   0.0000       2.954422        80.3939 
 368   0.0000       2.973342        80.9087 
 369   0.0000       2.977952        81.0342 
 370   0.0000       2.992724        81.4362 
 371   0.0000       3.004482        81.7561 
 372   0.0000       3.014240        82.0216 
 373   0.0000       3.028196        82.4014 
 374   0.0000       3.041413        82.7611 
 375   0.0000       3.047629        82.9302 
 376   0.0000       3.050615        83.0114 
 377   0.0000       3.060347        83.2763 
 378   0.0000       3.068454        83.4969 
 379   0.0000       3.076363        83.7121 
 380   0.0000       3.094655        84.2098 
 381   0.0000       3.101857        84.4058 
 382   0.0000       3.105789        84.5128 
 383   0.0000       3.117669        84.8361 
 384   0.0000       3.128185        85.1222 
 385   0.0000       3.138376        85.3995 
 386   0.0000       3.150386        85.7264 
 387   0.0000       3.169269        86.2402 
 388   0.0000       3.172991        86.3415 
 389   0.0000       3.175128        86.3996 
 390   0.0000       3.194899        86.9376 
 391   0.0000       3.197580        87.0106 
 392   0.0000       3.209539        87.3360 
 393   0.0000       3.218716        87.5857 
 394   0.0000       3.234714        88.0210 
 395   0.0000       3.243183        88.2515 
 396   0.0000       3.252205        88.4970 
 397   0.0000       3.259890        88.7061 
 398   0.0000       3.268493        88.9402 
 399   0.0000       3.274322        89.0988 
 400   0.0000       3.281697        89.2995 
 401   0.0000       3.284189        89.3673 
 402   0.0000       3.302766        89.8728 
 403   0.0000       3.314193        90.1838 
 404   0.0000       3.332032        90.6692 
 405   0.0000       3.348011        91.1040 
 406   0.0000       3.355715        91.3137 
 407   0.0000       3.363820        91.5342 
 408   0.0000       3.369399        91.6860 
 409   0.0000       3.376634        91.8829 
 410   0.0000       3.403944        92.6260 
 411   0.0000       3.412307        92.8536 
 412   0.0000       3.426857        93.2495 
 413   0.0000       3.432404        93.4005 
 414   0.0000       3.446899        93.7949 
 415   0.0000       3.467154        94.3461 
 416   0.0000       3.478665        94.6593 
 417   0.0000       3.481779        94.7440 
 418   0.0000       3.525284        95.9279 
 419   0.0000       3.545355        96.4740 
 420   0.0000       3.552657        96.6727 
 421   0.0000       3.576981        97.3346 
 422   0.0000       3.598564        97.9219 
 423   0.0000       3.615159        98.3735 
 424   0.0000       3.621278        98.5400 
 425   0.0000       3.638674        99.0133 
 426   0.0000       3.646945        99.2384 
 427   0.0000       3.659200        99.5719 
 428   0.0000       3.678450       100.0957 
 429   0.0000       3.686796       100.3228 
 430   0.0000       3.690558       100.4252 
 431   0.0000       3.710254       100.9611 
 432   0.0000       3.716022       101.1181 
 433   0.0000       3.727180       101.4217 
 434   0.0000       3.748005       101.9884 
 435   0.0000       3.770636       102.6042 
 436   0.0000       3.784164       102.9723 
 437   0.0000       3.825391       104.0942 
 438   0.0000       3.833194       104.3065 
 439   0.0000       3.839012       104.4648 
 440   0.0000       3.849500       104.7502 
 441   0.0000       3.877668       105.5167 
 442   0.0000       3.898354       106.0796 
 443   0.0000       3.915153       106.5367 
 444   0.0000       3.947621       107.4202 
 445   0.0000       3.972919       108.1086 
 446   0.0000       3.987605       108.5082 
 447   0.0000       4.009194       109.0957 
 448   0.0000       4.017168       109.3127 
 449   0.0000       4.021202       109.4225 
 450   0.0000       4.048719       110.1713 
 451   0.0000       4.111212       111.8718 
 452   0.0000       4.134572       112.5074 
 453   0.0000       4.159234       113.1785 
 454   0.0000       4.176052       113.6362 
 455   0.0000       4.190511       114.0296 
 456   0.0000       4.209183       114.5377 
 457   0.0000       4.230392       115.1148 
 458   0.0000       4.236353       115.2770 
 459   0.0000       4.265620       116.0734 
 460   0.0000       4.281007       116.4921 
 461   0.0000       4.289745       116.7299 
 462   0.0000       4.298271       116.9619 
 463   0.0000       4.340574       118.1130 
 464   0.0000       4.342875       118.1756 
 465   0.0000       4.363904       118.7479 
 466   0.0000       4.393978       119.5662 
 467   0.0000       4.403777       119.8329 
 468   0.0000       4.432997       120.6280 
 469   0.0000       4.477675       121.8437 
 470   0.0000       4.522704       123.0690 
 471   0.0000       4.528941       123.2387 
 472   0.0000       4.539401       123.5234 
 473   0.0000       4.570008       124.3562 
 474   0.0000       4.599496       125.1586 
 475   0.0000       4.601372       125.2097 
 476   0.0000       4.622213       125.7768 
 477   0.0000       4.639576       126.2493 
 478   0.0000       4.644647       126.3873 
 479   0.0000       4.659493       126.7913 
 480   0.0000       4.673861       127.1822 
 481   0.0000       4.681579       127.3922 
 482   0.0000       4.730328       128.7188 
 483   0.0000       4.764898       129.6595 
 484   0.0000       4.782439       130.1368 
 485   0.0000       4.808604       130.8488 
 486   0.0000       4.841479       131.7433 
 487   0.0000       4.856611       132.1551 
 488   0.0000       4.871807       132.5686 
 489   0.0000       4.902231       133.3965 
 490   0.0000       4.931134       134.1830 
 491   0.0000       4.958374       134.9242 
 492   0.0000       4.969670       135.2316 
 493   0.0000       4.988023       135.7310 
 494   0.0000       5.000839       136.0797 
 495   0.0000       5.020705       136.6203 
 496   0.0000       5.075182       138.1027 
 497   0.0000       5.089751       138.4992 
 498   0.0000       5.091706       138.5524 
 499   0.0000       5.129023       139.5678 
 500   0.0000       5.144318       139.9840 
 501   0.0000       5.150247       140.1454 
 502   0.0000       5.173613       140.7812 
 503   0.0000       5.218250       141.9958 
 504   0.0000       5.242705       142.6613 
 505   0.0000       5.259980       143.1313 
 506   0.0000       5.318907       144.7348 
 507   0.0000       5.377334       146.3247 
 508   0.0000       5.385295       146.5413 
 509   0.0000       5.449870       148.2985 
 510   0.0000       5.494548       149.5143 
 511   0.0000       5.499932       149.6607 
 512   0.0000       5.545298       150.8952 
 513   0.0000       5.555152       151.1634 
 514   0.0000       5.618205       152.8791 
 515   0.0000       5.673674       154.3885 
 516   0.0000       5.780262       157.2889 
 517   0.0000       5.791816       157.6033 
 518   0.0000       6.000134       163.2720 
 519   0.0000       6.092854       165.7950 
 520   0.0000       6.115744       166.4178 
 521   0.0000       6.196819       168.6240 
 522   0.0000       6.301316       171.4675 
 523   0.0000       6.318221       171.9275 
 524   0.0000       6.415126       174.5645 
 525   0.0000       6.457420       175.7153 
 526   0.0000       6.506062       177.0389 
 527   0.0000       6.546078       178.1278 
 528   0.0000       6.720652       182.8782 
 529   0.0000       6.809621       185.2992 
 530   0.0000       6.897500       187.6905 
 531   0.0000       6.955663       189.2732 
 532   0.0000       6.996321       190.3796 
 533   0.0000       7.033973       191.4041 
 534   0.0000      22.209654       604.3554 
 535   0.0000      22.302726       606.8880 
 536   0.0000      22.321855       607.4086 
 537   0.0000      22.368500       608.6778 
 538   0.0000      22.473761       611.5421 
 539   0.0000      22.502318       612.3192 
 540   0.0000      22.617731       615.4598 
 541   0.0000      23.249168       632.6420 
 542   0.0000      23.286065       633.6461 
 543   0.0000      31.902287       868.1054 
 544   0.0000      32.387470       881.3079 
 545   0.0000      32.619776       887.6292 
 546   0.0000      43.986821      1196.9423 
 547   0.0000      44.023047      1197.9280 

                 SPIN DOWN ORBITALS
  NO   OCC          E(Eh)            E(eV) 
   0   1.0000     -19.737966      -537.0974 
   1   1.0000     -19.715855      -536.4957 
   2   1.0000     -14.996496      -408.0754 
   3   1.0000     -14.908951      -405.6932 
   4   1.0000     -14.893452      -405.2714 
   5   1.0000     -10.791014      -293.6384 
   6   1.0000     -10.768301      -293.0204 
   7   1.0000     -10.755061      -292.6601 
   8   1.0000     -10.725207      -291.8477 
   9   1.0000     -10.701510      -291.2029 
  10   1.0000     -10.680977      -290.6442 
  11   1.0000     -10.679531      -290.6048 
  12   1.0000     -10.668880      -290.3150 
  13   1.0000     -10.660879      -290.0973 
  14   1.0000      -1.296029       -35.2667 
  15   1.0000      -1.279228       -34.8096 
  16   1.0000      -1.236841       -33.6562 
  17   1.0000      -1.168339       -31.7921 
  18   1.0000      -1.147237       -31.2179 
  19   1.0000      -1.039103       -28.2754 
  20   1.0000      -1.004104       -27.3231 
[...]
     47       0.000048  -0.000551  -0.049884
     48       0.000546  -0.009749  -0.725519
     49      -0.000045   0.000910  -0.003666
     50      -0.000505   0.007678   0.683976
     51       0.000039   0.000525   0.000023
     52      -0.000063   0.001553   0.000019
     53       0.000032  -0.001540  -0.000031
     54      -0.681520  -0.009010  -0.000911
     55       0.092507   0.001535   0.000112
     56       0.283695   0.003605   0.000428
     57      -0.000013   0.000046   0.000976
     58      -0.000004  -0.000003  -0.000786
     59       0.000009   0.000128   0.000627
     60      -0.000024   0.000120   0.000224
     61       0.000016   0.000083  -0.000768
     62       0.000017  -0.000244   0.000034
     63      -0.000001  -0.000593  -0.003706
     64      -0.000001  -0.000163   0.000001
     65       0.000027  -0.000101  -0.001900
     66      -0.000008   0.000520  -0.008218
     67       0.000004  -0.000103   0.001856
     68      -0.000008   0.000149   0.010396
     69       0.000020  -0.000243  -0.000009
     70       0.000012  -0.000300   0.000007
     71      -0.000011   0.000129  -0.000024
     72       0.000009  -0.000748  -0.000004
     73       0.000046   0.000575   0.000001
     74      -0.000093   0.000105  -0.000019
     75       0.000033  -0.000666  -0.000023
     76       0.000094   0.000309   0.000009
     77       0.000004   0.000555  -0.000014
     78      -0.000008   0.000856   0.000047
     79      -0.000054   0.004778   0.000012
     80       0.000071  -0.006024   0.000021
     81       0.000015   0.003739  -0.001451
     82      -0.000106  -0.004118   0.000776
     83      -0.000012  -0.001087   0.001122
     84       0.000430   0.001972  -0.002933
     85      -0.000162   0.000950   0.001656
     86       0.000459   0.000630  -0.000357
     87      -0.000635  -0.001323  -0.000068
     88       0.000206  -0.001453   0.000620
     89       0.000052   0.001219  -0.001028
     90      -0.000076   0.000622  -0.000070
     91      -0.000141   0.000169  -0.000200
     92       0.000102   0.000785  -0.000263
     93       0.000251   0.000705  -0.000075
     94      -0.000009  -0.000711  -0.000142
     95       0.000025  -0.000583  -0.000035
     96       0.001141   0.000282   0.000102
     97       0.001369   0.000222   0.000102
     98       0.000811   0.000011   0.000043


-----------
IR SPECTRUM
-----------

 Mode   freq       eps      Int      T**2         TX        TY        TZ
       cm**-1   L/(mol*cm) km/mol    a.u.
----------------------------------------------------------------------------
  6:     15.20   0.000209    1.06  0.004293  (-0.032093 -0.047593 -0.031588)
  7:     42.06   0.001038    5.25  0.007704  ( 0.041845  0.068679  0.035161)
  8:     54.52   0.000569    2.87  0.003255  ( 0.022733  0.049302 -0.017522)
  9:     62.50   0.001641    8.29  0.008191  ( 0.075261 -0.048552 -0.013030)
 10:     78.38   0.000277    1.40  0.001102  ( 0.021403 -0.002082  0.025299)
 11:    101.63   0.001506    7.61  0.004624  (-0.035618  0.052946  0.023491)
 12:    114.07   0.000610    3.08  0.001669  (-0.032878  0.008106  0.022861)
 13:    132.86   0.004163   21.04  0.009777  (-0.002085  0.052735 -0.083616)
 14:    142.21   0.000347    1.75  0.000760  (-0.003115 -0.012820 -0.024214)
 15:    175.30   0.000737    3.72  0.001312  ( 0.012271 -0.007783  0.033182)
 16:    232.93   0.000576    2.91  0.000772  (-0.018870  0.012697  0.015953)
 17:    249.63   0.016228   82.01  0.020286  (-0.070901 -0.123523 -0.001199)
 18:    263.53   0.001601    8.09  0.001895  (-0.014050  0.026255 -0.031758)
 19:    273.55   0.005245   26.50  0.005983  (-0.007846 -0.075272  0.015981)
 20:    301.70   0.000059    0.30  0.000061  ( 0.004128 -0.003474  0.005626)
 21:    315.42   0.000884    4.47  0.000875  ( 0.014427 -0.023988  0.009540)
 22:    339.38   0.004702   23.76  0.004323  (-0.017775  0.059445 -0.021764)
 23:    360.08   0.000432    2.18  0.000374  ( 0.013224  0.014115 -0.000368)
 24:    401.62   0.004049   20.46  0.003146  (-0.042388 -0.017671 -0.032209)
 25:    426.21   0.002375   12.00  0.001739  ( 0.009333 -0.033220 -0.023407)
 26:    465.12   0.012473   63.03  0.008369  ( 0.039187  0.080662 -0.018075)
 27:    498.13   0.007294   36.86  0.004570  ( 0.003373  0.057935  0.034668)
 28:    530.72   0.007524   38.02  0.004424  ( 0.046976  0.029477  0.036723)
 29:    575.32   0.002140   10.82  0.001161  ( 0.032894  0.007777 -0.004304)
 30:    622.39   0.004638   23.44  0.002325  (-0.003815 -0.044235 -0.018813)
 31:    665.14   0.001479    7.48  0.000694  ( 0.006216  0.011666  0.022789)
 32:    698.95   0.002339   11.82  0.001044  ( 0.017976  0.018212  0.019738)
 33:    720.83   0.006159   31.13  0.002666  ( 0.009122  0.040398  0.030841)
 34:    775.83   0.000848    4.28  0.000341  (-0.008976  0.002080 -0.016001)
 35:    811.61   0.000656    3.32  0.000252  (-0.010968  0.007208 -0.008947)
 36:    868.70   0.003449   17.43  0.001239  (-0.002923 -0.017873  0.030181)
 37:    876.48   0.000176    0.89  0.000063  (-0.005612 -0.005428 -0.001332)
 38:    888.02   0.002457   12.42  0.000863  ( 0.018121  0.015767  0.016922)
 39:    922.33   0.000799    4.04  0.000270  (-0.015109 -0.000417 -0.006472)
 40:    954.63   0.001109    5.60  0.000363  ( 0.012126 -0.011419 -0.009226)
 41:   1007.89   0.002763   13.96  0.000855  (-0.011818  0.022347 -0.014710)
 42:   1025.63   0.004459   22.53  0.001357  ( 0.006920  0.026275 -0.024869)
 43:   1047.11   0.001784    9.02  0.000532  (-0.004436 -0.017869  0.013886)
 44:   1062.15   0.001885    9.53  0.000554  (-0.011573 -0.004849 -0.019912)
 45:   1072.22   0.000940    4.75  0.000273  ( 0.001194 -0.013887 -0.008900)
 46:   1079.16   0.000993    5.02  0.000287  (-0.014734  0.007215 -0.004240)
 47:   1082.53   0.003154   15.94  0.000909  (-0.013498  0.026954  0.000740)
 48:   1139.53   0.000234    1.18  0.000064  (-0.003285  0.007114 -0.001642)
 49:   1156.79   0.002018   10.20  0.000544  (-0.019661  0.006652 -0.010658)
 50:   1170.62   0.000688    3.48  0.000183  (-0.007833  0.006269 -0.009101)
 51:   1180.71   0.003898   19.70  0.001030  ( 0.024116 -0.016617  0.013137)
 52:   1195.21   0.003124   15.79  0.000816  ( 0.016409 -0.018015  0.014899)
 53:   1237.32   0.000298    1.51  0.000075  (-0.005887  0.005478 -0.003241)
 54:   1263.41   0.002989   15.10  0.000738  ( 0.017043 -0.014611  0.015305)
 55:   1268.24   0.016130   81.51  0.003969  (-0.025830  0.027826 -0.050274)
 56:   1313.72   0.006794   34.33  0.001614  (-0.005711 -0.033632  0.021215)
 57:   1320.29   0.000373    1.89  0.000088  (-0.007939 -0.003288 -0.003793)
 58:   1344.38   0.000556    2.81  0.000129  (-0.003380 -0.008817  0.006315)
 59:   1350.97   0.002501   12.64  0.000578  (-0.017461  0.007507 -0.014713)
 60:   1389.78   0.000576    2.91  0.000129  (-0.004532 -0.009622  0.004028)
 61:   1397.58   0.001719    8.69  0.000384  (-0.005744  0.005552 -0.017887)
 62:   1399.55   0.002796   14.13  0.000623  (-0.017714  0.014257 -0.010313)
 63:   1417.37   0.003086   15.60  0.000679  (-0.024327  0.002740 -0.008954)
 64:   1426.61   0.001189    6.01  0.000260  (-0.011376 -0.005617 -0.009953)
 65:   1454.82   0.004000   20.21  0.000858  ( 0.023323 -0.016158 -0.007272)
 66:   1473.80   0.002050   10.36  0.000434  (-0.000483  0.015804  0.013569)
 67:   1484.38   0.003389   17.13  0.000712  (-0.012867 -0.020075  0.011994)
 68:   1490.38   0.015178   76.70  0.003178  ( 0.006559 -0.035623  0.043197)
 69:   1493.61   0.002066   10.44  0.000432  (-0.012673 -0.006852  0.014974)
 70:   1497.90   0.003463   17.50  0.000721  (-0.017792 -0.005968 -0.019217)
 71:   1501.26   0.003845   19.43  0.000799  ( 0.025110 -0.011691 -0.005666)
 72:   1510.53   0.003807   19.24  0.000787  (-0.000236  0.020095 -0.019562)
 73:   1550.25   0.026511  133.98  0.005337  ( 0.000070 -0.005592  0.072838)
 74:   1587.39   0.088122  445.33  0.017324  ( 0.093129 -0.064773  0.066748)
 75:   1603.79   0.044381  224.29  0.008636  (-0.076778  0.027884 -0.044309)
 76:   1643.26   0.004474   22.61  0.000850  (-0.014657 -0.023075  0.010122)
 77:   1650.47   0.007739   39.11  0.001463  (-0.032896 -0.017653  0.008336)
 78:   1690.84   0.121107  612.02  0.022352  (-0.048043 -0.113660  0.084409)
 79:   1798.50   0.045834  231.63  0.007953  (-0.085413  0.011436  0.022949)
 80:   2549.22   0.345611  1746.58  0.042308  ( 0.089315  0.182542 -0.031771)
 81:   3069.34   0.001658    8.38  0.000169  ( 0.009419 -0.008480  0.002823)
 82:   3074.84   0.000344    1.74  0.000035  ( 0.004583 -0.000047 -0.003727)
 83:   3085.43   0.000542    2.74  0.000055  (-0.006239  0.003973 -0.000237)
 84:   3089.58   0.004366   22.06  0.000441  ( 0.011535 -0.012277  0.012537)
 85:   3091.53   0.000168    0.85  0.000017  (-0.002778 -0.001041 -0.002854)
 86:   3106.82   0.001915    9.68  0.000192  (-0.012809  0.001781  0.005015)
 87:   3122.66   0.001334    6.74  0.000133  (-0.011088  0.003195  0.000366)
 88:   3160.02   0.002581   13.04  0.000255  ( 0.003001 -0.008513  0.013169)
 89:   3165.38   0.001142    5.77  0.000113  ( 0.006815  0.007386  0.003403)
 90:   3167.85   0.000050    0.25  0.000005  ( 0.001006 -0.000775  0.001826)
 91:   3170.40   0.000113    0.57  0.000011  (-0.000272 -0.003298  0.000373)
 92:   3195.14   0.000333    1.68  0.000033  (-0.003439 -0.003893  0.002362)
 93:   3202.63   0.000019    0.10  0.000002  (-0.000518  0.000413 -0.001190)
 94:   3228.51   0.000146    0.74  0.000014  (-0.001684 -0.002941  0.001628)
 95:   3457.75   0.014859   75.09  0.001341  ( 0.007955  0.020393 -0.029357)
 96:   3527.68   0.013819   69.84  0.001222  (-0.031792  0.013872 -0.004389)
 97:   3543.38   0.033088  167.21  0.002914  ( 0.002547  0.030903 -0.044188)
 98:   3647.30   0.009694   48.99  0.000829  (-0.026262  0.005567  0.010429)

* The epsilon (eps) is given for a Dirac delta lineshape.
** The dipole moment derivative (T) already includes vibrational overlap.

The first frequency considered to be a vibration is 6
The total number of vibrations considered is 93


--------------------------
THERMOCHEMISTRY AT 298.15K
--------------------------

Temperature         ... 298.15 K
Pressure            ... 1.00 atm
Total Mass          ... 201.27 AMU

Throughout the following assumptions are being made:
  (1) The electronic state is orbitally nondegenerate
      but the spin degeneracy is treated
  (2) There are no thermally accessible electronically excited states
  (3) Hindered rotations indicated by low frequency modes are not
      treated as such but are treated as vibrations and this may
      cause some error
  (4) All equations used are the standard statistical mechanics
      equations for an ideal gas
  (5) All vibrations are strictly harmonic

freq.      15.20  E(vib)   ...       0.57 
freq.      42.06  E(vib)   ...       0.53 
freq.      54.52  E(vib)   ...       0.52 
freq.      62.50  E(vib)   ...       0.51 
freq.      78.38  E(vib)   ...       0.49 
freq.     101.63  E(vib)   ...       0.46 
freq.     114.07  E(vib)   ...       0.44 
freq.     132.86  E(vib)   ...       0.42 
freq.     142.21  E(vib)   ...       0.41 
freq.     175.30  E(vib)   ...       0.38 
freq.     232.93  E(vib)   ...       0.32 
freq.     249.63  E(vib)   ...       0.31 
freq.     263.53  E(vib)   ...       0.29 
freq.     273.55  E(vib)   ...       0.29 
freq.     301.70  E(vib)   ...       0.26 
freq.     315.42  E(vib)   ...       0.25 
freq.     339.38  E(vib)   ...       0.23 
freq.     360.08  E(vib)   ...       0.22 
freq.     401.62  E(vib)   ...       0.19 
freq.     426.21  E(vib)   ...       0.18 
freq.     465.12  E(vib)   ...       0.16 
freq.     498.13  E(vib)   ...       0.14 
freq.     530.72  E(vib)   ...       0.13 
freq.     575.32  E(vib)   ...       0.11 
freq.     622.39  E(vib)   ...       0.09 
freq.     665.14  E(vib)   ...       0.08 
freq.     698.95  E(vib)   ...       0.07 
freq.     720.83  E(vib)   ...       0.07 
freq.     775.83  E(vib)   ...       0.05 
freq.     811.61  E(vib)   ...       0.05 
freq.     868.70  E(vib)   ...       0.04 
freq.     876.48  E(vib)   ...       0.04 
freq.     888.02  E(vib)   ...       0.04 
freq.     922.33  E(vib)   ...       0.03 
freq.     954.63  E(vib)   ...       0.03 
freq.    1007.89  E(vib)   ...       0.02 
freq.    1025.63  E(vib)   ...       0.02 
freq.    1047.11  E(vib)   ...       0.02 
freq.    1062.15  E(vib)   ...       0.02 
freq.    1072.22  E(vib)   ...       0.02 
freq.    1079.16  E(vib)   ...       0.02 
freq.    1082.53  E(vib)   ...       0.02 
freq.    1139.53  E(vib)   ...       0.01 
freq.    1156.79  E(vib)   ...       0.01 
freq.    1170.62  E(vib)   ...       0.01 
freq.    1180.71  E(vib)   ...       0.01 
freq.    1195.21  E(vib)   ...       0.01 
freq.    1237.32  E(vib)   ...       0.01 
freq.    1263.41  E(vib)   ...       0.01 
freq.    1268.24  E(vib)   ...       0.01 
freq.    1313.72  E(vib)   ...       0.01 
freq.    1320.29  E(vib)   ...       0.01 
freq.    1344.38  E(vib)   ...       0.01 
freq.    1350.97  E(vib)   ...       0.01 
freq.    1389.78  E(vib)   ...       0.00 
freq.    1397.58  E(vib)   ...       0.00 
freq.    1399.55  E(vib)   ...       0.00 
freq.    1417.37  E(vib)   ...       0.00 
freq.    1426.61  E(vib)   ...       0.00 
freq.    1454.82  E(vib)   ...       0.00 
freq.    1473.80  E(vib)   ...       0.00 
freq.    1484.38  E(vib)   ...       0.00 
freq.    1490.38  E(vib)   ...       0.00 
freq.    1493.61  E(vib)   ...       0.00 
freq.    1497.90  E(vib)   ...       0.00 
freq.    1501.26  E(vib)   ...       0.00 
freq.    1510.53  E(vib)   ...       0.00 
freq.    1550.25  E(vib)   ...       0.00 
freq.    1587.39  E(vib)   ...       0.00 
freq.    1603.79  E(vib)   ...       0.00 
freq.    1643.26  E(vib)   ...       0.00 
freq.    1650.47  E(vib)   ...       0.00 
freq.    1690.84  E(vib)   ...       0.00 
freq.    1798.50  E(vib)   ...       0.00 
freq.    2549.22  E(vib)   ...       0.00 
freq.    3069.34  E(vib)   ...       0.00 
freq.    3074.84  E(vib)   ...       0.00 
freq.    3085.43  E(vib)   ...       0.00 
freq.    3089.58  E(vib)   ...       0.00 
freq.    3091.53  E(vib)   ...       0.00 
freq.    3106.82  E(vib)   ...       0.00 
freq.    3122.66  E(vib)   ...       0.00 
freq.    3160.02  E(vib)   ...       0.00 
freq.    3165.38  E(vib)   ...       0.00 
freq.    3167.85  E(vib)   ...       0.00 
freq.    3170.40  E(vib)   ...       0.00 
freq.    3195.14  E(vib)   ...       0.00 
freq.    3202.63  E(vib)   ...       0.00 
freq.    3228.51  E(vib)   ...       0.00 
freq.    3457.75  E(vib)   ...       0.00 
freq.    3527.68  E(vib)   ...       0.00 
freq.    3543.38  E(vib)   ...       0.00 
freq.    3647.30  E(vib)   ...       0.00 

------------
INNER ENERGY
------------

The inner energy is: U= E(el) + E(ZPE) + E(vib) + E(rot) + E(trans)
    E(el)   - is the total energy from the electronic structure calculation
              = E(kin-el) + E(nuc-el) + E(el-el) + E(nuc-nuc)
    E(ZPE)  - the the zero temperature vibrational energy from the frequency calculation
    E(vib)  - the the finite temperature correction to E(ZPE) due to population
              of excited vibrational states
    E(rot)  - is the rotational thermal energy
    E(trans)- is the translational thermal energy

Summary of contributions to the inner energy U:
Electronic energy                ...   -668.83877687 Eh
Zero point energy                ...      0.29249950 Eh     183.55 kcal/mol
Thermal vibrational correction   ...      0.01385829 Eh       8.70 kcal/mol
Thermal rotational correction    ...      0.00141627 Eh       0.89 kcal/mol
Thermal translational correction ...      0.00141627 Eh       0.89 kcal/mol
-----------------------------------------------------------------------
Total thermal energy                   -668.52958653 Eh


Summary of corrections to the electronic energy:
(perhaps to be used in another calculation)
Total thermal correction                  0.01669083 Eh      10.47 kcal/mol
Non-thermal (ZPE) correction              0.29249950 Eh     183.55 kcal/mol
-----------------------------------------------------------------------
Total correction                          0.30919033 Eh     194.02 kcal/mol


--------
ENTHALPY
--------

The enthalpy is H = U + kB*T
                kB is Boltzmann's constant
Total free energy                 ...   -668.52958653 Eh 
Thermal Enthalpy correction       ...      0.00094421 Eh       0.59 kcal/mol
-----------------------------------------------------------------------
Total Enthalpy                    ...   -668.52864233 Eh


Note: Only C1 symmetry has been detected, increase convergence thresholds 
      if your molecule has a higher symmetry. Symmetry factor of 1.0 is   
      used for the rotational entropy correction. 
 

Note: Rotational entropy computed according to Herzberg 
Infrared and Raman Spectra, Chapter V,1, Van Nostrand Reinhold, 1945 
Point Group:  C1, Symmetry Number:   1  
Rotational constants in cm-1:     0.030859     0.014355     0.010919 

Vibrational entropy computed according to the QRRHO of S. Grimme
Chem.Eur.J. 2012 18 9955


-------
ENTROPY
-------

The entropy contributions are T*S = T*(S(el)+S(vib)+S(rot)+S(trans))
     S(el)   - electronic entropy
     S(vib)  - vibrational entropy
     S(rot)  - rotational entropy
     S(trans)- translational entropy
The entropies will be listed as multiplied by the temperature to get
units of energy

Electronic entropy                ...      0.00065446 Eh      0.41 kcal/mol
Vibrational entropy               ...      0.02509790 Eh     15.75 kcal/mol
Rotational entropy                ...      0.01528883 Eh      9.59 kcal/mol
Translational entropy             ...      0.01986189 Eh     12.46 kcal/mol
-----------------------------------------------------------------------
Final entropy term                ...      0.06090308 Eh     38.22 kcal/mol

In case the symmetry of your molecule has not been determined correctly
or in case you have a reason to use a different symmetry number we print 
out the resulting rotational entropy values for sn=1,12 :
 --------------------------------------------------------
|  sn= 1 | S(rot)=       0.01528883 Eh      9.59 kcal/mol|
|  sn= 2 | S(rot)=       0.01463438 Eh      9.18 kcal/mol|
|  sn= 3 | S(rot)=       0.01425154 Eh      8.94 kcal/mol|
|  sn= 4 | S(rot)=       0.01397992 Eh      8.77 kcal/mol|
|  sn= 5 | S(rot)=       0.01376923 Eh      8.64 kcal/mol|
|  sn= 6 | S(rot)=       0.01359709 Eh      8.53 kcal/mol|
|  sn= 7 | S(rot)=       0.01345154 Eh      8.44 kcal/mol|
|  sn= 8 | S(rot)=       0.01332546 Eh      8.36 kcal/mol|
|  sn= 9 | S(rot)=       0.01321425 Eh      8.29 kcal/mol|
|  sn=10 | S(rot)=       0.01311478 Eh      8.23 kcal/mol|
|  sn=11 | S(rot)=       0.01302479 Eh      8.17 kcal/mol|
|  sn=12 | S(rot)=       0.01294263 Eh      8.12 kcal/mol|
 --------------------------------------------------------


-------------------
GIBBS FREE ENERGY
-------------------

The Gibbs free energy is G = H - T*S

Total enthalpy                    ...   -668.52864233 Eh 
Total entropy correction          ...     -0.06090308 Eh    -38.22 kcal/mol
-----------------------------------------------------------------------
Final Gibbs free energy         ...   -668.58954541 Eh

For completeness - the Gibbs free energy minus the electronic energy
G-E(el)                           ...      0.24923146 Eh    156.39 kcal/mol


Timings for individual modules:

Sum of individual times         ...     2112.376 sec (=  35.206 min)
GTO integral calculation        ...       53.815 sec (=   0.897 min)   2.5 %
SCF iterations                  ...      889.989 sec (=  14.833 min)  42.1 %
SCF Gradient evaluation         ...      252.773 sec (=   4.213 min)  12.0 %
Geometry relaxation             ...        0.907 sec (=   0.015 min)   0.0 %
Analytical frequency calculation...      914.892 sec (=  15.248 min)  43.3 %
                             ****ORCA TERMINATED NORMALLY****
TOTAL RUN TIME: 0 days 0 hours 35 minutes 58 seconds 667 msec
