33
Energy: -668.546527479
N      -7.583919000000000      1.292029000000000     -0.049523000000000
C      -6.159510000000000      1.153108000000000      0.201532000000000
C      -6.049647000000000      0.532601000000000      1.621572000000000
O      -7.029972000000000      0.424937000000000      2.331357000000000
C      -5.345301000000000      2.464401000000000      0.066711000000000
C      -5.951618000000000      3.669771000000000      0.841700000000000
C      -5.475329000000000      4.978780000000000      0.285879000000000
C      -6.318509000000000      5.772590000000000     -0.662794000000000
N      -6.437402000000000      5.097298000000000     -2.024306000000000
H      -5.910386000000000      6.772263000000000     -0.837815000000000
H      -7.351611000000000      5.866618000000000     -0.302920000000000
H      -7.005811000000000      5.658906000000000     -2.663120000000000
H      -6.891991000000000      4.140579000000000     -1.940067000000000
H      -8.156079000000000      0.817388000000000      0.642181000000000
C      -8.189484000000000      1.993469000000000     -1.010062000000000
N      -4.817930000000000      0.138820000000000      1.992158000000000
H      -4.070551000000000      0.145730000000000      1.315653000000000
O      -7.576164000000000      2.713212000000000     -1.811384000000000
H      -5.515492000000000      4.977954000000000     -2.448965000000000
C      -4.586934000000000     -0.507512000000000      3.277114000000000
H      -5.073571000000000     -1.489420000000000      3.316448000000000
H      -3.509849000000000     -0.628441000000000      3.419432000000000
H      -4.992214000000000      0.112988000000000      4.082544000000000
C      -9.696076000000000      1.863528000000000     -1.096681000000000
H     -10.141434000000000      2.863545000000000     -1.127464000000000
H      -9.935209000000000      1.364970000000000     -2.044253000000000
H     -10.128368000000000      1.291133000000000     -0.271279000000000
H      -5.738902000000000      0.431901000000000     -0.515777000000000
H      -4.325174000000000      2.277114000000000      0.422091000000000
H      -5.274553000000000      2.695293000000000     -0.999094000000000
H      -5.682602000000000      3.587624000000000      1.903286000000000
H      -7.046736000000000      3.621926000000000      0.785154000000000
H      -4.479402000000000      5.347797000000000      0.522897000000000
