
                                 *****************
                                 * O   R   C   A *
                                 *****************

                                            #,                                       
                                            ###                                      
                                            ####                                     
                                            #####                                    
                                            ######                                   
                                           ########,                                 
                                     ,,################,,,,,                         
                               ,,#################################,,                 
                          ,,##########################################,,             
                       ,#########################################, ''#####,          
                    ,#############################################,,   '####,        
                  ,##################################################,,,,####,       
                ,###########''''           ''''###############################       
              ,#####''   ,,,,##########,,,,          '''####'''          '####       
            ,##' ,,,,###########################,,,                        '##       
           ' ,,###''''                  '''############,,,                           
         ,,##''                                '''############,,,,        ,,,,,,###''
      ,#''                                            '''#######################'''  
     '                                                          ''''####''''         
             ,#######,   #######,   ,#######,      ##                                
            ,#'     '#,  ##    ##  ,#'     '#,    #''#        ######   ,####,        
            ##       ##  ##   ,#'  ##            #'  '#       #        #'  '#        
            ##       ##  #######   ##           ,######,      #####,   #    #        
            '#,     ,#'  ##    ##  '#,     ,#' ,#      #,         ##   #,  ,#        
             '#######'   ##     ##  '#######'  #'      '#     #####' # '####'        



                  #######################################################
                  #                        -***-                        #
                  #          Department of theory and spectroscopy      #
                  #    Directorship and core code : Frank Neese         #
                  #        Max Planck Institute fuer Kohlenforschung    #
                  #                Kaiser Wilhelm Platz 1               #
                  #                 D-45470 Muelheim/Ruhr               #
                  #                      Germany                        #
                  #                                                     #
                  #                  All rights reserved                #
                  #                        -***-                        #
                  #######################################################


                         Program Version 5.0.4 -  RELEASE  -


 With contributions from (in alphabetic order):
   Daniel Aravena         : Magnetic Suceptibility
   Michael Atanasov       : Ab Initio Ligand Field Theory (pilot matlab implementation)
   Alexander A. Auer      : GIAO ZORA, VPT2 properties, NMR spectrum
   Ute Becker             : Parallelization
   Giovanni Bistoni       : ED, misc. LED, open-shell LED, HFLD
   Martin Brehm           : Molecular dynamics
   Dmytro Bykov           : SCF Hessian
   Vijay G. Chilkuri      : MRCI spin determinant printing, contributions to CSF-ICE
   Dipayan Datta          : RHF DLPNO-CCSD density
   Achintya Kumar Dutta   : EOM-CC, STEOM-CC
   Dmitry Ganyushin       : Spin-Orbit,Spin-Spin,Magnetic field MRCI
   Miquel Garcia          : C-PCM and meta-GGA Hessian, CC/C-PCM, Gaussian charge scheme
   Yang Guo               : DLPNO-NEVPT2, F12-NEVPT2, CIM, IAO-localization
   Andreas Hansen         : Spin unrestricted coupled pair/coupled cluster methods
   Benjamin Helmich-Paris : MC-RPA, TRAH-SCF, COSX integrals
   Lee Huntington         : MR-EOM, pCC
   Robert Izsak           : Overlap fitted RIJCOSX, COSX-SCS-MP3, EOM
   Marcus Kettner         : VPT2
   Christian Kollmar      : KDIIS, OOCD, Brueckner-CCSD(T), CCSD density, CASPT2, CASPT2-K
   Simone Kossmann        : Meta GGA functionals, TD-DFT gradient, OOMP2, MP2 Hessian
   Martin Krupicka        : Initial AUTO-CI
   Lucas Lang             : DCDCAS
   Marvin Lechner         : AUTO-CI (C++ implementation), FIC-MRCC
   Dagmar Lenk            : GEPOL surface, SMD
   Dimitrios Liakos       : Extrapolation schemes; Compound Job, initial MDCI parallelization
   Dimitrios Manganas     : Further ROCIS development; embedding schemes
   Dimitrios Pantazis     : SARC Basis sets
   Anastasios Papadopoulos: AUTO-CI, single reference methods and gradients
   Taras Petrenko         : DFT Hessian,TD-DFT gradient, ASA, ECA, R-Raman, ABS, FL, XAS/XES, NRVS
   Peter Pinski           : DLPNO-MP2, DLPNO-MP2 Gradient
   Christoph Reimann      : Effective Core Potentials
   Marius Retegan         : Local ZFS, SOC
   Christoph Riplinger    : Optimizer, TS searches, QM/MM, DLPNO-CCSD(T), (RO)-DLPNO pert. Triples
   Tobias Risthaus        : Range-separated hybrids, TD-DFT gradient, RPA, STAB
   Michael Roemelt        : Original ROCIS implementation
   Masaaki Saitow         : Open-shell DLPNO-CCSD energy and density
   Barbara Sandhoefer     : DKH picture change effects
   Avijit Sen             : IP-ROCIS
   Kantharuban Sivalingam : CASSCF convergence, NEVPT2, FIC-MRCI
   Bernardo de Souza      : ESD, SOC TD-DFT
   Georgi Stoychev        : AutoAux, RI-MP2 NMR, DLPNO-MP2 response
   Willem Van den Heuvel  : Paramagnetic NMR
   Boris Wezisla          : Elementary symmetry handling
   Frank Wennmohs         : Technical directorship


 We gratefully acknowledge several colleagues who have allowed us to
 interface, adapt or use parts of their codes:
   Stefan Grimme, W. Hujo, H. Kruse, P. Pracht,  : VdW corrections, initial TS optimization,
                  C. Bannwarth, S. Ehlert          DFT functionals, gCP, sTDA/sTD-DF
   Ed Valeev, F. Pavosevic, A. Kumar             : LibInt (2-el integral package), F12 methods
   Garnet Chan, S. Sharma, J. Yang, R. Olivares  : DMRG
   Ulf Ekstrom                                   : XCFun DFT Library
   Mihaly Kallay                                 : mrcc  (arbitrary order and MRCC methods)
   Jiri Pittner, Ondrej Demel                    : Mk-CCSD
   Frank Weinhold                                : gennbo (NPA and NBO analysis)
   Christopher J. Cramer and Donald G. Truhlar   : smd solvation model
   Lars Goerigk                                  : TD-DFT with DH, B97 family of functionals
   V. Asgeirsson, H. Jonsson                     : NEB implementation
   FAccTs GmbH                                   : IRC, NEB, NEB-TS, DLPNO-Multilevel, CI-OPT
                                                   MM, QMMM, 2- and 3-layer-ONIOM, Crystal-QMMM,
                                                   LR-CPCM, SF, NACMEs, symmetry and pop. for TD-DFT,
                                                   nearIR, NL-DFT gradient (VV10), updates on ESD,
                                                   ML-optimized integration grids
   S Lehtola, MJT Oliveira, MAL Marques          : LibXC Library
   Liviu Ungur et al                             : ANISO software


 Your calculation uses the libint2 library for the computation of 2-el integrals
 For citations please refer to: http://libint.valeyev.net

 Your ORCA version has been built with support for libXC version: 5.1.0
 For citations please refer to: https://tddft.org/programs/libxc/

 This ORCA versions uses:
   CBLAS   interface :  Fast vector & matrix operations
   LAPACKE interface :  Fast linear algebra routines
   SCALAPACK package :  Parallel linear algebra routines
   Shared memory     :  Shared parallel matrices
   BLAS/LAPACK       :  OpenBLAS 0.3.15  USE64BITINT DYNAMIC_ARCH NO_AFFINITY Zen SINGLE_THREADED
        Core in use  :  Zen
   Copyright (c) 2011-2014, The OpenBLAS Project




***************************************
The coordinates will be read from file: model.xyz
***************************************


================================================================================

----- Orbital basis set information -----
Your calculation utilizes the basis: EPR-II
   V. Barone, in Recent Advances in Density Functional Methods, Part 1 (ed. D. P. Chong), World Scientific, Singapore, 1995, p. 287.

----- AuxJ basis set information -----
Your calculation utilizes the auxiliary basis: def2/J
   F. Weigend, Phys. Chem. Chem. Phys. 8, 1057 (2006).

================================================================================
                                        WARNINGS
                       Please study these warnings very carefully!
================================================================================


WARNING: your system is open-shell and RHF/RKS was chosen
  ===> : WILL SWITCH to UHF/UKS


WARNING: Geometry Optimization
  ===> : Switching off AutoStart
         For restart on a previous wavefunction, please use MOREAD

INFO   : the flag for use of the SHARK integral package has been found!

================================================================================
                                       INPUT FILE
================================================================================
NAME = opt.inp
|  1> ! B3LYP EPR-II OPT
|  2> %pal nprocs 16 end
|  3> *XYZFile 1 2 model.xyz
|  4> 
|  5>                          ****END OF INPUT****
================================================================================

                       *****************************
                       * Geometry Optimization Run *
                       *****************************

Geometry optimization settings:
Update method            Update   .... BFGS
Choice of coordinates    CoordSys .... Z-matrix Internals
Initial Hessian          InHess   .... Almoef's Model

Convergence Tolerances:
Energy Change            TolE     ....  5.0000e-06 Eh
Max. Gradient            TolMAXG  ....  3.0000e-04 Eh/bohr
RMS Gradient             TolRMSG  ....  1.0000e-04 Eh/bohr
Max. Displacement        TolMAXD  ....  4.0000e-03 bohr
RMS Displacement         TolRMSD  ....  2.0000e-03 bohr
Strict Convergence                ....  False
------------------------------------------------------------------------------
                        ORCA OPTIMIZATION COORDINATE SETUP
------------------------------------------------------------------------------

The optimization will be done in new redundant internal coordinates
Making redundant internal coordinates   ...  (new redundants) done
Evaluating the initial hessian          ...  (Almloef) done
Evaluating the coordinates              ...  done
Calculating the B-matrix                .... done
Calculating the G-matrix                .... done
Diagonalizing the G-matrix              .... done
Small eigenvalue found = 4.393e-03
Small eigenvalue found = 8.760e-03
Small eigenvalue found = 9.594e-03
Small eigenvalue found = 1.600e-02
Small eigenvalue found = 1.700e-02
The first mode is                       ....   67
The number of degrees of freedom        ....   93

    -----------------------------------------------------------------
                    Redundant Internal Coordinates


    -----------------------------------------------------------------
         Definition                    Initial Value    Approx d2E/dq
    -----------------------------------------------------------------
      1. B(C   1,N   0)                  1.4530         0.443946   
      2. B(C   2,C   1)                  1.5536         0.342575   
      3. B(O   3,C   2)                  1.2151         1.064012   
      4. B(C   4,C   1)                  1.5494         0.347893   
      5. B(C   5,C   4)                  1.5560         0.339540   
      6. B(C   6,C   5)                  1.4998         0.417462   
      7. B(C   7,C   6)                  1.4970         0.421692   
      8. B(N   8,C   7)                  1.5244         0.341515   
      9. B(H   9,C   7)                  1.0939         0.355022   
     10. B(H  10,C   7)                  1.0980         0.349644   
     11. B(H  11,N   8)                  1.0230         0.412494   
     12. B(H  12,N   8)                  1.0626         0.356714   
     13. B(H  13,N   0)                  1.0154         0.424156   
     14. B(C  14,N   0)                  1.3347         0.685709   
     15. B(N  15,C   2)                  1.3452         0.659742   
     16. B(H  16,N  15)                  1.0081         0.435726   
     17. B(O  17,C  14)                  1.2395         0.972797   
     18. B(H  18,N   8)                  1.0220         0.414038   
     19. B(C  19,N  15)                  1.4568         0.437852   
     20. B(H  20,C  19)                  1.0966         0.351489   
     21. B(H  21,C  19)                  1.0932         0.355949   
     22. B(H  22,C  19)                  1.0945         0.354161   
     23. B(C  23,C  14)                  1.5147         0.395226   
     24. B(H  24,C  23)                  1.0951         0.353368   
     25. B(H  25,C  23)                  1.0971         0.350824   
     26. B(H  26,C  23)                  1.0935         0.355465   
     27. B(H  27,C   1)                  1.1007         0.346195   
     28. B(H  28,C   4)                  1.0964         0.351769   
     29. B(H  29,C   4)                  1.0928         0.356388   
     30. B(H  30,C   5)                  1.0982         0.349391   
     31. B(H  31,C   5)                  1.0976         0.350159   
     32. B(H  32,C   6)                  1.0882         0.362463   
     33. A(C   1,N   0,C  14)          128.2706         0.410954   
     34. A(H  13,N   0,C  14)          118.7012         0.363644   
     35. A(C   1,N   0,H  13)          112.9533         0.337906   
     36. A(N   0,C   1,H  27)          108.9440         0.329526   
     37. A(C   4,C   1,H  27)          107.2784         0.318501   
     38. A(N   0,C   1,C   2)          105.3931         0.366440   
     39. A(C   2,C   1,H  27)          107.8749         0.317702   
     40. A(N   0,C   1,C   4)          114.7844         0.367408   
     41. A(C   2,C   1,C   4)          112.3586         0.353723   
     42. A(O   3,C   2,N  15)          123.4960         0.477974   
     43. A(C   1,C   2,N  15)          115.6886         0.392465   
     44. A(C   1,C   2,O   3)          120.8152         0.427135   
     45. A(C   5,C   4,H  29)          110.3227         0.318746   
     46. A(C   1,C   4,H  29)          107.3194         0.320013   
     47. A(C   5,C   4,H  28)          109.4784         0.318069   
     48. A(H  28,C   4,H  29)          106.9768         0.289303   
     49. A(C   1,C   4,H  28)          108.4320         0.319332   
     50. A(C   1,C   4,C   5)          114.0483         0.353190   
     51. A(C   4,C   5,C   6)          111.5798         0.364319   
     52. A(C   4,C   5,H  31)          109.2293         0.317831   
     53. A(C   6,C   5,H  31)          109.6215         0.328786   
     54. A(H  30,C   5,H  31)          106.9140         0.288199   
     55. A(C   6,C   5,H  30)          110.2268         0.328667   
     56. A(C   4,C   5,H  30)          109.1508         0.317717   
     57. A(C   5,C   6,C   7)          121.2519         0.378158   
     58. A(C   5,C   6,H  32)          120.3907         0.330667   
     59. A(C   7,C   6,H  32)          118.2736         0.331219   
     60. A(H   9,C   7,H  10)          108.9791         0.288854   
     61. A(N   8,C   7,H  10)          104.9085         0.316171   
     62. A(C   6,C   7,H  10)          111.5708         0.329253   
     63. A(N   8,C   7,H   9)          106.9198         0.316957   
     64. A(C   6,C   7,H   9)          112.0768         0.330085   
     65. A(C   6,C   7,N   8)          112.0254         0.363037   
     66. A(C   7,N   8,H  12)          111.1870         0.314543   
     67. A(C   7,N   8,H  11)          110.9686         0.322083   
     68. A(H  12,N   8,H  18)          108.2835         0.292056   
     69. A(H  11,N   8,H  18)          107.8088         0.298844   
     70. A(C   7,N   8,H  18)          110.6394         0.322280   
     71. A(H  11,N   8,H  12)          107.8233         0.291884   
     72. A(N   0,C  14,O  17)          123.0890         0.473508   
     73. A(O  17,C  14,C  23)          120.3332         0.431242   
     74. A(N   0,C  14,C  23)          116.5750         0.405196   
     75. A(H  16,N  15,C  19)          118.5156         0.338645   
     76. A(C   2,N  15,C  19)          121.2025         0.407157   
     77. A(C   2,N  15,H  16)          119.4691         0.362918   
     78. A(H  20,C  19,H  21)          109.4829         0.289211   
     79. A(N  15,C  19,H  21)          108.6720         0.330287   
     80. A(N  15,C  19,H  20)          111.0108         0.329600   
     81. A(H  21,C  19,H  22)          109.3748         0.289554   
     82. A(H  20,C  19,H  22)          108.4761         0.288983   
     83. A(N  15,C  19,H  22)          109.8062         0.330012   
     84. A(H  25,C  23,H  26)          109.1411         0.289063   
     85. A(H  24,C  23,H  26)          109.7811         0.289391   
     86. A(C  14,C  23,H  26)          113.2630         0.326641   
     87. A(H  24,C  23,H  25)          107.5803         0.288795   
     88. A(C  14,C  23,H  25)          107.7692         0.325935   
     89. A(C  14,C  23,H  24)          109.1336         0.326323   
     90. D(C   2,C   1,N   0,H  13)    -10.4729         0.016808   
     91. D(H  27,C   1,N   0,H  13)    105.0638         0.016808   
     92. D(C   2,C   1,N   0,C  14)    166.3024         0.016808   
     93. D(C   4,C   1,N   0,H  13)   -134.6469         0.016808   
     94. D(C   4,C   1,N   0,C  14)     42.1284         0.016808   
     95. D(H  27,C   1,N   0,C  14)    -78.1609         0.016808   
     96. D(N  15,C   2,C   1,N   0)    171.0016         0.008904   
     97. D(N  15,C   2,C   1,C   4)    -63.3090         0.008904   
     98. D(O   3,C   2,C   1,C   4)    116.5427         0.008904   
     99. D(O   3,C   2,C   1,N   0)     -9.1468         0.008904   
    100. D(N  15,C   2,C   1,H  27)     54.7321         0.008904   
    101. D(O   3,C   2,C   1,H  27)   -125.4162         0.008904   
    102. D(C   5,C   4,C   1,C   2)    -71.1181         0.009761   
    103. D(C   5,C   4,C   1,H  27)    170.4887         0.009761   
    104. D(C   5,C   4,C   1,N   0)     49.2836         0.009761   
    105. D(H  29,C   4,C   1,C   2)    166.3659         0.009761   
    106. D(H  29,C   4,C   1,N   0)    -73.2324         0.009761   
    107. D(H  29,C   4,C   1,H  27)     47.9727         0.009761   
    108. D(H  28,C   4,C   1,H  27)    -67.2614         0.009761   
    109. D(H  28,C   4,C   1,N   0)    171.5335         0.009761   
    110. D(H  28,C   4,C   1,C   2)     51.1318         0.009761   
    111. D(H  31,C   5,C   4,H  29)     84.1122         0.009337   
    112. D(H  31,C   5,C   4,H  28)   -158.4191         0.009337   
    113. D(H  31,C   5,C   4,C   1)    -36.7452         0.009337   
    114. D(H  30,C   5,C   4,H  29)   -159.3165         0.009337   
    115. D(H  30,C   5,C   4,H  28)    -41.8478         0.009337   
    116. D(C   6,C   5,C   4,H  29)    -37.2479         0.009337   
    117. D(C   6,C   5,C   4,H  28)     80.2208         0.009337   
    118. D(C   6,C   5,C   4,C   1)   -158.1054         0.009337   
    119. D(H  30,C   5,C   4,C   1)     79.8261         0.009337   
    120. D(C   7,C   6,C   5,C   4)     98.9593         0.012891   
    121. D(H  32,C   6,C   5,H  31)    161.2143         0.012891   
    122. D(H  32,C   6,C   5,H  30)     43.7929         0.012891   
    123. D(H  32,C   6,C   5,C   4)    -77.6536         0.012891   
    124. D(C   7,C   6,C   5,H  31)    -22.1728         0.012891   
    125. D(C   7,C   6,C   5,H  30)   -139.5942         0.012891   
    126. D(H  10,C   7,C   6,H  32)   -135.7345         0.013146   
    127. D(H  10,C   7,C   6,C   5)     47.5829         0.013146   
    128. D(H   9,C   7,C   6,H  32)    -13.2053         0.013146   
    129. D(H   9,C   7,C   6,C   5)    170.1121         0.013146   
    130. D(N   8,C   7,C   6,H  32)    106.9841         0.013146   
    131. D(N   8,C   7,C   6,C   5)    -69.6985         0.013146   
    132. D(H  18,N   8,C   7,H  10)    179.1846         0.010782   
    133. D(H  18,N   8,C   7,H   9)     63.5412         0.010782   
    134. D(H  18,N   8,C   7,C   6)    -59.6096         0.010782   
    135. D(H  12,N   8,C   7,H  10)    -60.4485         0.010782   
    136. D(H  12,N   8,C   7,H   9)   -176.0919         0.010782   
    137. D(H  12,N   8,C   7,C   6)     60.7573         0.010782   
    138. D(H  11,N   8,C   7,H  10)     59.5580         0.010782   
    139. D(H  11,N   8,C   7,H   9)    -56.0854         0.010782   
    140. D(H  11,N   8,C   7,C   6)   -179.2362         0.010782   
    141. D(C  23,C  14,N   0,H  13)     -8.1975         0.038752   
    142. D(C  23,C  14,N   0,C   1)    175.1880         0.038752   
    143. D(O  17,C  14,N   0,H  13)    172.4091         0.038752   
    144. D(O  17,C  14,N   0,C   1)     -4.2054         0.038752   
    145. D(C  19,N  15,C   2,O   3)      2.6351         0.035615   
    146. D(C  19,N  15,C   2,C   1)   -177.5177         0.035615   
    147. D(H  16,N  15,C   2,O   3)    172.1574         0.035615   
    148. D(H  16,N  15,C   2,C   1)     -7.9954         0.035615   
    149. D(H  21,C  19,N  15,H  16)     17.2066         0.016347   
    150. D(H  21,C  19,N  15,C   2)   -173.1738         0.016347   
    151. D(H  20,C  19,N  15,H  16)   -103.2525         0.016347   
    152. D(H  20,C  19,N  15,C   2)     66.3671         0.016347   
    153. D(H  22,C  19,N  15,H  16)    136.8038         0.016347   
    154. D(H  22,C  19,N  15,C   2)    -53.5766         0.016347   
    155. D(H  26,C  23,C  14,O  17)   -173.6597         0.011605   
    156. D(H  26,C  23,C  14,N   0)      6.9291         0.011605   
    157. D(H  25,C  23,C  14,O  17)     65.5056         0.011605   
    158. D(H  25,C  23,C  14,N   0)   -113.9056         0.011605   
    159. D(H  24,C  23,C  14,O  17)    -51.0396         0.011605   
    160. D(H  24,C  23,C  14,N   0)    129.5492         0.011605   
    -----------------------------------------------------------------

Number of atoms                         .... 33
Number of degrees of freedom            .... 160

         *************************************************************
         *                GEOMETRY OPTIMIZATION CYCLE   1            *
         *************************************************************
---------------------------------
CARTESIAN COORDINATES (ANGSTROEM)
---------------------------------
  N     -7.583919    1.292029   -0.049523
  C     -6.159510    1.153108    0.201532
  C     -6.049647    0.532601    1.621572
  O     -7.029972    0.424937    2.331357
  C     -5.345301    2.464401    0.066711
  C     -5.951618    3.669771    0.841700
  C     -5.475329    4.978780    0.285879
  C     -6.318509    5.772590   -0.662794
  N     -6.437402    5.097298   -2.024306
  H     -5.910386    6.772263   -0.837815
  H     -7.351611    5.866618   -0.302920
  H     -7.005811    5.658906   -2.663120
  H     -6.891991    4.140579   -1.940067
  H     -8.156079    0.817388    0.642181
  C     -8.189484    1.993469   -1.010062
  N     -4.817930    0.138820    1.992158
  H     -4.070551    0.145730    1.315653
  O     -7.576164    2.713212   -1.811384
  H     -5.515492    4.977954   -2.448965
  C     -4.586934   -0.507512    3.277114
  H     -5.073571   -1.489420    3.316448
  H     -3.509849   -0.628441    3.419432
  H     -4.992214    0.112988    4.082544
  C     -9.696076    1.863528   -1.096681
  H    -10.141434    2.863545   -1.127464
  H     -9.935209    1.364970   -2.044253
  H    -10.128368    1.291133   -0.271279
  H     -5.738902    0.431901   -0.515777
  H     -4.325174    2.277114    0.422091
  H     -5.274553    2.695293   -0.999094
  H     -5.682602    3.587624    1.903286
  H     -7.046736    3.621926    0.785154
  H     -4.479402    5.347797    0.522897

----------------------------
CARTESIAN COORDINATES (A.U.)
----------------------------
  NO LB      ZA    FRAG     MASS         X           Y           Z
   0 N     7.0000    0    14.007  -14.331530    2.441581   -0.093585
   1 C     6.0000    0    12.011  -11.639787    2.179058    0.380840
   2 C     6.0000    0    12.011  -11.432176    1.006470    3.064327
   3 O     8.0000    0    15.999  -13.284722    0.803015    4.405626
   4 C     6.0000    0    12.011  -10.101155    4.657043    0.126066
   5 C     6.0000    0    12.011  -11.246928    6.934862    1.590582
   6 C     6.0000    0    12.011  -10.346872    9.408531    0.540233
   7 C     6.0000    0    12.011  -11.940252   10.908614   -1.252499
   8 N     7.0000    0    14.007  -12.164927    9.632497   -3.825384
   9 H     1.0000    0     1.008  -11.169011   12.797722   -1.583241
  10 H     1.0000    0     1.008  -13.892531   11.086301   -0.572436
  11 H     1.0000    0     1.008  -13.239064   10.693783   -5.032567
  12 H     1.0000    0     1.008  -13.023976    7.824560   -3.666195
  13 H     1.0000    0     1.008  -15.412756    1.544639    1.213546
  14 C     6.0000    0    12.011  -15.475882    3.767110   -1.908741
  15 N     7.0000    0    14.007   -9.104568    0.262332    3.764633
  16 H     1.0000    0     1.008   -7.692227    0.275390    2.486224
  17 O     8.0000    0    15.999  -14.316875    5.127228   -3.423020
  18 H     1.0000    0     1.008  -10.422769    9.406970   -4.627873
  19 C     6.0000    0    12.011   -8.668049   -0.959059    6.192848
  20 H     1.0000    0     1.008   -9.587660   -2.814596    6.267178
  21 H     1.0000    0     1.008   -6.632653   -1.187581    6.461790
  22 H     1.0000    0     1.008   -9.433917    0.213516    7.714890
  23 C     6.0000    0    12.011  -18.322928    3.521558   -2.072427
  24 H     1.0000    0     1.008  -19.164533    5.411316   -2.130598
  25 H     1.0000    0     1.008  -18.774824    2.579419   -3.863078
  26 H     1.0000    0     1.008  -19.139842    2.439888   -0.512643
  27 H     1.0000    0     1.008  -10.844953    0.816175   -0.974677
  28 H     1.0000    0     1.008   -8.173394    4.303122    0.797636
  29 H     1.0000    0     1.008   -9.967461    5.093366   -1.888014
  30 H     1.0000    0     1.008  -10.738562    6.779627    3.596689
  31 H     1.0000    0     1.008  -13.316401    6.844448    1.483726
  32 H     1.0000    0     1.008   -8.464843   10.105872    0.988132

--------------------------------
INTERNAL COORDINATES (ANGSTROEM)
--------------------------------
 N      0   0   0     0.000000000000     0.00000000     0.00000000
 C      1   0   0     1.453020528605     0.00000000     0.00000000
 C      2   1   0     1.553580515267   105.39308169     0.00000000
 O      3   2   1     1.215081638717   120.81521980   350.85321948
 C      2   1   3     1.549387727320   114.78440796   235.82599389
 C      5   2   1     1.556002921434   114.04834248    49.28361127
 C      6   5   2     1.499764234019   111.57976422   201.89462537
 C      7   6   5     1.497019468621   121.25185221    98.95934135
 N      8   7   6     1.524424401818   112.02538134   290.30148287
 H      8   7   6     1.093866006648   112.07678402   170.11206435
 H      8   7   6     1.098021084982   111.57078159    47.58293454
 H      9   8   7     1.023022806951   110.96856290   180.76384349
 H      9   8   7     1.062571697818   111.18697030    60.75733245
 H      1   2   3     1.015433684736   112.95334252   349.52714765
 C      1   2   3     1.334676819813   128.27062935   166.30244771
 N      3   2   1     1.345185573609   115.68864315   171.00155221
 H     16   3   2     1.008108194970   119.46909013   352.00464674
 O     15   1   2     1.239479066436   123.08899458   355.79459598
 H      9   8   7     1.022006019903   110.63939807   300.39039782
 C     16   3   2     1.456782800618   121.20251429   182.48231185
 H     20  16   3     1.096588370260   111.01076577    66.36710010
 H     20  16   3     1.093156134040   108.67195722   186.82618261
 H     20  16   3     1.094527118577   109.80616430   306.42339354
 C     15   1   2     1.514663978943   116.57498082   175.18801653
 H     24  15   1     1.095137133670   109.13357642   129.54921514
 H     24  15   1     1.097104081770   107.76919928   246.09439621
 H     24  15   1     1.093526803921   113.26300379     6.92914211
 H      2   1   3     1.100719232136   108.94398926   115.53669849
 H      5   2   1     1.096371497668   108.43204137   171.53348579
 H      5   2   1     1.092820521949   107.31941181   286.76761616
 H      6   5   2     1.098217907913   109.15078756    79.82608230
 H      6   5   2     1.097620165661   109.22926675   323.25478024
 H      7   6   5     1.088219494377   120.39072799   282.34642480

---------------------------
INTERNAL COORDINATES (A.U.)
---------------------------
 N      0   0   0     0.000000000000     0.00000000     0.00000000
 C      1   0   0     2.745810866029     0.00000000     0.00000000
 C      2   1   0     2.935841700851   105.39308169     0.00000000
 O      3   2   1     2.296171527530   120.81521980   350.85321948
 C      2   1   3     2.927918479894   114.78440796   235.82599389
 C      5   2   1     2.940419385091   114.04834248    49.28361127
 C      6   5   2     2.834143667746   111.57976422   201.89462537
 C      7   6   5     2.828956812841   121.25185221    98.95934135
 N      8   7   6     2.880744631302   112.02538134   290.30148287
 H      8   7   6     2.067107179770   112.07678402   170.11206435
 H      8   7   6     2.074959139886   111.57078159    47.58293454
 H      9   8   7     1.933232933892   110.96856290   180.76384349
 H      9   8   7     2.007969506531   111.18697030    60.75733245
 H      1   2   3     1.918891571310   112.95334252   349.52714765
 C      1   2   3     2.522173666739   128.27062935   166.30244771
 N      3   2   1     2.542032333423   115.68864315   171.00155221
 H     16   3   2     1.905048401855   119.46909013   352.00464674
 O     15   1   2     2.342275984292   123.08899458   355.79459598
 H      9   8   7     1.931311484835   110.63939807   300.39039782
 C     16   3   2     2.752920529775   121.20251429   182.48231185
 H     20  16   3     2.072251701434   111.01076577    66.36710010
 H     20  16   3     2.065765714952   108.67195722   186.82618261
 H     20  16   3     2.068356500260   109.80616430   306.42339354
 C     15   1   2     2.862300105117   116.57498082   175.18801653
 H     24  15   1     2.069509261723   109.13357642   129.54921514
 H     24  15   1     2.073226254953   107.76919928   246.09439621
 H     24  15   1     2.066466179512   113.26300379     6.92914211
 H      2   1   3     2.080057899077   108.94398926   115.53669849
 H      5   2   1     2.071841871629   108.43204137   171.53348579
 H      5   2   1     2.065131500013   107.31941181   286.76761616
 H      6   5   2     2.075331081324   109.15078756    79.82608230
 H      6   5   2     2.074201512168   109.22926675   323.25478024
 H      7   6   5     2.056436817967   120.39072799   282.34642480

---------------------
BASIS SET INFORMATION
---------------------
There are 4 groups of distinct atoms

 Group   1 Type N   : 10s5p1d contracted to 6s2p1d pattern {511111/41/1}
 Group   2 Type C   : 10s5p1d contracted to 6s2p1d pattern {511111/41/1}
 Group   3 Type O   : 10s5p1d contracted to 6s2p1d pattern {511111/41/1}
 Group   4 Type H   : 6s1p contracted to 4s1p pattern {3111/1}

Atom   0N    basis set group =>   1
Atom   1C    basis set group =>   2
Atom   2C    basis set group =>   2
Atom   3O    basis set group =>   3
Atom   4C    basis set group =>   2
Atom   5C    basis set group =>   2
Atom   6C    basis set group =>   2
Atom   7C    basis set group =>   2
Atom   8N    basis set group =>   1
Atom   9H    basis set group =>   4
Atom  10H    basis set group =>   4
Atom  11H    basis set group =>   4
Atom  12H    basis set group =>   4
Atom  13H    basis set group =>   4
Atom  14C    basis set group =>   2
Atom  15N    basis set group =>   1
Atom  16H    basis set group =>   4
Atom  17O    basis set group =>   3
Atom  18H    basis set group =>   4
Atom  19C    basis set group =>   2
Atom  20H    basis set group =>   4
Atom  21H    basis set group =>   4
Atom  22H    basis set group =>   4
Atom  23C    basis set group =>   2
Atom  24H    basis set group =>   4
Atom  25H    basis set group =>   4
Atom  26H    basis set group =>   4
Atom  27H    basis set group =>   4
Atom  28H    basis set group =>   4
Atom  29H    basis set group =>   4
Atom  30H    basis set group =>   4
Atom  31H    basis set group =>   4
Atom  32H    basis set group =>   4
---------------------------------
AUXILIARY/J BASIS SET INFORMATION
---------------------------------
There are 4 groups of distinct atoms

 Group   1 Type N   : 12s5p4d2f1g contracted to 6s4p3d1f1g pattern {711111/2111/211/2/1}
 Group   2 Type C   : 12s5p4d2f1g contracted to 6s4p3d1f1g pattern {711111/2111/211/2/1}
 Group   3 Type O   : 12s5p4d2f1g contracted to 6s4p3d1f1g pattern {711111/2111/211/2/1}
 Group   4 Type H   : 5s2p1d contracted to 3s1p1d pattern {311/2/1}

Atom   0N    basis set group =>   1
Atom   1C    basis set group =>   2
Atom   2C    basis set group =>   2
Atom   3O    basis set group =>   3
Atom   4C    basis set group =>   2
Atom   5C    basis set group =>   2
Atom   6C    basis set group =>   2
Atom   7C    basis set group =>   2
Atom   8N    basis set group =>   1
Atom   9H    basis set group =>   4
Atom  10H    basis set group =>   4
Atom  11H    basis set group =>   4
Atom  12H    basis set group =>   4
Atom  13H    basis set group =>   4
Atom  14C    basis set group =>   2
Atom  15N    basis set group =>   1
Atom  16H    basis set group =>   4
Atom  17O    basis set group =>   3
Atom  18H    basis set group =>   4
Atom  19C    basis set group =>   2
Atom  20H    basis set group =>   4
Atom  21H    basis set group =>   4
Atom  22H    basis set group =>   4
Atom  23C    basis set group =>   2
Atom  24H    basis set group =>   4
Atom  25H    basis set group =>   4
Atom  26H    basis set group =>   4
Atom  27H    basis set group =>   4
Atom  28H    basis set group =>   4
Atom  29H    basis set group =>   4
Atom  30H    basis set group =>   4
Atom  31H    basis set group =>   4
Atom  32H    basis set group =>   4


           ************************************************************
           *        Program running with 16 parallel MPI-processes    *
           *              working on a common directory               *
           ************************************************************
------------------------------------------------------------------------------
                           ORCA GTO INTEGRAL CALCULATION
                           -- RI-GTO INTEGRALS CHOSEN --
------------------------------------------------------------------------------
------------------------------------------------------------------------------
                   ___                                                        
                  /   \      - P O W E R E D   B Y -                         
                 /     \                                                     
                 |  |  |   _    _      __       _____    __    __             
                 |  |  |  | |  | |    /  \     |  _  \  |  |  /  |          
                  \  \/   | |  | |   /    \    | | | |  |  | /  /          
                 / \  \   | |__| |  /  /\  \   | |_| |  |  |/  /          
                |  |  |   |  __  | /  /__\  \  |    /   |      \           
                |  |  |   | |  | | |   __   |  |    \   |  |\   \          
                \     /   | |  | | |  |  |  |  | |\  \  |  | \   \       
                 \___/    |_|  |_| |__|  |__|  |_| \__\ |__|  \__/        
                                                                              
                      - O R C A' S   B I G   F R I E N D -                    
                                      &                                       
                       - I N T E G R A L  F E E D E R -                       
                                                                              
 v1 FN, 2020, v2 2021                                                         
------------------------------------------------------------------------------


Reading SHARK input file opt.SHARKINP.tmp ... ok
----------------------
SHARK INTEGRAL PACKAGE
----------------------

Number of atoms                             ...     33
Number of basis functions                   ...    371
Number of shells                            ...    221
Maximum angular momentum                    ...      2
Integral batch strategy                     ... SHARK/LIBINT Hybrid
RI-J (if used) integral strategy            ... SPLIT-RIJ (Revised 2003 algorithm where possible)
Printlevel                                  ...      1
Contraction scheme used                     ... SEGMENTED contraction
Coulomb Range Separation                    ... NOT USED
Exchange Range Separation                   ... NOT USED
Finite Nucleus Model                        ... NOT USED
Auxiliary Coulomb fitting basis             ... AVAILABLE
   # of basis functions in Aux-J            ...    895
   # of shells in Aux-J                     ...    305
   Maximum angular momentum in Aux-J        ...      4
Auxiliary J/K fitting basis                 ... NOT available
Auxiliary Correlation fitting basis         ... NOT available
Auxiliary 'external' fitting basis          ... NOT available
Integral threshold                          ...     2.500000e-11
Primitive cut-off                           ...     2.500000e-12
Primitive pair pre-selection threshold      ...     2.500000e-12

Calculating pre-screening integrals         ... done (  0.0 sec) Dimension = 221
Organizing shell pair data                  ... done (  0.1 sec)
Shell pair information
Total number of shell pairs                 ...     24531
Shell pairs after pre-screening             ...     16701
Total number of primitive shell pairs       ...     64184
Primitive shell pairs kept                  ...     31876
          la=0 lb=0:   7842 shell pairs
          la=1 lb=0:   5692 shell pairs
          la=1 lb=1:    970 shell pairs
          la=2 lb=0:   1556 shell pairs
          la=2 lb=1:    551 shell pairs
          la=2 lb=2:     90 shell pairs

Calculating one electron integrals          ... done (  0.0 sec)
Calculating RI/J V-Matrix + Cholesky decomp.... done (  0.0 sec)
Calculating Nuclear repulsion               ... done (  0.0 sec) ENN=    977.103243130334 Eh

SHARK setup successfully completed in   0.2 seconds

Maximum memory used throughout the entire GTOINT-calculation: 23.7 MB


           ************************************************************
           *        Program running with 16 parallel MPI-processes    *
           *              working on a common directory               *
           ************************************************************
-------------------------------------------------------------------------------
                                 ORCA SCF
-------------------------------------------------------------------------------

------------
SCF SETTINGS
------------
Hamiltonian:
 Density Functional     Method          .... DFT(GTOs)
 Exchange Functional    Exchange        .... B88
   X-Alpha parameter    XAlpha          ....  0.666667
   Becke's b parameter  XBeta           ....  0.004200
 Correlation Functional Correlation     .... LYP
 LDA part of GGA corr.  LDAOpt          .... VWN-5
 Gradients option       PostSCFGGA      .... off
 Hybrid DFT is turned on
   Fraction HF Exchange ScalHFX         ....  0.200000
   Scaling of DF-GGA-X  ScalDFX         ....  0.720000
   Scaling of DF-GGA-C  ScalDFC         ....  0.810000
   Scaling of DF-LDA-C  ScalLDAC        ....  1.000000
   Perturbative correction              ....  0.000000
   Density functional embedding theory  .... OFF
   NL short-range parameter             ....  4.800000
 RI-approximation to the Coulomb term is turned on
   Number of AuxJ basis functions       .... 895
   RIJ-COSX (HFX calculated with COS-X)).... on


General Settings:
 Integral files         IntName         .... opt
 Hartree-Fock type      HFTyp           .... UHF
 Total Charge           Charge          ....    1
 Multiplicity           Mult            ....    2
 Number of Electrons    NEL             ....  109
 Basis Dimension        Dim             ....  371
 Nuclear Repulsion      ENuc            ....    977.1032431303 Eh

Convergence Acceleration:
 DIIS                   CNVDIIS         .... on
   Start iteration      DIISMaxIt       ....    12
   Startup error        DIISStart       ....  0.200000
   # of expansion vecs  DIISMaxEq       ....     5
   Bias factor          DIISBfac        ....   1.050
   Max. coefficient     DIISMaxC        ....  10.000
 Trust-Rad. Augm. Hess. CNVTRAH         .... auto
   Auto Start mean grad. ratio tolernc. ....  1.125000
   Auto Start start iteration           ....    20
   Auto Start num. interpolation iter.  ....    10
   Max. Number of Micro iterations      ....    16
   Max. Number of Macro iterations      .... Maxiter - #DIIS iter
   Number of Davidson start vectors     ....     2
   Converg. threshold I  (grad. norm)   ....   1.000e-05
   Converg. threshold II (energy diff.) ....   1.000e-08
   Grad. Scal. Fac. for Micro threshold ....   0.100
   Minimum threshold for Micro iter.    ....   0.010
   NR start threshold (gradient norm)   ....   0.001
   Initial trust radius                 ....   0.400
   Minimum AH scaling param. (alpha)    ....   1.000
   Maximum AH scaling param. (alpha)    .... 1000.000
   Orbital update algorithm             .... Taylor
   White noise on init. David. guess    .... on
   Maximum white noise                  ....   0.010
   Quad. conv. algorithm                .... NR
 SOSCF                  CNVSOSCF        .... off
 Level Shifting         CNVShift        .... on
   Level shift para.    LevelShift      ....    0.2500
   Turn off err/grad.   ShiftErr        ....    0.0010
 Zerner damping         CNVZerner       .... off
 Static damping         CNVDamp         .... on
   Fraction old density DampFac         ....    0.7000
   Max. Damping (<1)    DampMax         ....    0.9800
   Min. Damping (>=0)   DampMin         ....    0.0000
   Turn off err/grad.   DampErr         ....    0.1000
 Fernandez-Rico         CNVRico         .... off

SCF Procedure:
 Maximum # iterations   MaxIter         ....   125
 SCF integral mode      SCFMode         .... Direct
   Integral package                     .... SHARK and LIBINT hybrid scheme
 Reset frequency        DirectResetFreq ....    20
 Integral Threshold     Thresh          ....  2.500e-11 Eh
 Primitive CutOff       TCut            ....  2.500e-12 Eh

Convergence Tolerance:
 Convergence Check Mode ConvCheckMode   .... Total+1el-Energy
 Convergence forced     ConvForced      .... 0
 Energy Change          TolE            ....  1.000e-08 Eh
 1-El. energy change                    ....  1.000e-05 Eh
 DIIS Error             TolErr          ....  5.000e-07


Diagonalization of the overlap matrix:
Smallest eigenvalue                        ... 1.004e-03
Time for diagonalization                   ...    0.015 sec
Threshold for overlap eigenvalues          ... 1.000e-08
Number of eigenvalues below threshold      ... 0
Time for construction of square roots      ...    0.013 sec
Total time needed                          ...    0.029 sec

Time for model grid setup =    0.123 sec

------------------------------
INITIAL GUESS: MODEL POTENTIAL
------------------------------
Loading Hartree-Fock densities                     ... done
Calculating cut-offs                               ... done
Initializing the effective Hamiltonian             ... done
Setting up the integral package (SHARK)            ... done
Starting the Coulomb interaction                   ... done (   0.1 sec)
Reading the grid                                   ... done
Mapping shells                                     ... done
Starting the XC term evaluation                    ... done (   0.0 sec)
  promolecular density results
     # of electrons  =    109.994333086
     EX              =    -88.095675544
     EC              =     -3.698793139
     EX+EC           =    -91.794468683
Transforming the Hamiltonian                       ... done (   0.0 sec)
Diagonalizing the Hamiltonian                      ... done (   0.0 sec)
Back transforming the eigenvectors                 ... done (   0.0 sec)
Now organizing SCF variables                       ... done
                      ------------------
                      INITIAL GUESS DONE (   0.3 sec)
                      ------------------
-------------------
DFT GRID GENERATION
-------------------

General Integration Accuracy     IntAcc      ... 4.388
Radial Grid Type                 RadialGrid  ... OptM3 with GC (2021)
Angular Grid (max. ang.)         AngularGrid ... 4 (Lebedev-302)
Angular grid pruning method      GridPruning ... 4 (adaptive)
Weight generation scheme         WeightScheme... Becke
Basis function cutoff            BFCut       ... 1.0000e-11
Integration weight cutoff        WCut        ... 1.0000e-14
Angular grids for H and He will be reduced by one unit
Partially contracted basis set               ... off
Rotationally invariant grid construction     ... off

Total number of grid points                  ...   144377
Total number of batches                      ...     2273
Average number of points per batch           ...       63
Average number of grid points per atom       ...     4375
Time for grid setup =    0.611 sec

--------------------
COSX GRID GENERATION
--------------------

GRIDX 1
-------
General Integration Accuracy     IntAcc      ... 3.816
Radial Grid Type                 RadialGrid  ... OptM3 with GC (2021)
Angular Grid (max. ang.)         AngularGrid ... 1 (Lebedev-50)
Angular grid pruning method      GridPruning ... 4 (adaptive)
Weight generation scheme         WeightScheme... Becke
Basis function cutoff            BFCut       ... 1.0000e-11
Integration weight cutoff        WCut        ... 1.0000e-14
Angular grids for H and He will be reduced by one unit
Partially contracted basis set               ... on
Rotationally invariant grid construction     ... off

Total number of grid points                  ...    18418
Total number of batches                      ...      306
Average number of points per batch           ...       60
Average number of grid points per atom       ...      558
UseSFitting                                  ... on

GRIDX 2
-------
General Integration Accuracy     IntAcc      ... 4.020
Radial Grid Type                 RadialGrid  ... OptM3 with GC (2021)
Angular Grid (max. ang.)         AngularGrid ... 2 (Lebedev-110)
Angular grid pruning method      GridPruning ... 4 (adaptive)
Weight generation scheme         WeightScheme... Becke
Basis function cutoff            BFCut       ... 1.0000e-11
Integration weight cutoff        WCut        ... 1.0000e-14
Angular grids for H and He will be reduced by one unit
Partially contracted basis set               ... on
Rotationally invariant grid construction     ... off

Total number of grid points                  ...    38794
Total number of batches                      ...      625
Average number of points per batch           ...       62
Average number of grid points per atom       ...     1176
UseSFitting                                  ... on

GRIDX 3
-------
General Integration Accuracy     IntAcc      ... 4.338
Radial Grid Type                 RadialGrid  ... OptM3 with GC (2021)
Angular Grid (max. ang.)         AngularGrid ... 3 (Lebedev-194)
Angular grid pruning method      GridPruning ... 4 (adaptive)
Weight generation scheme         WeightScheme... Becke
Basis function cutoff            BFCut       ... 1.0000e-11
Integration weight cutoff        WCut        ... 1.0000e-14
Angular grids for H and He will be reduced by one unit
Partially contracted basis set               ... on
Rotationally invariant grid construction     ... off

Total number of grid points                  ...    84520
Total number of batches                      ...     1337
Average number of points per batch           ...       63
Average number of grid points per atom       ...     2561
UseSFitting                                  ... on

Time for X-Grid setup             =    0.718 sec

--------------
SCF ITERATIONS
--------------
ITER       Energy         Delta-E        Max-DP      RMS-DP      [F,P]     Damp
               ***  Starting incremental Fock matrix formation  ***
  0   -668.1900230836   0.000000000000 0.06139237  0.00081116  0.1262508 0.7000
  1   -668.3911213001  -0.201098216486 0.03477911  0.00054345  0.0485354 0.7000
                               ***Turning on DIIS***
  2   -668.4658006585  -0.074679358380 0.04226892  0.00085106  0.0173010 0.0000
  3   -668.5885696661  -0.122769007670 0.02429939  0.00039068  0.0231423 0.0000
  4   -668.6141248142  -0.025555148043 0.00862749  0.00012893  0.0071609 0.0000
  5   -668.6155059608  -0.001381146612 0.00407811  0.00005002  0.0049307 0.0000
  6   -668.6158013015  -0.000295340691 0.00271925  0.00003126  0.0006381 0.0000
               *** Restarting incremental Fock matrix formation ***
                                   *** Resetting DIIS ***
  7   -668.6158322218  -0.000030920355 0.00179361  0.00001640  0.0005515 0.0000
  8   -668.6158207380   0.000011483780 0.00124533  0.00000989  0.0009778 0.0000
  9   -668.6158409650  -0.000020227003 0.00037803  0.00000288  0.0002372 0.0000
 10   -668.6158411938  -0.000000228764 0.00020987  0.00000164  0.0002102 0.0000
 11   -668.6158415962  -0.000000402356 0.00004719  0.00000049  0.0000364 0.0000
 12   -668.6158416237  -0.000000027534 0.00001921  0.00000021  0.0000121 0.0000
 13   -668.6158416139   0.000000009773 0.00000760  0.00000008  0.0000053 0.0000
 14   -668.6158416195  -0.000000005589 0.00000470  0.00000004  0.0000041 0.0000
 15   -668.6158416128   0.000000006678 0.00000180  0.00000002  0.0000019 0.0000
                            ***DIIS convergence achieved***

               *****************************************************
               *                     SUCCESS                       *
               *           SCF CONVERGED AFTER  16 CYCLES          *
               *****************************************************

Old exchange energy                            =    -17.892674498 Eh
New exchange energy                            =    -17.892684493 Eh
Exchange energy change after final integration =     -0.000009995 Eh
Total energy after final integration           =   -668.615851620 Eh
Final COS-X integration done in                =     2.986 sec

----------------
TOTAL SCF ENERGY
----------------

Total Energy       :         -668.61585162 Eh          -18193.96229 eV

Components:
Nuclear Repulsion  :          977.10324313 Eh           26588.33097 eV
Electronic Energy  :        -1645.71909475 Eh          -44782.29326 eV
One Electron Energy:        -2832.88842234 Eh          -77086.81299 eV
Two Electron Energy:         1187.16932759 Eh           32304.51973 eV
Max COSX asymmetry :            0.00000163 Eh               0.00004 eV

Virial components:
Potential Energy   :        -1332.88232942 Eh          -36269.57209 eV
Kinetic Energy     :          664.26647780 Eh           18075.60981 eV
Virial Ratio       :            2.00654763


DFT components:
N(Alpha)           :       54.999875687421 electrons
N(Beta)            :       53.999907956721 electrons
N(Total)           :      108.999783644142 electrons
E(X)               :      -71.061486949899 Eh       
E(C)               :       -4.322577022859 Eh       
E(XC)              :      -75.384063972757 Eh       
DFET-embed. en.    :        0.000000000000 Eh       

---------------
SCF CONVERGENCE
---------------

  Last Energy change         ...   -1.1926e-08  Tolerance :   1.0000e-08
  Last MAX-Density change    ...    0.0000e+00  Tolerance :   1.0000e-07
  Last RMS-Density change    ...    0.0000e+00  Tolerance :   5.0000e-09
  Last DIIS Error            ...    8.7252e-07  Tolerance :   5.0000e-07

             **** THE GBW FILE WAS UPDATED (opt.gbw) ****
             **** DENSITY opt.scfp WAS UPDATED ****
             **** ENERGY FILE WAS UPDATED (opt.en.tmp) ****
----------------------
UHF SPIN CONTAMINATION
----------------------

Warning: in a DFT calculation there is little theoretical justification to 
         calculate <S**2> as in Hartree-Fock theory. We will do it anyways
         but you should keep in mind that the values have only limited relevance

Expectation value of <S**2>     :     0.754006
Ideal value S*(S+1) for S=0.5   :     0.750000
Deviation                       :     0.004006

             **** THE GBW FILE WAS UPDATED (opt.gbw) ****
             **** DENSITY opt.scfp WAS UPDATED ****
----------------
ORBITAL ENERGIES
----------------
                 SPIN UP ORBITALS
  NO   OCC          E(Eh)            E(eV) 
   0   1.0000     -19.248084      -523.7670 
   1   1.0000     -19.229026      -523.2484 
   2   1.0000     -14.583752      -396.8441 
   3   1.0000     -14.487707      -394.2306 
   4   1.0000     -14.473530      -393.8448 
   5   1.0000     -10.431027      -283.8427 
   6   1.0000     -10.408632      -283.2333 
   7   1.0000     -10.400721      -283.0180 
   8   1.0000     -10.367436      -282.1123 
   9   1.0000     -10.355134      -281.7775 
  10   1.0000     -10.328942      -281.0648 
  11   1.0000     -10.326934      -281.0102 
  12   1.0000     -10.313460      -280.6435 
  13   1.0000     -10.304699      -280.4051 
  14   1.0000      -1.177395       -32.0385 
  15   1.0000      -1.161776       -31.6135 
  16   1.0000      -1.139144       -30.9977 
  17   1.0000      -1.059092       -28.8194 
  18   1.0000      -1.038271       -28.2528 
  19   1.0000      -0.950626       -25.8679 
  20   1.0000      -0.912559       -24.8320 
  21   1.0000      -0.864845       -23.5336 
  22   1.0000      -0.840613       -22.8742 
  23   1.0000      -0.805399       -21.9160 
  24   1.0000      -0.775543       -21.1036 
  25   1.0000      -0.743892       -20.2423 
  26   1.0000      -0.731666       -19.9096 
  27   1.0000      -0.711022       -19.3479 
  28   1.0000      -0.706444       -19.2233 
  29   1.0000      -0.689034       -18.7496 
  30   1.0000      -0.657104       -17.8807 
  31   1.0000      -0.641417       -17.4538 
  32   1.0000      -0.617808       -16.8114 
  33   1.0000      -0.613705       -16.6998 
  34   1.0000      -0.597555       -16.2603 
  35   1.0000      -0.585652       -15.9364 
  36   1.0000      -0.573483       -15.6053 
  37   1.0000      -0.566859       -15.4250 
  38   1.0000      -0.563559       -15.3352 
  39   1.0000      -0.548740       -14.9320 
  40   1.0000      -0.539453       -14.6793 
  41   1.0000      -0.532902       -14.5010 
  42   1.0000      -0.525531       -14.3004 
  43   1.0000      -0.513319       -13.9681 
  44   1.0000      -0.503060       -13.6890 
  45   1.0000      -0.495863       -13.4931 
  46   1.0000      -0.490551       -13.3486 
  47   1.0000      -0.487383       -13.2624 
  48   1.0000      -0.477540       -12.9945 
  49   1.0000      -0.473104       -12.8738 
  50   1.0000      -0.401260       -10.9188 
  51   1.0000      -0.397425       -10.8145 
  52   1.0000      -0.378903       -10.3105 
  53   1.0000      -0.369369       -10.0510 
  54   1.0000      -0.355280        -9.6677 
  55   0.0000      -0.134941        -3.6719 
  56   0.0000      -0.117139        -3.1875 
  57   0.0000      -0.100515        -2.7351 
  58   0.0000      -0.094743        -2.5781 
  59   0.0000      -0.085851        -2.3361 
  60   0.0000      -0.084857        -2.3091 
  61   0.0000      -0.070866        -1.9284 
  62   0.0000      -0.061092        -1.6624 
  63   0.0000      -0.046887        -1.2759 
  64   0.0000      -0.043763        -1.1908 
  65   0.0000      -0.035575        -0.9680 
  66   0.0000      -0.029395        -0.7999 
  67   0.0000      -0.024810        -0.6751 
  68   0.0000      -0.013762        -0.3745 
  69   0.0000      -0.002958        -0.0805 
  70   0.0000       0.014750         0.4014 
  71   0.0000       0.027777         0.7559 
  72   0.0000       0.029269         0.7965 
  73   0.0000       0.032097         0.8734 
  74   0.0000       0.044908         1.2220 
  75   0.0000       0.046327         1.2606 
  76   0.0000       0.053260         1.4493 
  77   0.0000       0.057111         1.5541 
  78   0.0000       0.068286         1.8582 
  79   0.0000       0.078256         2.1294 
  80   0.0000       0.085885         2.3370 
  81   0.0000       0.087723         2.3871 
  82   0.0000       0.091358         2.4860 
  83   0.0000       0.103663         2.8208 
  84   0.0000       0.106647         2.9020 
  85   0.0000       0.110531         3.0077 
  86   0.0000       0.116073         3.1585 
  87   0.0000       0.122367         3.3298 
  88   0.0000       0.129985         3.5371 
  89   0.0000       0.141293         3.8448 
  90   0.0000       0.145985         3.9724 
  91   0.0000       0.153483         4.1765 
  92   0.0000       0.156488         4.2582 
  93   0.0000       0.160215         4.3597 
  94   0.0000       0.166694         4.5360 
  95   0.0000       0.170298         4.6340 
  96   0.0000       0.175437         4.7739 
  97   0.0000       0.177633         4.8336 
  98   0.0000       0.186770         5.0823 
  99   0.0000       0.190422         5.1817 
 100   0.0000       0.203865         5.5475 
 101   0.0000       0.206033         5.6064 
 102   0.0000       0.210720         5.7340 
 103   0.0000       0.222996         6.0680 
 104   0.0000       0.229924         6.2566 
 105   0.0000       0.237867         6.4727 
 106   0.0000       0.244206         6.6452 
 107   0.0000       0.258730         7.0404 
 108   0.0000       0.264634         7.2011 
 109   0.0000       0.273141         7.4325 
 110   0.0000       0.284626         7.7451 
 111   0.0000       0.295078         8.0295 
 112   0.0000       0.302553         8.2329 
 113   0.0000       0.311514         8.4767 
 114   0.0000       0.319291         8.6883 
 115   0.0000       0.325064         8.8454 
 116   0.0000       0.333557         9.0765 
 117   0.0000       0.351582         9.5670 
 118   0.0000       0.360450         9.8083 
 119   0.0000       0.363873         9.9015 
 120   0.0000       0.372183        10.1276 
 121   0.0000       0.375375        10.2145 
 122   0.0000       0.398388        10.8407 
 123   0.0000       0.399292        10.8653 
 124   0.0000       0.406661        11.0658 
 125   0.0000       0.415768        11.3136 
 126   0.0000       0.423281        11.5181 
 127   0.0000       0.433810        11.8046 
 128   0.0000       0.466694        12.6994 
 129   0.0000       0.468196        12.7403 
 130   0.0000       0.488155        13.2834 
 131   0.0000       0.501224        13.6390 
 132   0.0000       0.510025        13.8785 
 133   0.0000       0.528962        14.3938 
 134   0.0000       0.542720        14.7682 
 135   0.0000       0.581774        15.8309 
 136   0.0000       0.596842        16.2409 
 137   0.0000       0.604956        16.4617 
 138   0.0000       0.619274        16.8513 
 139   0.0000       0.646490        17.5919 
 140   0.0000       0.673756        18.3338 
 141   0.0000       0.676893        18.4192 
 142   0.0000       0.689190        18.7538 
 143   0.0000       0.695386        18.9224 
 144   0.0000       0.709611        19.3095 
 145   0.0000       0.713913        19.4266 
 146   0.0000       0.725852        19.7514 
 147   0.0000       0.731201        19.8970 
 148   0.0000       0.733669        19.9641 
 149   0.0000       0.747457        20.3393 
 150   0.0000       0.751778        20.4569 
 151   0.0000       0.758117        20.6294 
 152   0.0000       0.768184        20.9033 
 153   0.0000       0.771898        21.0044 
 154   0.0000       0.783532        21.3210 
 155   0.0000       0.784875        21.3575 
 156   0.0000       0.793877        21.6025 
 157   0.0000       0.806357        21.9421 
 158   0.0000       0.815003        22.1774 
 159   0.0000       0.818386        22.2694 
 160   0.0000       0.828647        22.5486 
 161   0.0000       0.835942        22.7471 
 162   0.0000       0.854080        23.2407 
 163   0.0000       0.859297        23.3827 
 164   0.0000       0.864488        23.5239 
 165   0.0000       0.870245        23.6806 
 166   0.0000       0.876413        23.8484 
 167   0.0000       0.896943        24.4071 
 168   0.0000       0.902498        24.5582 
 169   0.0000       0.905439        24.6382 
 170   0.0000       0.910208        24.7680 
 171   0.0000       0.918181        24.9850 
 172   0.0000       0.937616        25.5138 
 173   0.0000       0.950626        25.8678 
 174   0.0000       0.977174        26.5902 
 175   0.0000       0.988315        26.8934 
 176   0.0000       1.003163        27.2975 
 177   0.0000       1.021912        27.8077 
 178   0.0000       1.037584        28.2341 
 179   0.0000       1.045864        28.4594 
 180   0.0000       1.055854        28.7313 
 181   0.0000       1.083287        29.4777 
 182   0.0000       1.087932        29.6041 
 183   0.0000       1.092985        29.7416 
 184   0.0000       1.101363        29.9696 
 185   0.0000       1.131963        30.8023 
 186   0.0000       1.146091        31.1867 
 187   0.0000       1.185575        32.2611 
 188   0.0000       1.192646        32.4535 
 189   0.0000       1.211021        32.9536 
 190   0.0000       1.218785        33.1648 
 191   0.0000       1.237348        33.6700 
 192   0.0000       1.253246        34.1025 
 193   0.0000       1.269943        34.5569 
 194   0.0000       1.288130        35.0518 
 195   0.0000       1.292677        35.1755 
 196   0.0000       1.298156        35.3246 
 197   0.0000       1.306099        35.5408 
 198   0.0000       1.317177        35.8422 
 199   0.0000       1.320083        35.9213 
 200   0.0000       1.323449        36.0129 
 201   0.0000       1.357821        36.9482 
 202   0.0000       1.363795        37.1107 
 203   0.0000       1.375550        37.4306 
 204   0.0000       1.385462        37.7003 
 205   0.0000       1.395385        37.9704 
 206   0.0000       1.407247        38.2931 
 207   0.0000       1.414836        38.4996 
 208   0.0000       1.423033        38.7227 
 209   0.0000       1.428626        38.8749 
 210   0.0000       1.442137        39.2425 
 211   0.0000       1.454560        39.5806 
 212   0.0000       1.456391        39.6304 
 213   0.0000       1.477136        40.1949 
 214   0.0000       1.491610        40.5888 
 215   0.0000       1.498187        40.7677 
 216   0.0000       1.517133        41.2833 
 217   0.0000       1.529340        41.6154 
 218   0.0000       1.531130        41.6642 
 219   0.0000       1.538881        41.8751 
 220   0.0000       1.548708        42.1425 
 221   0.0000       1.555260        42.3208 
 222   0.0000       1.578988        42.9664 
 223   0.0000       1.586435        43.1691 
 224   0.0000       1.595025        43.4028 
 225   0.0000       1.599720        43.5306 
 226   0.0000       1.609474        43.7960 
 227   0.0000       1.621491        44.1230 
 228   0.0000       1.642270        44.6884 
 229   0.0000       1.653440        44.9924 
 230   0.0000       1.665759        45.3276 
 231   0.0000       1.676003        45.6064 
 232   0.0000       1.683601        45.8131 
 233   0.0000       1.688151        45.9369 
 234   0.0000       1.707197        46.4552 
 235   0.0000       1.717258        46.7290 
 236   0.0000       1.724065        46.9142 
 237   0.0000       1.742753        47.4227 
 238   0.0000       1.763258        47.9807 
 239   0.0000       1.780212        48.4420 
 240   0.0000       1.794399        48.8281 
 241   0.0000       1.817835        49.4658 
 242   0.0000       1.830775        49.8179 
 243   0.0000       1.850967        50.3674 
 244   0.0000       1.858174        50.5635 
 245   0.0000       1.888606        51.3916 
 246   0.0000       1.907711        51.9114 
 247   0.0000       1.913687        52.0741 
 248   0.0000       1.917908        52.1889 
 249   0.0000       1.930119        52.5212 
 250   0.0000       1.952930        53.1419 
 251   0.0000       1.962477        53.4017 
 252   0.0000       1.980410        53.8897 
 253   0.0000       1.989458        54.1359 
 254   0.0000       2.024978        55.1025 
 255   0.0000       2.036418        55.4137 
 256   0.0000       2.049652        55.7739 
 257   0.0000       2.054920        55.9172 
 258   0.0000       2.091182        56.9039 
 259   0.0000       2.102608        57.2149 
 260   0.0000       2.119309        57.6693 
 261   0.0000       2.146772        58.4166 
 262   0.0000       2.151816        58.5539 
 263   0.0000       2.164259        58.8925 
 264   0.0000       2.185083        59.4591 
 265   0.0000       2.190429        59.6046 
 266   0.0000       2.226150        60.5766 
 267   0.0000       2.238433        60.9109 
 268   0.0000       2.254561        61.3497 
 269   0.0000       2.272792        61.8458 
 270   0.0000       2.281474        62.0821 
 271   0.0000       2.287803        62.2543 
 272   0.0000       2.295904        62.4747 
 273   0.0000       2.322121        63.1881 
 274   0.0000       2.339376        63.6577 
 275   0.0000       2.350438        63.9587 
 276   0.0000       2.354689        64.0744 
 277   0.0000       2.366992        64.4091 
 278   0.0000       2.368266        64.4438 
 279   0.0000       2.387108        64.9565 
 280   0.0000       2.392350        65.0992 
 281   0.0000       2.405416        65.4547 
 282   0.0000       2.421639        65.8961 
 283   0.0000       2.436082        66.2892 
 284   0.0000       2.471268        67.2466 
 285   0.0000       2.484798        67.6148 
 286   0.0000       2.516000        68.4639 
 287   0.0000       2.533016        68.9269 
 288   0.0000       2.555189        69.5302 
 289   0.0000       2.586827        70.3911 
 290   0.0000       2.603460        70.8438 
 291   0.0000       2.628805        71.5334 
 292   0.0000       2.654507        72.2328 
 293   0.0000       2.664118        72.4943 
 294   0.0000       2.670509        72.6683 
 295   0.0000       2.682743        73.0012 
 296   0.0000       2.722044        74.0706 
 297   0.0000       2.869681        78.0880 
 298   0.0000       2.914572        79.3095 
 299   0.0000       2.998035        81.5807 
 300   0.0000       3.118609        84.8617 
 301   0.0000       3.252802        88.5133 
 302   0.0000       3.310722        90.0893 
 303   0.0000       3.347736        91.0965 
 304   0.0000       3.370943        91.7280 
 305   0.0000       4.714141       128.2783 
 306   0.0000       4.838880       131.6726 
 307   0.0000       4.860500       132.2609 
 308   0.0000       4.873567       132.6165 
 309   0.0000       4.877272       132.7173 
 310   0.0000       4.902276       133.3977 
 311   0.0000       4.906079       133.5012 
 312   0.0000       4.921524       133.9215 
 313   0.0000       4.929730       134.1448 
 314   0.0000       4.957033       134.8877 
 315   0.0000       5.001541       136.0989 
 316   0.0000       5.006102       136.2230 
 317   0.0000       5.026052       136.7658 
 318   0.0000       5.070464       137.9744 
 319   0.0000       5.107393       138.9792 
 320   0.0000       5.128279       139.5476 
 321   0.0000       5.147634       140.0743 
 322   0.0000       5.168303       140.6367 
 323   0.0000       5.172588       140.7533 
 324   0.0000       5.191398       141.2651 
 325   0.0000       5.248246       142.8120 
 326   0.0000       5.269773       143.3978 
 327   0.0000       5.301596       144.2638 
 328   0.0000       5.499449       149.6476 
 329   0.0000       5.551593       151.0665 
 330   0.0000       5.591582       152.1547 
 331   0.0000       5.624139       153.0406 
 332   0.0000       5.696157       155.0003 
 333   0.0000       7.151637       194.6059 
 334   0.0000       7.193272       195.7389 
 335   0.0000       7.227093       196.6592 
 336   0.0000       8.971188       244.1184 
 337   0.0000       9.004732       245.0312 
 338   0.0000      29.442926       801.1827 
 339   0.0000      29.504304       802.8529 
 340   0.0000      29.588283       805.1381 
 341   0.0000      29.746682       809.4484 
 342   0.0000      29.827972       811.6604 
 343   0.0000      29.940988       814.7357 
 344   0.0000      29.969667       815.5161 
 345   0.0000      30.003108       816.4261 
 346   0.0000      30.109328       819.3165 
 347   0.0000      36.311443       988.0846 
 348   0.0000      36.454080       991.9659 
 349   0.0000      36.475998       992.5624 
 350   0.0000      36.491656       992.9884 
 351   0.0000      36.513363       993.5791 
 352   0.0000      36.522653       993.8319 
 353   0.0000      36.525316       993.9044 
 354   0.0000      36.548911       994.5464 
 355   0.0000      36.582907       995.4715 
 356   0.0000      36.589990       995.6643 
 357   0.0000      36.596200       995.8332 
 358   0.0000      36.618516       996.4405 
 359   0.0000      36.648060       997.2444 
 360   0.0000      36.681789       998.1622 
 361   0.0000      36.713737       999.0316 
 362   0.0000      36.749879      1000.0151 
 363   0.0000      36.802116      1001.4365 
 364   0.0000      36.804890      1001.5120 
 365   0.0000      36.809044      1001.6250 
 366   0.0000      41.071629      1117.6158 
 367   0.0000      41.133426      1119.2974 
 368   0.0000      41.169879      1120.2894 
 369   0.0000      53.512024      1456.1362 
 370   0.0000      53.539924      1456.8954 

                 SPIN DOWN ORBITALS
  NO   OCC          E(Eh)            E(eV) 
   0   1.0000     -19.248078      -523.7668 
   1   1.0000     -19.229002      -523.2477 
   2   1.0000     -14.581908      -396.7939 
   3   1.0000     -14.487702      -394.2304 
   4   1.0000     -14.473499      -393.8439 
   5   1.0000     -10.431011      -283.8422 
   6   1.0000     -10.408644      -283.2336 
   7   1.0000     -10.401576      -283.0413 
   8   1.0000     -10.367254      -282.1073 
   9   1.0000     -10.341598      -281.4092 
  10   1.0000     -10.327746      -281.0323 
  11   1.0000     -10.327514      -281.0259 
  12   1.0000     -10.313462      -280.6436 
  13   1.0000     -10.304700      -280.4051 
  14   1.0000      -1.177305       -32.0361 
  15   1.0000      -1.161716       -31.6119 
  16   1.0000      -1.135808       -30.9069 
  17   1.0000      -1.058962       -28.8158 
  18   1.0000      -1.038201       -28.2509 
  19   1.0000      -0.939139       -25.5553 
  20   1.0000      -0.906344       -24.6629 
  21   1.0000      -0.863495       -23.4969 
  22   1.0000      -0.839872       -22.8541 
  23   1.0000      -0.803236       -21.8572 
  24   1.0000      -0.770146       -20.9567 
  25   1.0000      -0.738489       -20.0953 
  26   1.0000      -0.730310       -19.8727 
  27   1.0000      -0.707348       -19.2479 
  28   1.0000      -0.699616       -19.0375 
  29   1.0000      -0.687963       -18.7204 
  30   1.0000      -0.656782       -17.8720 
  31   1.0000      -0.634895       -17.2764 
  32   1.0000      -0.615044       -16.7362 
  33   1.0000      -0.611638       -16.6435 
  34   1.0000      -0.595419       -16.2022 
  35   1.0000      -0.584380       -15.9018 
  36   1.0000      -0.571286       -15.5455 
  37   1.0000      -0.566297       -15.4097 
  38   1.0000      -0.561883       -15.2896 
  39   1.0000      -0.546828       -14.8800 
  40   1.0000      -0.537334       -14.6216 
  41   1.0000      -0.531459       -14.4617 
  42   1.0000      -0.521453       -14.1895 
  43   1.0000      -0.512884       -13.9563 
  44   1.0000      -0.498823       -13.5737 
  45   1.0000      -0.495094       -13.4722 
  46   1.0000      -0.489907       -13.3311 
  47   1.0000      -0.484849       -13.1934 
  48   1.0000      -0.475988       -12.9523 
  49   1.0000      -0.470754       -12.8099 
  50   1.0000      -0.400121       -10.8879 
  51   1.0000      -0.397174       -10.8077 
  52   1.0000      -0.378742       -10.3061 
  53   1.0000      -0.368488       -10.0271 
  54   0.0000      -0.220337        -5.9957 
  55   0.0000      -0.128730        -3.5029 
  56   0.0000      -0.116870        -3.1802 
  57   0.0000      -0.099543        -2.7087 
  58   0.0000      -0.093909        -2.5554 
  59   0.0000      -0.085695        -2.3319 
  60   0.0000      -0.082981        -2.2580 
  61   0.0000      -0.069417        -1.8889 
  62   0.0000      -0.060569        -1.6482 
  63   0.0000      -0.046252        -1.2586 
  64   0.0000      -0.043428        -1.1817 
  65   0.0000      -0.034049        -0.9265 
  66   0.0000      -0.026776        -0.7286 
  67   0.0000      -0.024084        -0.6554 
  68   0.0000      -0.011130        -0.3029 
  69   0.0000       0.000336         0.0092 
  70   0.0000       0.016245         0.4420 
  71   0.0000       0.029176         0.7939 
  72   0.0000       0.031127         0.8470 
  73   0.0000       0.035847         0.9754 
  74   0.0000       0.045571         1.2401 
  75   0.0000       0.047750         1.2993 
  76   0.0000       0.057221         1.5571 
  77   0.0000       0.057754         1.5716 
  78   0.0000       0.068703         1.8695 
  79   0.0000       0.079419         2.1611 
  80   0.0000       0.086898         2.3646 
  81   0.0000       0.088893         2.4189 
  82   0.0000       0.092371         2.5135 
  83   0.0000       0.103812         2.8249 
  84   0.0000       0.108014         2.9392 
  85   0.0000       0.111641         3.0379 
  86   0.0000       0.117433         3.1955 
  87   0.0000       0.126867         3.4522 
  88   0.0000       0.132723         3.6116 
  89   0.0000       0.143707         3.9105 
  90   0.0000       0.146792         3.9944 
  91   0.0000       0.158093         4.3019 
  92   0.0000       0.158873         4.3232 
  93   0.0000       0.161493         4.3945 
  94   0.0000       0.167504         4.5580 
  95   0.0000       0.172280         4.6880 
  96   0.0000       0.177732         4.8363 
  97   0.0000       0.179190         4.8760 
  98   0.0000       0.188083         5.1180 
  99   0.0000       0.193438         5.2637 
 100   0.0000       0.204706         5.5703 
 101   0.0000       0.206789         5.6270 
 102   0.0000       0.211312         5.7501 
 103   0.0000       0.223930         6.0934 
 104   0.0000       0.230495         6.2721 
 105   0.0000       0.240133         6.5343 
 106   0.0000       0.245007         6.6670 
 107   0.0000       0.259721         7.0674 
 108   0.0000       0.266865         7.2618 
 109   0.0000       0.276298         7.5185 
 110   0.0000       0.294533         8.0146 
 111   0.0000       0.302495         8.2313 
 112   0.0000       0.307917         8.3788 
 113   0.0000       0.312911         8.5147 
 114   0.0000       0.322289         8.7699 
 115   0.0000       0.332787         9.0556 
 116   0.0000       0.337087         9.1726 
 117   0.0000       0.354597         9.6491 
 118   0.0000       0.362358         9.8603 
 119   0.0000       0.367264         9.9938 
 120   0.0000       0.376349        10.2410 
 121   0.0000       0.377989        10.2856 
 122   0.0000       0.400051        10.8859 
 123   0.0000       0.401876        10.9356 
 124   0.0000       0.408819        11.1245 
 125   0.0000       0.418258        11.3814 
 126   0.0000       0.424836        11.5604 
 127   0.0000       0.435658        11.8549 
 128   0.0000       0.469178        12.7670 
 129   0.0000       0.469810        12.7842 
 130   0.0000       0.489151        13.3105 
 131   0.0000       0.502426        13.6717 
 132   0.0000       0.512561        13.9475 
 133   0.0000       0.530034        14.4229 
 134   0.0000       0.543090        14.7782 
 135   0.0000       0.582145        15.8410 
 136   0.0000       0.598610        16.2890 
 137   0.0000       0.607500        16.5309 
 138   0.0000       0.622546        16.9403 
 139   0.0000       0.647265        17.6130 
 140   0.0000       0.674970        18.3669 
 141   0.0000       0.680378        18.5140 
 142   0.0000       0.691673        18.8214 
 143   0.0000       0.695991        18.9389 
 144   0.0000       0.710175        19.3249 
 145   0.0000       0.715006        19.4563 
 146   0.0000       0.726291        19.7634 
 147   0.0000       0.732670        19.9370 
 148   0.0000       0.737087        20.0572 
 149   0.0000       0.748051        20.3555 
 150   0.0000       0.752463        20.4756 
 151   0.0000       0.759198        20.6588 
 152   0.0000       0.770358        20.9625 
 153   0.0000       0.773173        21.0391 
 154   0.0000       0.784441        21.3457 
 155   0.0000       0.788593        21.4587 
 156   0.0000       0.795664        21.6511 
 157   0.0000       0.807548        21.9745 
 158   0.0000       0.816200        22.2099 
 159   0.0000       0.819231        22.2924 
 160   0.0000       0.831335        22.6218 
 161   0.0000       0.836633        22.7659 
 162   0.0000       0.855075        23.2678 
 163   0.0000       0.862787        23.4776 
 164   0.0000       0.866357        23.5748 
 165   0.0000       0.870747        23.6942 
 166   0.0000       0.878714        23.9110 
 167   0.0000       0.899820        24.4853 
 168   0.0000       0.905184        24.6313 
 169   0.0000       0.907012        24.6810 
 170   0.0000       0.912105        24.8196 
 171   0.0000       0.919091        25.0097 
 172   0.0000       0.940151        25.5828 
 173   0.0000       0.954447        25.9718 
 174   0.0000       0.979799        26.6617 
 175   0.0000       0.989811        26.9341 
 176   0.0000       1.005704        27.3666 
 177   0.0000       1.022657        27.8279 
 178   0.0000       1.041419        28.3385 
 179   0.0000       1.049547        28.5596 
 180   0.0000       1.059023        28.8175 
 181   0.0000       1.083941        29.4955 
 182   0.0000       1.089167        29.6377 
 183   0.0000       1.093341        29.7513 
 184   0.0000       1.103346        30.0236 
 185   0.0000       1.140228        31.0272 
 186   0.0000       1.148781        31.2599 
 187   0.0000       1.187629        32.3170 
 188   0.0000       1.197211        32.5778 
 189   0.0000       1.212216        32.9861 
 190   0.0000       1.219151        33.1748 
 191   0.0000       1.238822        33.7101 
 192   0.0000       1.255837        34.1731 
 193   0.0000       1.273110        34.6431 
 194   0.0000       1.289061        35.0771 
 195   0.0000       1.294754        35.2320 
 196   0.0000       1.299479        35.3606 
 197   0.0000       1.309901        35.6442 
 198   0.0000       1.317719        35.8570 
 199   0.0000       1.320409        35.9301 
 200   0.0000       1.331741        36.2385 
 201   0.0000       1.361199        37.0401 
 202   0.0000       1.367348        37.2074 
 203   0.0000       1.376297        37.4509 
 204   0.0000       1.386602        37.7314 
 205   0.0000       1.395757        37.9805 
 206   0.0000       1.409409        38.3520 
 207   0.0000       1.418978        38.6124 
 208   0.0000       1.425421        38.7877 
 209   0.0000       1.429965        38.9113 
 210   0.0000       1.445868        39.3441 
[...]
      px      :     1.060545
      py      :     1.000999
      dz2     :     0.064245  d :     0.200605
      dxz     :     0.034512
      dyz     :     0.043581
      dx2y2   :     0.036640
      dxy     :     0.021627
  8 N s       :     3.060202  s :     3.060202
      pz      :     1.184303  p :     3.587489
      px      :     1.175125
      py      :     1.228061
      dz2     :     0.010406  d :     0.049136
      dxz     :     0.014395
      dyz     :     0.010281
      dx2y2   :     0.007785
      dxy     :     0.006269
  9 H s       :     0.860615  s :     0.860615
      pz      :     0.013154  p :     0.081641
      px      :     0.020326
      py      :     0.048161
 10 H s       :     0.854218  s :     0.854218
      pz      :     0.018323  p :     0.080981
      px      :     0.047471
      py      :     0.015187
 11 H s       :     0.758345  s :     0.758345
      pz      :     0.044730  p :     0.132167
      px      :     0.044599
      py      :     0.042838
 12 H s       :     0.688565  s :     0.688565
      pz      :     0.021927  p :     0.213937
      px      :     0.043867
      py      :     0.148143
 13 H s       :     0.737332  s :     0.737332
      pz      :     0.071054  p :     0.157181
      px      :     0.037824
      py      :     0.048302
 14 C s       :     2.844303  s :     2.844303
      pz      :     0.884272  p :     2.748809
      px      :     1.028474
      py      :     0.836063
      dz2     :     0.124969  d :     0.479206
      dxz     :     0.098741
      dyz     :     0.083806
      dx2y2   :     0.097080
      dxy     :     0.074610
 15 N s       :     3.063539  s :     3.063539
      pz      :     1.189468  p :     3.803472
      px      :     1.165329
      py      :     1.448675
      dz2     :     0.016738  d :     0.081062
      dxz     :     0.028632
      dyz     :     0.010256
      dx2y2   :     0.014316
      dxy     :     0.011120
 16 H s       :     0.772329  s :     0.772329
      pz      :     0.050576  p :     0.145221
      px      :     0.053278
      py      :     0.041366
 17 O s       :     3.556700  s :     3.556700
      pz      :     1.525013  p :     4.652320
      px      :     1.668752
      py      :     1.458555
      dz2     :     0.005151  d :     0.028026
      dxz     :     0.007113
      dyz     :     0.007501
      dx2y2   :     0.003280
      dxy     :     0.004981
 18 H s       :     0.757181  s :     0.757181
      pz      :     0.035433  p :     0.132169
      px      :     0.068702
      py      :     0.028034
 19 C s       :     2.856193  s :     2.856193
      pz      :     0.899938  p :     2.960745
      px      :     1.049558
      py      :     1.011249
      dz2     :     0.042383  d :     0.154275
      dxz     :     0.031840
      dyz     :     0.038290
      dx2y2   :     0.033701
      dxy     :     0.008060
 20 H s       :     0.879717  s :     0.879717
      pz      :     0.013208  p :     0.080093
      px      :     0.016968
      py      :     0.049917
 21 H s       :     0.882234  s :     0.882234
      pz      :     0.019672  p :     0.079851
      px      :     0.041357
      py      :     0.018823
 22 H s       :     0.860176  s :     0.860176
      pz      :     0.026939  p :     0.083718
      px      :     0.038659
      py      :     0.018120
 23 C s       :     2.864800  s :     2.864800
      pz      :     1.041271  p :     3.049716
      px      :     0.969134
      py      :     1.039311
      dz2     :     0.021327  d :     0.105339
      dxz     :     0.016002
      dyz     :     0.015191
      dx2y2   :     0.034096
      dxy     :     0.018721
 24 H s       :     0.862683  s :     0.862683
      pz      :     0.017364  p :     0.081525
      px      :     0.020757
      py      :     0.043403
 25 H s       :     0.850448  s :     0.850448
      pz      :     0.040922  p :     0.082380
      px      :     0.017708
      py      :     0.023750
 26 H s       :     0.872237  s :     0.872237
      pz      :     0.035254  p :     0.082189
      px      :     0.021834
      py      :     0.025101
 27 H s       :     0.848160  s :     0.848160
      pz      :     0.031873  p :     0.081718
      px      :     0.017603
      py      :     0.032242
 28 H s       :     0.866825  s :     0.866825
      pz      :     0.020582  p :     0.082393
      px      :     0.044368
      py      :     0.017444
 29 H s       :     0.869752  s :     0.869752
      pz      :     0.048899  p :     0.084717
      px      :     0.018561
      py      :     0.017258
 30 H s       :     0.854069  s :     0.854069
      pz      :     0.045914  p :     0.081494
      px      :     0.019803
      py      :     0.015778
 31 H s       :     0.858209  s :     0.858209
      pz      :     0.017055  p :     0.082567
      px      :     0.049266
      py      :     0.016246
 32 H s       :     0.857303  s :     0.857303
      pz      :     0.020991  p :     0.091299
      px      :     0.048382
      py      :     0.021925

SPIN
  0 N s       :    -0.000032  s :    -0.000032
      pz      :    -0.000034  p :     0.000044
      px      :    -0.000005
      py      :     0.000083
      dz2     :     0.000021  d :     0.000123
      dxz     :     0.000001
      dyz     :     0.000009
      dx2y2   :     0.000004
      dxy     :     0.000088
  1 C s       :     0.000502  s :     0.000502
      pz      :     0.000111  p :     0.005483
      px      :     0.001337
      py      :     0.004035
      dz2     :    -0.000017  d :     0.000932
      dxz     :     0.000008
      dyz     :     0.000036
      dx2y2   :     0.000911
      dxy     :    -0.000005
  2 C s       :    -0.000028  s :    -0.000028
      pz      :    -0.000012  p :    -0.000248
      px      :    -0.000054
      py      :    -0.000183
      dz2     :     0.000136  d :     0.000298
      dxz     :     0.000026
      dyz     :     0.000132
      dx2y2   :     0.000017
      dxy     :    -0.000013
  3 O s       :     0.000017  s :     0.000017
      pz      :     0.000365  p :     0.000694
      px      :     0.000053
      py      :     0.000276
      dz2     :    -0.000001  d :    -0.000005
      dxz     :    -0.000001
      dyz     :    -0.000001
      dx2y2   :    -0.000001
      dxy     :    -0.000002
  4 C s       :     0.013306  s :     0.013306
      pz      :     0.003602  p :     0.036559
      px      :     0.005713
      py      :     0.027244
      dz2     :    -0.000309  d :    -0.000056
      dxz     :    -0.000072
      dyz     :     0.000155
      dx2y2   :    -0.000182
      dxy     :     0.000353
  5 C s       :    -0.003543  s :    -0.003543
      pz      :    -0.003989  p :    -0.019322
      px      :    -0.003895
      py      :    -0.011438
      dz2     :     0.007905  d :     0.031031
      dxz     :     0.000582
      dyz     :     0.010656
      dx2y2   :     0.009466
      dxy     :     0.002423
  6 C s       :     0.026032  s :     0.026032
      pz      :     0.464958  p :     0.772653
      px      :     0.096741
      py      :     0.210954
      dz2     :    -0.000209  d :    -0.003764
      dxz     :    -0.000989
      dyz     :    -0.001539
      dx2y2   :    -0.000367
      dxy     :    -0.000660
  7 C s       :    -0.001848  s :    -0.001848
      pz      :     0.003403  p :    -0.010024
      px      :    -0.007516
      py      :    -0.005910
      dz2     :     0.029176  d :     0.041336
      dxz     :     0.004637
      dyz     :     0.001859
      dx2y2   :     0.000843
      dxy     :     0.004820
  8 N s       :     0.023638  s :     0.023638
      pz      :     0.025445  p :     0.034762
      px      :     0.003112
      py      :     0.006204
      dz2     :     0.000102  d :     0.000106
      dxz     :    -0.000038
      dyz     :    -0.000066
      dx2y2   :    -0.000019
      dxy     :     0.000126
  9 H s       :     0.002154  s :     0.002154
      pz      :    -0.000230  p :    -0.000645
      px      :    -0.000279
      py      :    -0.000136
 10 H s       :     0.014775  s :     0.014775
      pz      :    -0.000018  p :    -0.000525
      px      :    -0.000340
      py      :    -0.000166
 11 H s       :     0.003121  s :     0.003121
      pz      :     0.001680  p :     0.002043
      px      :     0.000302
      py      :     0.000061
 12 H s       :    -0.000970  s :    -0.000970
      pz      :     0.000576  p :     0.001179
      px      :     0.000069
      py      :     0.000533
 13 H s       :    -0.000015  s :    -0.000015
      pz      :    -0.000005  p :    -0.000004
      px      :    -0.000006
      py      :     0.000008
 14 C s       :     0.000106  s :     0.000106
      pz      :     0.000514  p :     0.000830
      px      :     0.000033
      py      :     0.000283
      dz2     :     0.000058  d :     0.000042
      dxz     :    -0.000005
      dyz     :    -0.000011
      dx2y2   :    -0.000003
      dxy     :     0.000004
 15 N s       :     0.000035  s :     0.000035
      pz      :     0.000133  p :     0.001198
      px      :     0.000175
      py      :     0.000890
      dz2     :    -0.000002  d :    -0.000015
      dxz     :    -0.000004
      dyz     :    -0.000003
      dx2y2   :    -0.000003
      dxy     :    -0.000004
 16 H s       :    -0.000033  s :    -0.000033
      pz      :     0.000024  p :     0.000033
      px      :     0.000001
      py      :     0.000008
 17 O s       :     0.000076  s :     0.000076
      pz      :     0.000233  p :     0.000085
      px      :    -0.000040
      py      :    -0.000108
      dz2     :     0.000001  d :     0.000002
      dxz     :     0.000000
      dyz     :     0.000002
      dx2y2   :    -0.000001
      dxy     :    -0.000001
 18 H s       :    -0.000657  s :    -0.000657
      pz      :     0.001152  p :     0.002103
      px      :     0.000552
      py      :     0.000399
 19 C s       :    -0.000009  s :    -0.000009
      pz      :    -0.000043  p :    -0.000059
      px      :    -0.000009
      py      :    -0.000007
      dz2     :     0.000014  d :     0.000066
      dxz     :     0.000011
      dyz     :     0.000014
      dx2y2   :     0.000026
      dxy     :     0.000001
 20 H s       :     0.000081  s :     0.000081
      pz      :    -0.000001  p :    -0.000003
      px      :    -0.000000
      py      :    -0.000002
 21 H s       :     0.000046  s :     0.000046
      pz      :    -0.000001  p :    -0.000003
      px      :    -0.000001
      py      :    -0.000001
 22 H s       :     0.000001  s :     0.000001
      pz      :    -0.000001  p :    -0.000002
      px      :    -0.000000
      py      :    -0.000001
 23 C s       :     0.000021  s :     0.000021
      pz      :    -0.000000  p :    -0.000038
      px      :    -0.000028
      py      :    -0.000010
      dz2     :     0.000004  d :     0.000037
      dxz     :     0.000020
      dyz     :     0.000002
      dx2y2   :     0.000002
      dxy     :     0.000009
 24 H s       :     0.000008  s :     0.000008
      pz      :    -0.000000  p :     0.000001
      px      :    -0.000001
      py      :     0.000002
 25 H s       :     0.000056  s :     0.000056
      pz      :    -0.000001  p :    -0.000001
      px      :     0.000000
      py      :     0.000000
 26 H s       :     0.000003  s :     0.000003
      pz      :    -0.000000  p :    -0.000002
      px      :    -0.000001
      py      :    -0.000000
 27 H s       :     0.001061  s :     0.001061
      pz      :     0.000020  p :     0.000345
      px      :     0.000120
      py      :     0.000205
 28 H s       :    -0.001261  s :    -0.001261
      pz      :     0.000059  p :     0.001163
      px      :     0.000224
      py      :     0.000881
 29 H s       :    -0.000872  s :    -0.000872
      pz      :     0.001101  p :     0.001140
      px      :     0.000176
      py      :    -0.000138
 30 H s       :     0.016387  s :     0.016387
      pz      :    -0.000415  p :    -0.000939
      px      :     0.000055
      py      :    -0.000579
 31 H s       :     0.004688  s :     0.004688
      pz      :     0.000085  p :    -0.000600
      px      :    -0.000199
      py      :    -0.000486
 32 H s       :    -0.020348  s :    -0.020348
      pz      :     0.013481  p :     0.025469
      px      :     0.005532
      py      :     0.006456


                      *****************************
                      * MAYER POPULATION ANALYSIS *
                      *****************************

  NA   - Mulliken gross atomic population
  ZA   - Total nuclear charge
  QA   - Mulliken gross atomic charge
  VA   - Mayer's total valence
  BVA  - Mayer's bonded valence
  FA   - Mayer's free valence

  ATOM       NA         ZA         QA         VA         BVA        FA
  0 N      7.0621     7.0000    -0.0621     3.4035     3.4035     0.0000
  1 C      6.0764     6.0000    -0.0764     3.9467     3.9467     0.0000
  2 C      5.9143     6.0000     0.0857     4.0580     4.0580     0.0000
  3 O      8.3167     8.0000    -0.3167     2.1441     2.1441     0.0000
  4 C      6.2864     6.0000    -0.2864     4.0060     4.0028     0.0032
  5 C      6.2426     6.0000    -0.2426     3.9701     3.9682     0.0019
  6 C      6.0880     6.0000    -0.0880     3.7921     3.0706     0.7214
  7 C      6.2957     6.0000    -0.2957     3.8728     3.8702     0.0026
  8 N      7.3798     7.0000    -0.3798     3.4613     3.4579     0.0034
  9 H      0.7971     1.0000     0.2029     0.9442     0.9442     0.0000
 10 H      0.7927     1.0000     0.2073     0.9488     0.9484     0.0004
 11 H      0.6878     1.0000     0.3122     0.9062     0.9062     0.0001
 12 H      0.6591     1.0000     0.3409     0.9320     0.9320     0.0000
 13 H      0.7286     1.0000     0.2714     0.9658     0.9658     0.0000
 14 C      5.8590     6.0000     0.1410     4.0121     4.0121     0.0000
 15 N      7.0932     7.0000    -0.0932     3.2165     3.2165     0.0000
 16 H      0.7647     1.0000     0.2353     0.9589     0.9589     0.0000
 17 O      8.3745     8.0000    -0.3745     2.0272     2.0272     0.0000
 18 H      0.6877     1.0000     0.3123     0.9071     0.9071     0.0000
 19 C      6.4401     6.0000    -0.4401     3.8799     3.8799     0.0000
 20 H      0.8154     1.0000     0.1846     0.9504     0.9504     0.0000
 21 H      0.8318     1.0000     0.1682     0.9582     0.9582     0.0000
 22 H      0.7969     1.0000     0.2031     0.9598     0.9598     0.0000
 23 C      6.5144     6.0000    -0.5144     3.8561     3.8561    -0.0000
 24 H      0.8225     1.0000     0.1775     0.9623     0.9623     0.0000
 25 H      0.7958     1.0000     0.2042     0.9525     0.9525     0.0000
 26 H      0.8301     1.0000     0.1699     0.9670     0.9670     0.0000
 27 H      0.8286     1.0000     0.1714     0.9472     0.9472     0.0000
 28 H      0.8465     1.0000     0.1535     0.9675     0.9675     0.0000
 29 H      0.8543     1.0000     0.1457     0.9708     0.9708     0.0000
 30 H      0.8294     1.0000     0.1706     0.9606     0.9602     0.0004
 31 H      0.8478     1.0000     0.1522     0.9768     0.9767     0.0000
 32 H      0.8400     1.0000     0.1600     0.9690     0.9663     0.0027

  Mayer bond orders larger than 0.100000
B(  0-N ,  1-C ) :   1.0211 B(  0-N , 13-H ) :   0.8701 B(  0-N , 14-C ) :   1.3387 
B(  1-C ,  2-C ) :   0.9034 B(  1-C ,  4-C ) :   0.9666 B(  1-C , 27-H ) :   0.9440 
B(  2-C ,  3-O ) :   1.8631 B(  2-C , 15-N ) :   1.2210 B(  4-C ,  5-C ) :   0.9445 
B(  4-C , 28-H ) :   0.9696 B(  4-C , 29-H ) :   0.9612 B(  5-C ,  6-C ) :   1.0158 
B(  5-C , 30-H ) :   0.9482 B(  5-C , 31-H ) :   0.9617 B(  6-C ,  7-C ) :   1.0117 
B(  6-C , 32-H ) :   0.9699 B(  7-C ,  8-N ) :   0.8959 B(  7-C ,  9-H ) :   0.9526 
B(  7-C , 10-H ) :   0.9492 B(  8-N , 11-H ) :   0.8995 B(  8-N , 12-H ) :   0.7283 
B(  8-N , 18-H ) :   0.9022 B( 12-H , 17-O ) :   0.1857 B( 14-C , 17-O ) :   1.6408 
B( 14-C , 23-C ) :   0.9383 B( 15-N , 16-H ) :   0.9263 B( 15-N , 19-C ) :   0.9568 
B( 19-C , 20-H ) :   0.9536 B( 19-C , 21-H ) :   0.9578 B( 19-C , 22-H ) :   0.9443 
B( 23-C , 24-H ) :   0.9539 B( 23-C , 25-H ) :   0.9442 B( 23-C , 26-H ) :   0.9690 


-------
TIMINGS
-------

Total SCF time: 0 days 0 hours 0 min 16 sec 

Total time                  ....      16.526 sec
Sum of individual times     ....      15.702 sec  ( 95.0%)

Fock matrix formation       ....      13.605 sec  ( 82.3%)
  Split-RI-J                ....       1.103 sec  (  8.1% of F)
  Chain of spheres X        ....       9.726 sec  ( 71.5% of F)
  XC integration            ....       2.511 sec  ( 18.5% of F)
    Basis function eval.    ....       0.278 sec  ( 11.1% of XC)
    Density eval.           ....       0.403 sec  ( 16.1% of XC)
    XC-Functional eval.     ....       0.066 sec  (  2.6% of XC)
    XC-Potential eval.      ....       0.238 sec  (  9.5% of XC)
Diagonalization             ....       0.410 sec  (  2.5%)
Density matrix formation    ....       0.019 sec  (  0.1%)
Population analysis         ....       0.073 sec  (  0.4%)
Initial guess               ....       0.060 sec  (  0.4%)
Orbital Transformation      ....       0.000 sec  (  0.0%)
Orbital Orthonormalization  ....       0.044 sec  (  0.3%)
DIIS solution               ....       0.194 sec  (  1.2%)
Grid generation             ....       1.340 sec  (  8.1%)

Maximum memory used throughout the entire SCF-calculation: 86.5 MB

-------------------------   --------------------
FINAL SINGLE POINT ENERGY      -668.617729381913
-------------------------   --------------------

                                *** OPTIMIZATION RUN DONE ***

                            ***************************************
                            *     ORCA property calculations      *
                            ***************************************

                                    ---------------------
                                    Active property flags
                                    ---------------------
   (+) Dipole Moment


------------------------------------------------------------------------------
                       ORCA ELECTRIC PROPERTIES CALCULATION
------------------------------------------------------------------------------

Dipole Moment Calculation                       ... on
Quadrupole Moment Calculation                   ... off
Polarizability Calculation                      ... off
GBWName                                         ... opt.gbw
Electron density                                ... opt.scfp
The origin for moment calculation is the CENTER OF MASS  = (-12.331685,  4.277652  0.489908)

-------------
DIPOLE MOMENT
-------------
                                X             Y             Z
Electronic contribution:     -1.55370      -3.72703      -0.46923
Nuclear contribution   :      2.52794       6.37397      -1.53277
                        -----------------------------------------
Total Dipole Moment    :      0.97424       2.64694      -2.00200
                        -----------------------------------------
Magnitude (a.u.)       :      3.45882
Magnitude (Debye)      :      8.79163



--------------------
Rotational spectrum 
--------------------
 
Rotational constants in cm-1:     0.031058     0.013705     0.010579 
Rotational constants in MHz :   931.081764   410.874408   317.140280 

 Dipole components along the rotational axes: 
x,y,z [a.u.] :    -2.960106     1.563050    -0.870686 
x,y,z [Debye]:    -7.523990     3.972958    -2.213108 

 

Timings for individual modules:

Sum of individual times         ...      865.784 sec (=  14.430 min)
GTO integral calculation        ...       67.084 sec (=   1.118 min)   7.7 %
SCF iterations                  ...      585.668 sec (=   9.761 min)  67.6 %
SCF Gradient evaluation         ...      211.837 sec (=   3.531 min)  24.5 %
Geometry relaxation             ...        1.195 sec (=   0.020 min)   0.1 %
                             ****ORCA TERMINATED NORMALLY****
TOTAL RUN TIME: 0 days 0 hours 15 minutes 26 seconds 716 msec
