
                                 *****************
                                 * O   R   C   A *
                                 *****************

                                            #,                                       
                                            ###                                      
                                            ####                                     
                                            #####                                    
                                            ######                                   
                                           ########,                                 
                                     ,,################,,,,,                         
                               ,,#################################,,                 
                          ,,##########################################,,             
                       ,#########################################, ''#####,          
                    ,#############################################,,   '####,        
                  ,##################################################,,,,####,       
                ,###########''''           ''''###############################       
              ,#####''   ,,,,##########,,,,          '''####'''          '####       
            ,##' ,,,,###########################,,,                        '##       
           ' ,,###''''                  '''############,,,                           
         ,,##''                                '''############,,,,        ,,,,,,###''
      ,#''                                            '''#######################'''  
     '                                                          ''''####''''         
             ,#######,   #######,   ,#######,      ##                                
            ,#'     '#,  ##    ##  ,#'     '#,    #''#        ######   ,####,        
            ##       ##  ##   ,#'  ##            #'  '#       #        #'  '#        
            ##       ##  #######   ##           ,######,      #####,   #    #        
            '#,     ,#'  ##    ##  '#,     ,#' ,#      #,         ##   #,  ,#        
             '#######'   ##     ##  '#######'  #'      '#     #####' # '####'        



                  #######################################################
                  #                        -***-                        #
                  #          Department of theory and spectroscopy      #
                  #    Directorship and core code : Frank Neese         #
                  #        Max Planck Institute fuer Kohlenforschung    #
                  #                Kaiser Wilhelm Platz 1               #
                  #                 D-45470 Muelheim/Ruhr               #
                  #                      Germany                        #
                  #                                                     #
                  #                  All rights reserved                #
                  #                        -***-                        #
                  #######################################################


                         Program Version 5.0.4 -  RELEASE  -


 With contributions from (in alphabetic order):
   Daniel Aravena         : Magnetic Suceptibility
   Michael Atanasov       : Ab Initio Ligand Field Theory (pilot matlab implementation)
   Alexander A. Auer      : GIAO ZORA, VPT2 properties, NMR spectrum
   Ute Becker             : Parallelization
   Giovanni Bistoni       : ED, misc. LED, open-shell LED, HFLD
   Martin Brehm           : Molecular dynamics
   Dmytro Bykov           : SCF Hessian
   Vijay G. Chilkuri      : MRCI spin determinant printing, contributions to CSF-ICE
   Dipayan Datta          : RHF DLPNO-CCSD density
   Achintya Kumar Dutta   : EOM-CC, STEOM-CC
   Dmitry Ganyushin       : Spin-Orbit,Spin-Spin,Magnetic field MRCI
   Miquel Garcia          : C-PCM and meta-GGA Hessian, CC/C-PCM, Gaussian charge scheme
   Yang Guo               : DLPNO-NEVPT2, F12-NEVPT2, CIM, IAO-localization
   Andreas Hansen         : Spin unrestricted coupled pair/coupled cluster methods
   Benjamin Helmich-Paris : MC-RPA, TRAH-SCF, COSX integrals
   Lee Huntington         : MR-EOM, pCC
   Robert Izsak           : Overlap fitted RIJCOSX, COSX-SCS-MP3, EOM
   Marcus Kettner         : VPT2
   Christian Kollmar      : KDIIS, OOCD, Brueckner-CCSD(T), CCSD density, CASPT2, CASPT2-K
   Simone Kossmann        : Meta GGA functionals, TD-DFT gradient, OOMP2, MP2 Hessian
   Martin Krupicka        : Initial AUTO-CI
   Lucas Lang             : DCDCAS
   Marvin Lechner         : AUTO-CI (C++ implementation), FIC-MRCC
   Dagmar Lenk            : GEPOL surface, SMD
   Dimitrios Liakos       : Extrapolation schemes; Compound Job, initial MDCI parallelization
   Dimitrios Manganas     : Further ROCIS development; embedding schemes
   Dimitrios Pantazis     : SARC Basis sets
   Anastasios Papadopoulos: AUTO-CI, single reference methods and gradients
   Taras Petrenko         : DFT Hessian,TD-DFT gradient, ASA, ECA, R-Raman, ABS, FL, XAS/XES, NRVS
   Peter Pinski           : DLPNO-MP2, DLPNO-MP2 Gradient
   Christoph Reimann      : Effective Core Potentials
   Marius Retegan         : Local ZFS, SOC
   Christoph Riplinger    : Optimizer, TS searches, QM/MM, DLPNO-CCSD(T), (RO)-DLPNO pert. Triples
   Tobias Risthaus        : Range-separated hybrids, TD-DFT gradient, RPA, STAB
   Michael Roemelt        : Original ROCIS implementation
   Masaaki Saitow         : Open-shell DLPNO-CCSD energy and density
   Barbara Sandhoefer     : DKH picture change effects
   Avijit Sen             : IP-ROCIS
   Kantharuban Sivalingam : CASSCF convergence, NEVPT2, FIC-MRCI
   Bernardo de Souza      : ESD, SOC TD-DFT
   Georgi Stoychev        : AutoAux, RI-MP2 NMR, DLPNO-MP2 response
   Willem Van den Heuvel  : Paramagnetic NMR
   Boris Wezisla          : Elementary symmetry handling
   Frank Wennmohs         : Technical directorship


 We gratefully acknowledge several colleagues who have allowed us to
 interface, adapt or use parts of their codes:
   Stefan Grimme, W. Hujo, H. Kruse, P. Pracht,  : VdW corrections, initial TS optimization,
                  C. Bannwarth, S. Ehlert          DFT functionals, gCP, sTDA/sTD-DF
   Ed Valeev, F. Pavosevic, A. Kumar             : LibInt (2-el integral package), F12 methods
   Garnet Chan, S. Sharma, J. Yang, R. Olivares  : DMRG
   Ulf Ekstrom                                   : XCFun DFT Library
   Mihaly Kallay                                 : mrcc  (arbitrary order and MRCC methods)
   Jiri Pittner, Ondrej Demel                    : Mk-CCSD
   Frank Weinhold                                : gennbo (NPA and NBO analysis)
   Christopher J. Cramer and Donald G. Truhlar   : smd solvation model
   Lars Goerigk                                  : TD-DFT with DH, B97 family of functionals
   V. Asgeirsson, H. Jonsson                     : NEB implementation
   FAccTs GmbH                                   : IRC, NEB, NEB-TS, DLPNO-Multilevel, CI-OPT
                                                   MM, QMMM, 2- and 3-layer-ONIOM, Crystal-QMMM,
                                                   LR-CPCM, SF, NACMEs, symmetry and pop. for TD-DFT,
                                                   nearIR, NL-DFT gradient (VV10), updates on ESD,
                                                   ML-optimized integration grids
   S Lehtola, MJT Oliveira, MAL Marques          : LibXC Library
   Liviu Ungur et al                             : ANISO software


 Your calculation uses the libint2 library for the computation of 2-el integrals
 For citations please refer to: http://libint.valeyev.net

 Your ORCA version has been built with support for libXC version: 5.1.0
 For citations please refer to: https://tddft.org/programs/libxc/

 This ORCA versions uses:
   CBLAS   interface :  Fast vector & matrix operations
   LAPACKE interface :  Fast linear algebra routines
   SCALAPACK package :  Parallel linear algebra routines
   Shared memory     :  Shared parallel matrices
   BLAS/LAPACK       :  OpenBLAS 0.3.15  USE64BITINT DYNAMIC_ARCH NO_AFFINITY Zen SINGLE_THREADED
        Core in use  :  Zen
   Copyright (c) 2011-2014, The OpenBLAS Project




***************************************
The coordinates will be read from file: opt.xyz
***************************************


XCFun DFT library Copyright 2009-2010 Ulf Ekstrom and contributors.
See http://admol.org/xcfun for more information.
This is free software; see the source code for copying conditions.
There is ABSOLUTELY NO WARRANTY; not even for MERCHANTABILITY or FITNESS FOR A PARTICULAR PURPOSE.
For details see the documentation.
Scientific users of this library should cite U. Ekstrom, L. Visscher, R. Bast, A. J. Thorvaldsen and K. Ruud;
J.Chem.Theor.Comp. 2010, DOI: 10.1021/ct100117s
XCFun Version 0.99 

================================================================================

----- Orbital basis set information -----
Your calculation utilizes the basis: def2-TZVP
   F. Weigend and R. Ahlrichs, Phys. Chem. Chem. Phys. 7, 3297 (2005).

----- AuxJ basis set information -----
Your calculation utilizes the auxiliary basis: def2/J
   F. Weigend, Phys. Chem. Chem. Phys. 8, 1057 (2006).

================================================================================
                                        WARNINGS
                       Please study these warnings very carefully!
================================================================================


WARNING: your system is open-shell and RHF/RKS was chosen
  ===> : WILL SWITCH to UHF/UKS


WARNING: Geometry Optimization
  ===> : Switching off AutoStart
         For restart on a previous wavefunction, please use MOREAD

WARNING: Minnesota functionals are quite sensitive to the integration grid.
         see SE Wheeler, KN Houk, JCTC 2010, 6, 395,
             N Mardirossian, M Head-Gordon, JCTC 2016, 12, 4303.
         DEFGRID3 seems to be a minimum grid for reliable results with these functionals!
  ===> : Please increase the integration grid!


INFO   : the flag for use of the SHARK integral package has been found!

================================================================================
                                       INPUT FILE
================================================================================
NAME = freq.inp
|  1> ! M062X def2-TZVP OPT FREQ
|  2> %pal nprocs 16 end
|  3> *XYZFile 1 2 opt.xyz
|  4> 
|  5>                          ****END OF INPUT****
================================================================================

                       *****************************
                       * Geometry Optimization Run *
                       *****************************

Geometry optimization settings:
Update method            Update   .... BFGS
Choice of coordinates    CoordSys .... Z-matrix Internals
Initial Hessian          InHess   .... Almoef's Model

Convergence Tolerances:
Energy Change            TolE     ....  5.0000e-06 Eh
Max. Gradient            TolMAXG  ....  3.0000e-04 Eh/bohr
RMS Gradient             TolRMSG  ....  1.0000e-04 Eh/bohr
Max. Displacement        TolMAXD  ....  4.0000e-03 bohr
RMS Displacement         TolRMSD  ....  2.0000e-03 bohr
Strict Convergence                ....  False
------------------------------------------------------------------------------
                        ORCA OPTIMIZATION COORDINATE SETUP
------------------------------------------------------------------------------

The optimization will be done in new redundant internal coordinates
Making redundant internal coordinates   ...  (new redundants) done
Evaluating the initial hessian          ...  (Almloef) done
Evaluating the coordinates              ...  done
Calculating the B-matrix                .... done
Calculating the G-matrix                .... done
Diagonalizing the G-matrix              .... done
Small eigenvalue found = 5.682e-03
Small eigenvalue found = 6.189e-03
Small eigenvalue found = 1.067e-02
Small eigenvalue found = 2.139e-02
Small eigenvalue found = 2.656e-02
The first mode is                       ....   67
The number of degrees of freedom        ....   93

    -----------------------------------------------------------------
                    Redundant Internal Coordinates


    -----------------------------------------------------------------
         Definition                    Initial Value    Approx d2E/dq
    -----------------------------------------------------------------
      1. B(C   1,N   0)                  1.4556         0.439836   
      2. B(C   2,C   1)                  1.5404         0.359506   
      3. B(O   3,C   2)                  1.2339         0.992790   
      4. B(C   4,C   1)                  1.5555         0.340166   
      5. B(C   5,C   4)                  1.5378         0.363014   
      6. B(C   6,C   5)                  1.5470         0.351012   
      7. B(C   7,C   6)                  1.4872         0.437118   
      8. B(N   8,C   7)                  1.4929         0.383468   
      9. B(H   9,N   8)                  1.0262         0.407728   
     10. B(H  10,N   8)                  1.0275         0.405800   
     11. B(H  11,N   0)                  1.0112         0.430863   
     12. B(C  12,N   0)                  1.3720         0.597937   
     13. B(N  13,C   2)                  1.3605         0.623622   
     14. B(H  14,N  13)                  1.0095         0.433485   
     15. B(O  15,C  12)                  1.2314         1.002145   
     16. B(H  16,N   8)                  1.0317         0.399492   
     17. B(C  17,N  13)                  1.4629         0.428079   
     18. B(H  18,C  17)                  1.0947         0.353954   
     19. B(H  19,C  17)                  1.0936         0.355416   
     20. B(H  20,C  17)                  1.0898         0.360375   
     21. B(C  21,C  12)                  1.5229         0.383512   
     22. B(H  22,C  21)                  1.0930         0.356101   
     23. B(H  23,C  21)                  1.0937         0.355251   
     24. B(H  24,C  21)                  1.0931         0.356068   
     25. B(H  25,C   1)                  1.0962         0.351960   
     26. B(H  26,C   4)                  1.0973         0.350527   
     27. B(H  27,C   4)                  1.0948         0.353771   
     28. B(H  28,C   5)                  1.0950         0.353556   
     29. B(H  29,C   5)                  1.0943         0.354436   
     30. B(H  30,C   6)                  1.1065         0.338937   
     31. B(H  31,C   6)                  1.1010         0.345820   
     32. B(H  32,C   7)                  1.0848         0.367052   
     33. A(C   1,N   0,C  12)          121.8582         0.400470   
     34. A(H  11,N   0,C  12)          121.6006         0.356207   
     35. A(C   1,N   0,H  11)          116.3657         0.338266   
     36. A(N   0,C   1,H  25)          108.4661         0.329919   
     37. A(N   0,C   1,C   4)          112.6716         0.365414   
     38. A(C   2,C   1,H  25)          110.7826         0.321079   
     39. A(C   4,C   1,H  25)          106.6970         0.318192   
     40. A(N   0,C   1,C   2)          107.1467         0.368895   
     41. A(C   2,C   1,C   4)          111.0850         0.355272   
     42. A(C   1,C   2,N  13)          115.4562         0.391911   
     43. A(C   1,C   2,O   3)          120.3985         0.425528   
     44. A(O   3,C   2,N  13)          124.0942         0.467073   
     45. A(C   1,C   4,H  26)          108.7022         0.317981   
     46. A(C   1,C   4,H  27)          106.2509         0.318459   
     47. A(C   1,C   4,C   5)          113.8973         0.355858   
     48. A(H  26,C   4,H  27)          107.4816         0.288809   
     49. A(C   5,C   4,H  26)          110.1459         0.321375   
     50. A(C   5,C   4,H  27)          110.1059         0.321860   
     51. A(C   6,C   5,H  28)          109.5377         0.320063   
     52. A(C   4,C   5,C   6)          111.3058         0.357760   
     53. A(H  28,C   5,H  29)          106.8994         0.289283   
     54. A(C   6,C   5,H  29)          108.9321         0.320193   
     55. A(C   4,C   5,H  29)          109.4147         0.321959   
     56. A(C   4,C   5,H  28)          110.6354         0.321828   
     57. A(C   5,C   6,C   7)          111.7555         0.369301   
     58. A(C   7,C   6,H  30)          109.6604         0.329516   
     59. A(C   5,C   6,H  30)          109.3119         0.317865   
     60. A(H  30,C   6,H  31)          105.8523         0.286276   
     61. A(C   5,C   6,H  31)          109.9707         0.318909   
     62. A(C   7,C   6,H  31)          110.1152         0.330613   
     63. A(C   6,C   7,H  32)          125.4340         0.333894   
     64. A(N   8,C   7,H  32)          113.2458         0.324786   
     65. A(C   6,C   7,N   8)          117.9721         0.372615   
     66. A(H   9,N   8,H  10)          107.7196         0.297343   
     67. A(H  10,N   8,H  16)          106.9150         0.296383   
     68. A(H   9,N   8,H  16)          107.4301         0.296606   
     69. A(C   7,N   8,H  10)          110.4542         0.327392   
     70. A(C   7,N   8,H  16)          112.6329         0.326548   
     71. A(C   7,N   8,H   9)          111.4460         0.327648   
     72. A(O  15,C  12,C  21)          122.3951         0.431213   
     73. A(N   0,C  12,C  21)          116.0693         0.393463   
     74. A(N   0,C  12,O  15)          121.5353         0.464287   
     75. A(H  14,N  13,C  17)          118.1954         0.337083   
     76. A(C   2,N  13,C  17)          123.0960         0.401527   
     77. A(C   2,N  13,H  14)          117.9244         0.359134   
     78. A(H  19,C  17,H  20)          109.5320         0.290277   
     79. A(H  18,C  17,H  20)          108.7934         0.290089   
     80. A(N  13,C  17,H  20)          108.0661         0.329730   
     81. A(H  18,C  17,H  19)          109.1191         0.289460   
     82. A(N  13,C  17,H  19)          110.3160         0.328976   
     83. A(N  13,C  17,H  18)          110.9832         0.328752   
     84. A(H  23,C  21,H  24)          109.0204         0.289709   
     85. A(H  22,C  21,H  24)          109.6044         0.289817   
     86. A(C  12,C  21,H  24)          113.6189         0.325119   
     87. A(H  22,C  21,H  23)          107.3345         0.289713   
     88. A(C  12,C  21,H  23)          108.1943         0.324996   
     89. A(C  12,C  21,H  22)          108.8731         0.325124   
     90. D(C   4,C   1,N   0,H  11)   -111.2384         0.016496   
     91. D(H  25,C   1,N   0,C  12)    -44.3853         0.016496   
     92. D(C   2,C   1,N   0,H  11)     11.2343         0.016496   
     93. D(C   4,C   1,N   0,C  12)     73.5042         0.016496   
     94. D(C   2,C   1,N   0,C  12)   -164.0231         0.016496   
     95. D(H  25,C   1,N   0,H  11)    130.8721         0.016496   
     96. D(N  13,C   2,C   1,C   4)    -89.7286         0.009721   
     97. D(N  13,C   2,C   1,H  25)     28.6754         0.009721   
     98. D(O   3,C   2,C   1,N   0)    -35.6779         0.009721   
     99. D(O   3,C   2,C   1,H  25)   -153.8187         0.009721   
    100. D(O   3,C   2,C   1,C   4)     87.7772         0.009721   
    101. D(N  13,C   2,C   1,N   0)    146.8162         0.009721   
    102. D(C   5,C   4,C   1,C   2)    -61.4336         0.009368   
    103. D(C   5,C   4,C   1,H  25)    177.7241         0.009368   
    104. D(C   5,C   4,C   1,N   0)     58.7981         0.009368   
    105. D(H  27,C   4,C   1,H  25)     56.3388         0.009368   
    106. D(H  27,C   4,C   1,C   2)    177.1811         0.009368   
    107. D(H  26,C   4,C   1,H  25)    -59.0666         0.009368   
    108. D(H  26,C   4,C   1,C   2)     61.7757         0.009368   
    109. D(H  26,C   4,C   1,N   0)   -177.9927         0.009368   
    110. D(H  27,C   4,C   1,N   0)    -62.5873         0.009368   
    111. D(H  29,C   5,C   4,H  27)     68.4089         0.010560   
    112. D(H  29,C   5,C   4,H  26)   -173.2295         0.010560   
    113. D(H  29,C   5,C   4,C   1)    -50.8097         0.010560   
    114. D(H  28,C   5,C   4,H  27)   -174.0702         0.010560   
    115. D(H  28,C   5,C   4,H  26)    -55.7086         0.010560   
    116. D(H  28,C   5,C   4,C   1)     66.7111         0.010560   
    117. D(C   6,C   5,C   4,H  27)    -52.0353         0.010560   
    118. D(C   6,C   5,C   4,H  26)     66.3263         0.010560   
    119. D(C   6,C   5,C   4,C   1)   -171.2540         0.010560   
    120. D(C   7,C   6,C   5,C   4)   -179.5898         0.009922   
    121. D(H  31,C   6,C   5,H  28)   -179.5363         0.009922   
    122. D(H  31,C   6,C   5,C   4)     57.7951         0.009922   
    123. D(H  30,C   6,C   5,H  29)   -178.7379         0.009922   
    124. D(H  30,C   6,C   5,H  28)     64.6589         0.009922   
    125. D(H  30,C   6,C   5,C   4)    -58.0098         0.009922   
    126. D(C   7,C   6,C   5,H  29)     59.6821         0.009922   
    127. D(H  31,C   6,C   5,H  29)    -62.9330         0.009922   
    128. D(C   7,C   6,C   5,H  28)    -56.9212         0.009922   
    129. D(H  32,C   7,C   6,H  31)    157.7981         0.014102   
    130. D(H  32,C   7,C   6,H  30)    -86.1131         0.014102   
    131. D(H  32,C   7,C   6,C   5)     35.2655         0.014102   
    132. D(N   8,C   7,C   6,H  31)    -44.3269         0.014102   
    133. D(N   8,C   7,C   6,H  30)     71.7619         0.014102   
    134. D(N   8,C   7,C   6,C   5)   -166.8595         0.014102   
    135. D(H  16,N   8,C   7,H  32)     85.7324         0.012583   
    136. D(H  16,N   8,C   7,C   6)    -74.7568         0.012583   
    137. D(H  10,N   8,C   7,H  32)   -154.7990         0.012583   
    138. D(H  10,N   8,C   7,C   6)     44.7118         0.012583   
    139. D(H   9,N   8,C   7,H  32)    -35.0952         0.012583   
    140. D(H   9,N   8,C   7,C   6)    164.4156         0.012583   
    141. D(C  21,C  12,N   0,H  11)     -0.1592         0.028795   
    142. D(C  21,C  12,N   0,C   1)    174.8511         0.028795   
    143. D(O  15,C  12,N   0,H  11)   -179.9679         0.028795   
    144. D(O  15,C  12,N   0,C   1)     -4.9576         0.028795   
    145. D(C  17,N  13,C   2,O   3)      2.8849         0.031520   
    146. D(C  17,N  13,C   2,C   1)   -179.7129         0.031520   
    147. D(H  14,N  13,C   2,O   3)    172.5455         0.031520   
    148. D(H  14,N  13,C   2,C   1)    -10.0523         0.031520   
    149. D(H  19,C  17,N  13,H  14)     57.9821         0.015624   
    150. D(H  19,C  17,N  13,C   2)   -132.3836         0.015624   
    151. D(H  18,C  17,N  13,H  14)    -63.0861         0.015624   
    152. D(H  18,C  17,N  13,C   2)    106.5481         0.015624   
    153. D(H  20,C  17,N  13,H  14)    177.7023         0.015624   
    154. D(H  20,C  17,N  13,C   2)    -12.6634         0.015624   
    155. D(H  24,C  21,C  12,O  15)   -176.6247         0.010963   
    156. D(H  24,C  21,C  12,N   0)      3.5685         0.010963   
    157. D(H  23,C  21,C  12,O  15)     62.1675         0.010963   
    158. D(H  23,C  21,C  12,N   0)   -117.6394         0.010963   
    159. D(H  22,C  21,C  12,O  15)    -54.1795         0.010963   
    160. D(H  22,C  21,C  12,N   0)    126.0137         0.010963   
    -----------------------------------------------------------------

Number of atoms                         .... 33
Number of degrees of freedom            .... 160

         *************************************************************
         *                GEOMETRY OPTIMIZATION CYCLE   1            *
         *************************************************************
---------------------------------
CARTESIAN COORDINATES (ANGSTROEM)
---------------------------------
  N     -7.822340    0.946351    0.093324
  C     -6.374810    0.876620    0.229065
  C     -6.060401    0.858782    1.736982
  O     -6.748532    1.511826    2.526045
  C     -5.648639    2.055344   -0.480070
  C     -6.064429    3.443418    0.034922
  C     -5.477860    4.569639   -0.848616
  C     -5.865909    5.917308   -0.353552
  N     -5.635975    7.086590   -1.252783
  H     -6.159584    7.910954   -0.937636
  H     -5.941115    6.869246   -2.209527
  H     -8.343312    1.146531    0.936513
  C     -8.453423    0.657686   -1.090181
  N     -4.968041    0.132565    2.098022
  H     -4.540870   -0.457876    1.399439
  O     -7.817780    0.413513   -2.116171
  H     -4.641321    7.354989   -1.308604
  C     -4.521587   -0.003110    3.484539
  H     -4.743731   -1.002592    3.871870
  H     -3.445492    0.177844    3.556354
  H     -5.055697    0.732873    4.085123
  C     -9.975826    0.654063   -1.053299
  H    -10.349933    1.325044   -1.830836
  H    -10.320980   -0.354180   -1.299210
  H    -10.391142    0.946607   -0.085455
  H     -6.024891   -0.044087   -0.252143
  H     -4.565482    1.919625   -0.368294
  H     -5.883414    1.963341   -1.545463
  H     -5.739281    3.583925    1.071043
  H     -7.155985    3.520983    0.030765
  H     -4.374908    4.483230   -0.867213
  H     -5.807319    4.439880   -1.891138
  H     -5.982253    6.195028    0.688616

----------------------------
CARTESIAN COORDINATES (A.U.)
----------------------------
  NO LB      ZA    FRAG     MASS         X           Y           Z
   0 N     7.0000    0    14.007  -14.782081    1.788345    0.176357
   1 C     6.0000    0    12.011  -12.046644    1.656572    0.432870
   2 C     6.0000    0    12.011  -11.452499    1.622863    3.282421
   3 O     8.0000    0    15.999  -12.752878    2.856937    4.773533
   4 C     6.0000    0    12.011  -10.674381    3.884037   -0.907201
   5 C     6.0000    0    12.011  -11.460111    6.507117    0.065994
   6 C     6.0000    0    12.011  -10.351654    8.635367   -1.603653
   7 C     6.0000    0    12.011  -11.084961   11.182092   -0.668117
   8 N     7.0000    0    14.007  -10.650450   13.391714   -2.367416
   9 H     1.0000    0     1.008  -11.639927   14.949536   -1.771875
  10 H     1.0000    0     1.008  -11.227081   12.980994   -4.175401
  11 H     1.0000    0     1.008  -15.766575    2.166629    1.769753
  12 C     6.0000    0    12.011  -15.974655    1.242846   -2.060143
  13 N     7.0000    0    14.007   -9.388236    0.250511    3.964688
  14 H     1.0000    0     1.008   -8.581001   -0.865261    2.644557
  15 O     8.0000    0    15.999  -14.773464    0.781427   -3.998983
  16 H     1.0000    0     1.008   -8.770826   13.898915   -2.472903
  17 C     6.0000    0    12.011   -8.544560   -0.005877    6.584825
  18 H     1.0000    0     1.008   -8.964353   -1.894625    7.316774
  19 H     1.0000    0     1.008   -6.511036    0.336077    6.720536
  20 H     1.0000    0     1.008   -9.553883    1.384929    7.719764
  21 C     6.0000    0    12.011  -18.851579    1.236001   -1.990446
  22 H     1.0000    0     1.008  -19.558538    2.503970   -3.459779
  23 H     1.0000    0     1.008  -19.503825   -0.669303   -2.455151
  24 H     1.0000    0     1.008  -19.636413    1.788827   -0.161486
  25 H     1.0000    0     1.008  -11.385393   -0.083312   -0.476481
  26 H     1.0000    0     1.008   -8.627510    3.627566   -0.695974
  27 H     1.0000    0     1.008  -11.118040    3.710176   -2.920503
  28 H     1.0000    0     1.008  -10.845669    6.772636    2.023977
  29 H     1.0000    0     1.008  -13.522852    6.653693    0.058138
  30 H     1.0000    0     1.008   -8.267379    8.472077   -1.638795
  31 H     1.0000    0     1.008  -10.974243    8.390157   -3.573734
  32 H     1.0000    0     1.008  -11.304820   11.706907    1.301296

--------------------------------
INTERNAL COORDINATES (ANGSTROEM)
--------------------------------
 N      0   0   0     0.000000000000     0.00000000     0.00000000
 C      1   0   0     1.455552263315     0.00000000     0.00000000
 C      2   1   0     1.540449603275   107.14671746     0.00000000
 O      3   2   1     1.233941284730   120.39849090   324.32209494
 C      2   1   3     1.555501843782   112.67164976   237.52734497
 C      5   2   1     1.537806296323   113.89732690    58.79806109
 C      6   5   2     1.546958335893   111.30584426   188.74604700
 C      7   6   5     1.487239720589   111.75553329   180.41018022
 N      8   7   6     1.492884861929   117.97209074   193.14051757
 H      9   8   7     1.026186605638   111.44601060   164.41558663
 H      9   8   7     1.027476803733   110.45419773    44.71177426
 H      1   2   3     1.011163285706   116.36572951    11.23427974
 C      1   2   3     1.371961139188   121.85819270   195.97688898
 N      3   2   1     1.360512373264   115.45623455   146.81621912
 H     14   3   2     1.009511452302   117.92438651   349.94770619
 O     13   1   2     1.231388235121   121.53526511   355.04244675
 H      9   8   7     1.031741623419   112.63286137   285.24320158
 C     14   3   2     1.462927887302   123.09595893   180.28705633
 H     18  14   3     1.094686316261   110.98315876   106.54814991
 H     18  14   3     1.093563951155   110.31601580   227.61638473
 H     18  14   3     1.089792025140   108.06606589   347.33661228
 C     13   1   2     1.522853929937   116.06930938   174.85111532
 H     22  13   1     1.093039640720   108.87307028   126.01365274
 H     22  13   1     1.093690096398   108.19427739   242.36064487
 H     22  13   1     1.093065068418   113.61889177     3.56846342
 H      2   1   3     1.096223582121   108.46614481   119.63777626
 H      5   2   1     1.097334645859   108.70216985   182.00733946
 H      5   2   1     1.094827142239   106.25086739   297.41272585
 H      6   5   2     1.094992562376   110.63537364    66.71111846
 H      6   5   2     1.094315673288   109.41469617   309.19026899
 H      7   6   5     1.106487054090   109.31186128   301.99024418
 H      7   6   5     1.101014621923   109.97074623    57.79505936
 H      8   7   6     1.084794580246   125.43396343    35.26551824

---------------------------
INTERNAL COORDINATES (A.U.)
---------------------------
 N      0   0   0     0.000000000000     0.00000000     0.00000000
 C      1   0   0     2.750595151275     0.00000000     0.00000000
 C      2   1   0     2.911027873297   107.14671746     0.00000000
 O      3   2   1     2.331811093479   120.39849090   324.32209494
 C      2   1   3     2.939472485558   112.67164976   237.52734497
 C      5   2   1     2.906032747070   113.89732690    58.79806109
 C      6   5   2     2.923327595424   111.30584426   188.74604700
 C      7   6   5     2.810475767402   111.75553329   180.41018022
 N      8   7   6     2.821143538523   117.97209074   193.14051757
 H      9   8   7     1.939211646954   111.44601060   164.41558663
 H      9   8   7     1.941649768013   110.45419773    44.71177426
 H      1   2   3     1.910821686659   116.36572951    11.23427974
 C      1   2   3     2.592630819448   121.85819270   195.97688898
 N      3   2   1     2.570995787281   115.45623455   146.81621912
 H     14   3   2     1.907700173907   117.92438651   349.94770619
 O     13   1   2     2.326986528911   121.53526511   355.04244675
 H      9   8   7     1.949709109229   112.63286137   285.24320158
 C     14   3   2     2.764533060677   123.09595893   180.28705633
 H     18  14   3     2.068657340284   110.98315876   106.54814991
 H     18  14   3     2.066536377611   110.31601580   227.61638473
 H     18  14   3     2.059408470445   108.06606589   347.33661228
 C     13   1   2     2.877776869546   116.06930938   174.85111532
 H     22  13   1     2.065545574480   108.87307028   126.01365274
 H     22  13   1     2.066774757574   108.19427739   242.36064487
 H     22  13   1     2.065593625866   113.61889177     3.56846342
 H      2   1   3     2.071562351755   108.46614481   119.63777626
 H      5   2   1     2.073661957938   108.70216985   182.00733946
 H      5   2   1     2.068923462814   106.25086739   297.41272585
 H      6   5   2     2.069236061572   110.63537364    66.71111846
 H      6   5   2     2.067956926572   109.41469617   309.19026899
 H      7   6   5     2.090957502959   109.31186128   301.99024418
 H      7   6   5     2.080616104877   109.97074623    57.79505936
 H      8   7   6     2.049964668227   125.43396343    35.26551824

---------------------
BASIS SET INFORMATION
---------------------
There are 4 groups of distinct atoms

 Group   1 Type N   : 11s6p2d1f contracted to 5s3p2d1f pattern {62111/411/11/1}
 Group   2 Type C   : 11s6p2d1f contracted to 5s3p2d1f pattern {62111/411/11/1}
 Group   3 Type O   : 11s6p2d1f contracted to 5s3p2d1f pattern {62111/411/11/1}
 Group   4 Type H   : 5s1p contracted to 3s1p pattern {311/1}

Atom   0N    basis set group =>   1
Atom   1C    basis set group =>   2
Atom   2C    basis set group =>   2
Atom   3O    basis set group =>   3
Atom   4C    basis set group =>   2
Atom   5C    basis set group =>   2
Atom   6C    basis set group =>   2
Atom   7C    basis set group =>   2
Atom   8N    basis set group =>   1
Atom   9H    basis set group =>   4
Atom  10H    basis set group =>   4
Atom  11H    basis set group =>   4
Atom  12C    basis set group =>   2
Atom  13N    basis set group =>   1
Atom  14H    basis set group =>   4
Atom  15O    basis set group =>   3
Atom  16H    basis set group =>   4
Atom  17C    basis set group =>   2
Atom  18H    basis set group =>   4
Atom  19H    basis set group =>   4
Atom  20H    basis set group =>   4
Atom  21C    basis set group =>   2
Atom  22H    basis set group =>   4
Atom  23H    basis set group =>   4
Atom  24H    basis set group =>   4
Atom  25H    basis set group =>   4
Atom  26H    basis set group =>   4
Atom  27H    basis set group =>   4
Atom  28H    basis set group =>   4
Atom  29H    basis set group =>   4
Atom  30H    basis set group =>   4
Atom  31H    basis set group =>   4
Atom  32H    basis set group =>   4
---------------------------------
AUXILIARY/J BASIS SET INFORMATION
---------------------------------
There are 4 groups of distinct atoms

 Group   1 Type N   : 12s5p4d2f1g contracted to 6s4p3d1f1g pattern {711111/2111/211/2/1}
 Group   2 Type C   : 12s5p4d2f1g contracted to 6s4p3d1f1g pattern {711111/2111/211/2/1}
 Group   3 Type O   : 12s5p4d2f1g contracted to 6s4p3d1f1g pattern {711111/2111/211/2/1}
 Group   4 Type H   : 5s2p1d contracted to 3s1p1d pattern {311/2/1}

Atom   0N    basis set group =>   1
Atom   1C    basis set group =>   2
Atom   2C    basis set group =>   2
Atom   3O    basis set group =>   3
Atom   4C    basis set group =>   2
Atom   5C    basis set group =>   2
Atom   6C    basis set group =>   2
Atom   7C    basis set group =>   2
Atom   8N    basis set group =>   1
Atom   9H    basis set group =>   4
Atom  10H    basis set group =>   4
Atom  11H    basis set group =>   4
Atom  12C    basis set group =>   2
Atom  13N    basis set group =>   1
Atom  14H    basis set group =>   4
Atom  15O    basis set group =>   3
Atom  16H    basis set group =>   4
Atom  17C    basis set group =>   2
Atom  18H    basis set group =>   4
Atom  19H    basis set group =>   4
Atom  20H    basis set group =>   4
Atom  21C    basis set group =>   2
Atom  22H    basis set group =>   4
Atom  23H    basis set group =>   4
Atom  24H    basis set group =>   4
Atom  25H    basis set group =>   4
Atom  26H    basis set group =>   4
Atom  27H    basis set group =>   4
Atom  28H    basis set group =>   4
Atom  29H    basis set group =>   4
Atom  30H    basis set group =>   4
Atom  31H    basis set group =>   4
Atom  32H    basis set group =>   4


           ************************************************************
           *        Program running with 16 parallel MPI-processes    *
           *              working on a common directory               *
           ************************************************************
------------------------------------------------------------------------------
                           ORCA GTO INTEGRAL CALCULATION
                           -- RI-GTO INTEGRALS CHOSEN --
------------------------------------------------------------------------------
------------------------------------------------------------------------------
                   ___                                                        
                  /   \      - P O W E R E D   B Y -                         
                 /     \                                                     
                 |  |  |   _    _      __       _____    __    __             
                 |  |  |  | |  | |    /  \     |  _  \  |  |  /  |          
                  \  \/   | |  | |   /    \    | | | |  |  | /  /          
                 / \  \   | |__| |  /  /\  \   | |_| |  |  |/  /          
                |  |  |   |  __  | /  /__\  \  |    /   |      \           
                |  |  |   | |  | | |   __   |  |    \   |  |\   \          
                \     /   | |  | | |  |  |  |  | |\  \  |  | \   \       
                 \___/    |_|  |_| |__|  |__|  |_| \__\ |__|  \__/        
                                                                              
                      - O R C A' S   B I G   F R I E N D -                    
                                      &                                       
                       - I N T E G R A L  F E E D E R -                       
                                                                              
 v1 FN, 2020, v2 2021                                                         
------------------------------------------------------------------------------


Reading SHARK input file freq.SHARKINP.tmp ... ok
----------------------
SHARK INTEGRAL PACKAGE
----------------------

Number of atoms                             ...     33
Number of basis functions                   ...    548
Number of shells                            ...    230
Maximum angular momentum                    ...      3
Integral batch strategy                     ... SHARK/LIBINT Hybrid
RI-J (if used) integral strategy            ... SPLIT-RIJ (Revised 2003 algorithm where possible)
Printlevel                                  ...      1
Contraction scheme used                     ... SEGMENTED contraction
Coulomb Range Separation                    ... NOT USED
Exchange Range Separation                   ... NOT USED
Finite Nucleus Model                        ... NOT USED
Auxiliary Coulomb fitting basis             ... AVAILABLE
   # of basis functions in Aux-J            ...    895
   # of shells in Aux-J                     ...    305
   Maximum angular momentum in Aux-J        ...      4
Auxiliary J/K fitting basis                 ... NOT available
Auxiliary Correlation fitting basis         ... NOT available
Auxiliary 'external' fitting basis          ... NOT available
Integral threshold                          ...     2.500000e-11
Primitive cut-off                           ...     2.500000e-12
Primitive pair pre-selection threshold      ...     2.500000e-12

Calculating pre-screening integrals         ... done (  0.0 sec) Dimension = 230
Organizing shell pair data                  ... done (  0.1 sec)
Shell pair information
Total number of shell pairs                 ...     26565
Shell pairs after pre-screening             ...     19819
Total number of primitive shell pairs       ...     78180
Primitive shell pairs kept                  ...     40661
          la=0 lb=0:   5999 shell pairs
          la=1 lb=0:   5884 shell pairs
          la=1 lb=1:   1491 shell pairs
          la=2 lb=0:   2616 shell pairs
          la=2 lb=1:   1304 shell pairs
          la=2 lb=2:    309 shell pairs
          la=3 lb=0:   1244 shell pairs
          la=3 lb=1:    624 shell pairs
          la=3 lb=2:    276 shell pairs
          la=3 lb=3:     72 shell pairs

Calculating one electron integrals          ... done (  0.0 sec)
Calculating RI/J V-Matrix + Cholesky decomp.... done (  0.0 sec)
Calculating Nuclear repulsion               ... done (  0.0 sec) ENN=    930.628146891991 Eh

SHARK setup successfully completed in   0.4 seconds

Maximum memory used throughout the entire GTOINT-calculation: 31.4 MB


           ************************************************************
           *        Program running with 16 parallel MPI-processes    *
           *              working on a common directory               *
           ************************************************************
-------------------------------------------------------------------------------
                                 ORCA SCF
-------------------------------------------------------------------------------

------------
SCF SETTINGS
------------
Hamiltonian:
 Density Functional     Method          .... DFT(GTOs)
 Exchange Functional    Exchange        .... M062X
 Correlation Functional Correlation     .... M062X
 Gradients option       PostSCFGGA      .... off
 Hybrid DFT is turned on
   Fraction HF Exchange ScalHFX         ....  0.540000
   Scaling of DF-GGA-X  ScalDFX         ....  0.460000
   Scaling of DF-GGA-C  ScalDFC         ....  1.000000
   Scaling of DF-LDA-C  ScalLDAC        ....  1.000000
   Perturbative correction              ....  0.000000
   Density functional embedding theory  .... OFF
 RI-approximation to the Coulomb term is turned on
   Number of AuxJ basis functions       .... 895
   RIJ-COSX (HFX calculated with COS-X)).... on


General Settings:
 Integral files         IntName         .... freq
 Hartree-Fock type      HFTyp           .... UHF
 Total Charge           Charge          ....    1
 Multiplicity           Mult            ....    2
 Number of Electrons    NEL             ....  109
 Basis Dimension        Dim             ....  548
 Nuclear Repulsion      ENuc            ....    930.6281468920 Eh

Convergence Acceleration:
 DIIS                   CNVDIIS         .... on
   Start iteration      DIISMaxIt       ....    12
   Startup error        DIISStart       ....  0.200000
   # of expansion vecs  DIISMaxEq       ....     5
   Bias factor          DIISBfac        ....   1.050
   Max. coefficient     DIISMaxC        ....  10.000
 Trust-Rad. Augm. Hess. CNVTRAH         .... auto
   Auto Start mean grad. ratio tolernc. ....  1.125000
   Auto Start start iteration           ....    20
   Auto Start num. interpolation iter.  ....    10
   Max. Number of Micro iterations      ....    16
   Max. Number of Macro iterations      .... Maxiter - #DIIS iter
   Number of Davidson start vectors     ....     2
   Converg. threshold I  (grad. norm)   ....   1.000e-05
   Converg. threshold II (energy diff.) ....   1.000e-08
   Grad. Scal. Fac. for Micro threshold ....   0.100
   Minimum threshold for Micro iter.    ....   0.010
   NR start threshold (gradient norm)   ....   0.001
   Initial trust radius                 ....   0.400
   Minimum AH scaling param. (alpha)    ....   1.000
   Maximum AH scaling param. (alpha)    .... 1000.000
   Orbital update algorithm             .... Taylor
   White noise on init. David. guess    .... on
   Maximum white noise                  ....   0.010
   Quad. conv. algorithm                .... NR
 SOSCF                  CNVSOSCF        .... off
 Level Shifting         CNVShift        .... on
   Level shift para.    LevelShift      ....    0.2500
   Turn off err/grad.   ShiftErr        ....    0.0010
 Zerner damping         CNVZerner       .... off
 Static damping         CNVDamp         .... on
   Fraction old density DampFac         ....    0.7000
   Max. Damping (<1)    DampMax         ....    0.9800
   Min. Damping (>=0)   DampMin         ....    0.0000
   Turn off err/grad.   DampErr         ....    0.1000
 Fernandez-Rico         CNVRico         .... off

SCF Procedure:
 Maximum # iterations   MaxIter         ....   125
 SCF integral mode      SCFMode         .... Direct
   Integral package                     .... SHARK and LIBINT hybrid scheme
 Reset frequency        DirectResetFreq ....    20
 Integral Threshold     Thresh          ....  2.500e-11 Eh
 Primitive CutOff       TCut            ....  2.500e-12 Eh

Convergence Tolerance:
 Convergence Check Mode ConvCheckMode   .... Total+1el-Energy
 Convergence forced     ConvForced      .... 0
 Energy Change          TolE            ....  1.000e-08 Eh
 1-El. energy change                    ....  1.000e-05 Eh
 DIIS Error             TolErr          ....  5.000e-07


Diagonalization of the overlap matrix:
Smallest eigenvalue                        ... 6.163e-05
Time for diagonalization                   ...    0.036 sec
Threshold for overlap eigenvalues          ... 1.000e-08
Number of eigenvalues below threshold      ... 0
Time for construction of square roots      ...    0.023 sec
Total time needed                          ...    0.061 sec

Time for model grid setup =    0.123 sec

------------------------------
INITIAL GUESS: MODEL POTENTIAL
------------------------------
Loading Hartree-Fock densities                     ... done
Calculating cut-offs                               ... done
Initializing the effective Hamiltonian             ... done
Setting up the integral package (SHARK)            ... done
Starting the Coulomb interaction                   ... done (   0.1 sec)
Reading the grid                                   ... done
Mapping shells                                     ... done
Starting the XC term evaluation                    ... done (   0.1 sec)
  promolecular density results
     # of electrons  =    109.999172306
     EX              =    -87.569276817
     EC              =     -3.647221559
     EX+EC           =    -91.216498376
Transforming the Hamiltonian                       ... done (   0.0 sec)
Diagonalizing the Hamiltonian                      ... done (   0.0 sec)
Back transforming the eigenvectors                 ... done (   0.0 sec)
Now organizing SCF variables                       ... done
                      ------------------
                      INITIAL GUESS DONE (   0.4 sec)
                      ------------------
-------------------
DFT GRID GENERATION
-------------------

General Integration Accuracy     IntAcc      ... 4.388
Radial Grid Type                 RadialGrid  ... OptM3 with GC (2021)
Angular Grid (max. ang.)         AngularGrid ... 4 (Lebedev-302)
Angular grid pruning method      GridPruning ... 4 (adaptive)
Weight generation scheme         WeightScheme... Becke
Basis function cutoff            BFCut       ... 1.0000e-11
Integration weight cutoff        WCut        ... 1.0000e-14
Angular grids for H and He will be reduced by one unit
Partially contracted basis set               ... off
Rotationally invariant grid construction     ... off

Total number of grid points                  ...   144792
Total number of batches                      ...     2280
Average number of points per batch           ...       63
Average number of grid points per atom       ...     4388
Time for grid setup =    0.635 sec

--------------------
COSX GRID GENERATION
--------------------

GRIDX 1
-------
General Integration Accuracy     IntAcc      ... 3.816
Radial Grid Type                 RadialGrid  ... OptM3 with GC (2021)
Angular Grid (max. ang.)         AngularGrid ... 1 (Lebedev-50)
Angular grid pruning method      GridPruning ... 4 (adaptive)
Weight generation scheme         WeightScheme... Becke
Basis function cutoff            BFCut       ... 1.0000e-11
Integration weight cutoff        WCut        ... 1.0000e-14
Angular grids for H and He will be reduced by one unit
Partially contracted basis set               ... on
Rotationally invariant grid construction     ... off

Total number of grid points                  ...    18483
Total number of batches                      ...      307
Average number of points per batch           ...       60
Average number of grid points per atom       ...      560
UseSFitting                                  ... on

GRIDX 2
-------
General Integration Accuracy     IntAcc      ... 4.020
Radial Grid Type                 RadialGrid  ... OptM3 with GC (2021)
Angular Grid (max. ang.)         AngularGrid ... 2 (Lebedev-110)
Angular grid pruning method      GridPruning ... 4 (adaptive)
Weight generation scheme         WeightScheme... Becke
Basis function cutoff            BFCut       ... 1.0000e-11
Integration weight cutoff        WCut        ... 1.0000e-14
Angular grids for H and He will be reduced by one unit
Partially contracted basis set               ... on
Rotationally invariant grid construction     ... off

Total number of grid points                  ...    39015
Total number of batches                      ...      628
Average number of points per batch           ...       62
Average number of grid points per atom       ...     1182
UseSFitting                                  ... on

GRIDX 3
-------
General Integration Accuracy     IntAcc      ... 4.338
Radial Grid Type                 RadialGrid  ... OptM3 with GC (2021)
Angular Grid (max. ang.)         AngularGrid ... 3 (Lebedev-194)
Angular grid pruning method      GridPruning ... 4 (adaptive)
Weight generation scheme         WeightScheme... Becke
Basis function cutoff            BFCut       ... 1.0000e-11
Integration weight cutoff        WCut        ... 1.0000e-14
Angular grids for H and He will be reduced by one unit
Partially contracted basis set               ... on
Rotationally invariant grid construction     ... off

Total number of grid points                  ...    85119
Total number of batches                      ...     1345
Average number of points per batch           ...       63
Average number of grid points per atom       ...     2579
UseSFitting                                  ... on

Time for X-Grid setup             =    0.782 sec

--------------
SCF ITERATIONS
--------------
ITER       Energy         Delta-E        Max-DP      RMS-DP      [F,P]     Damp
               ***  Starting incremental Fock matrix formation  ***
  0   -668.3312040205   0.000000000000 0.03266407  0.00040465  0.1517214 0.7000
  1   -668.5328502227  -0.201646202134 0.03470683  0.00032736  0.0725248 0.7000
                               ***Turning on DIIS***
  2   -668.6230792197  -0.090228997063 0.07307784  0.00064887  0.0261209 0.0000
  3   -668.7687045467  -0.145625327025 0.01815724  0.00023130  0.0349337 0.0000
  4   -668.7948620597  -0.026157512904 0.00543355  0.00007309  0.0051838 0.0000
  5   -668.7958550297  -0.000992970089 0.00272070  0.00003160  0.0034219 0.0000
  6   -668.7960784470  -0.000223417299 0.00116458  0.00001535  0.0013905 0.0000
  7   -668.7961179332  -0.000039486181 0.00108199  0.00001206  0.0007467 0.0000
               *** Restarting incremental Fock matrix formation ***
                                   *** Resetting DIIS ***
  8   -668.7961371805  -0.000019247287 0.00035707  0.00000501  0.0002622 0.0000
  9   -668.7961382536  -0.000001073119 0.00010603  0.00000125  0.0002630 0.0000
 10   -668.7961392839  -0.000001030321 0.00011439  0.00000085  0.0000912 0.0000
 11   -668.7961394488  -0.000000164824 0.00003462  0.00000039  0.0000658 0.0000
 12   -668.7961394993  -0.000000050544 0.00001519  0.00000014  0.0000265 0.0000
 13   -668.7961395035  -0.000000004149 0.00000644  0.00000005  0.0000056 0.0000
 14   -668.7961395278  -0.000000024311 0.00000331  0.00000002  0.0000019 0.0000
 15   -668.7961395320  -0.000000004189 0.00000160  0.00000002  0.0000012 0.0000
                            ***DIIS convergence achieved***

               *****************************************************
               *                     SUCCESS                       *
               *           SCF CONVERGED AFTER  16 CYCLES          *
               *****************************************************

Old exchange energy                            =    -48.306706965 Eh
New exchange energy                            =    -48.306715342 Eh
Exchange energy change after final integration =     -0.000008377 Eh
Total energy after final integration           =   -668.796147932 Eh
Final COS-X integration done in                =     4.837 sec

----------------
TOTAL SCF ENERGY
----------------

Total Energy       :         -668.79614793 Eh          -18198.86840 eV

Components:
Nuclear Repulsion  :          930.62814689 Eh           25323.67931 eV
Electronic Energy  :        -1599.42429482 Eh          -43522.54771 eV
One Electron Energy:        -2741.77490796 Eh          -74607.48822 eV
Two Electron Energy:         1142.35061314 Eh           31084.94051 eV
Max COSX asymmetry :            0.00000089 Eh               0.00002 eV

Virial components:
Potential Energy   :        -1333.91945735 Eh          -36297.79378 eV
Kinetic Energy     :          665.12330942 Eh           18098.92538 eV
Virial Ratio       :            2.00552204


DFT components:
N(Alpha)           :       55.000084663696 electrons
N(Beta)            :       54.000101223041 electrons
N(Total)           :      109.000185886738 electrons
E(XC)              :      -45.044147773525 Eh       
DFET-embed. en.    :        0.000000000000 Eh       

---------------
SCF CONVERGENCE
---------------

  Last Energy change         ...   -2.2955e-08  Tolerance :   1.0000e-08
  Last MAX-Density change    ...    0.0000e+00  Tolerance :   1.0000e-07
  Last RMS-Density change    ...    0.0000e+00  Tolerance :   5.0000e-09
  Last DIIS Error            ...    7.7539e-07  Tolerance :   5.0000e-07

             **** THE GBW FILE WAS UPDATED (freq.gbw) ****
             **** DENSITY freq.scfp WAS UPDATED ****
             **** ENERGY FILE WAS UPDATED (freq.en.tmp) ****
----------------------
UHF SPIN CONTAMINATION
----------------------

Warning: in a DFT calculation there is little theoretical justification to 
         calculate <S**2> as in Hartree-Fock theory. We will do it anyways
         but you should keep in mind that the values have only limited relevance

Expectation value of <S**2>     :     0.755379
Ideal value S*(S+1) for S=0.5   :     0.750000
Deviation                       :     0.005379

             **** THE GBW FILE WAS UPDATED (freq.gbw) ****
             **** DENSITY freq.scfp WAS UPDATED ****
----------------
ORBITAL ENERGIES
----------------
                 SPIN UP ORBITALS
  NO   OCC          E(Eh)            E(eV) 
   0   1.0000     -19.691051      -535.8207 
   1   1.0000     -19.671123      -535.2785 
   2   1.0000     -15.076721      -410.2584 
   3   1.0000     -14.872887      -404.7118 
   4   1.0000     -14.857645      -404.2971 
   5   1.0000     -10.792166      -293.6698 
   6   1.0000     -10.743228      -292.3381 
   7   1.0000     -10.727656      -291.9144 
   8   1.0000     -10.711352      -291.4707 
   9   1.0000     -10.688139      -290.8390 
  10   1.0000     -10.667974      -290.2903 
  11   1.0000     -10.653956      -289.9089 
  12   1.0000     -10.651238      -289.8349 
  13   1.0000     -10.617831      -288.9259 
  14   1.0000      -1.315893       -35.8073 
  15   1.0000      -1.254504       -34.1368 
  16   1.0000      -1.234160       -33.5832 
  17   1.0000      -1.125418       -30.6242 
  18   1.0000      -1.117400       -30.4060 
  19   1.0000      -1.064063       -28.9546 
  20   1.0000      -0.991536       -26.9811 
  21   1.0000      -0.942334       -25.6422 
  22   1.0000      -0.904645       -24.6166 
  23   1.0000      -0.896091       -24.3839 
  24   1.0000      -0.867912       -23.6171 
  25   1.0000      -0.859279       -23.3822 
  26   1.0000      -0.835894       -22.7458 
  27   1.0000      -0.803500       -21.8644 
  28   1.0000      -0.762833       -20.7578 
  29   1.0000      -0.757529       -20.6134 
  30   1.0000      -0.738921       -20.1071 
  31   1.0000      -0.705276       -19.1915 
  32   1.0000      -0.684264       -18.6198 
  33   1.0000      -0.664395       -18.0791 
  34   1.0000      -0.654095       -17.7988 
  35   1.0000      -0.631675       -17.1888 
  36   1.0000      -0.626542       -17.0491 
  37   1.0000      -0.620607       -16.8876 
  38   1.0000      -0.607054       -16.5188 
  39   1.0000      -0.596996       -16.2451 
  40   1.0000      -0.590845       -16.0777 
  41   1.0000      -0.567724       -15.4485 
  42   1.0000      -0.558430       -15.1957 
  43   1.0000      -0.554613       -15.0918 
  44   1.0000      -0.544760       -14.8237 
  45   1.0000      -0.540806       -14.7161 
  46   1.0000      -0.529058       -14.3964 
  47   1.0000      -0.527526       -14.3547 
  48   1.0000      -0.521185       -14.1822 
  49   1.0000      -0.497553       -13.5391 
  50   1.0000      -0.468271       -12.7423 
  51   1.0000      -0.433916       -11.8075 
  52   1.0000      -0.418497       -11.3879 
  53   1.0000      -0.411848       -11.2070 
  54   1.0000      -0.403503       -10.9799 
  55   0.0000      -0.151681        -4.1274 
  56   0.0000      -0.093426        -2.5422 
  57   0.0000      -0.082726        -2.2511 
  58   0.0000      -0.057168        -1.5556 
  59   0.0000      -0.047968        -1.3053 
  60   0.0000      -0.033520        -0.9121 
  61   0.0000      -0.028365        -0.7718 
  62   0.0000      -0.021009        -0.5717 
  63   0.0000      -0.016165        -0.4399 
  64   0.0000      -0.011416        -0.3107 
  65   0.0000       0.004969         0.1352 
  66   0.0000       0.012364         0.3364 
  67   0.0000       0.022436         0.6105 
  68   0.0000       0.028762         0.7827 
  69   0.0000       0.032713         0.8902 
  70   0.0000       0.037082         1.0091 
  71   0.0000       0.040398         1.0993 
  72   0.0000       0.049169         1.3380 
  73   0.0000       0.053292         1.4501 
  74   0.0000       0.068211         1.8561 
  75   0.0000       0.075360         2.0507 
  76   0.0000       0.078395         2.1332 
  77   0.0000       0.081356         2.2138 
  78   0.0000       0.083535         2.2731 
  79   0.0000       0.088949         2.4204 
  80   0.0000       0.097061         2.6412 
  81   0.0000       0.099270         2.7013 
  82   0.0000       0.109577         2.9817 
  83   0.0000       0.120835         3.2881 
  84   0.0000       0.125530         3.4158 
  85   0.0000       0.127046         3.4571 
  86   0.0000       0.136696         3.7197 
  87   0.0000       0.144384         3.9289 
  88   0.0000       0.148313         4.0358 
  89   0.0000       0.155640         4.2352 
  90   0.0000       0.162118         4.4114 
  91   0.0000       0.171176         4.6579 
  92   0.0000       0.172922         4.7054 
  93   0.0000       0.175201         4.7675 
  94   0.0000       0.189378         5.1532 
  95   0.0000       0.191586         5.2133 
  96   0.0000       0.200489         5.4556 
  97   0.0000       0.203578         5.5396 
  98   0.0000       0.216360         5.8875 
  99   0.0000       0.225189         6.1277 
 100   0.0000       0.243972         6.6388 
 101   0.0000       0.248516         6.7625 
 102   0.0000       0.254488         6.9250 
 103   0.0000       0.257655         7.0112 
 104   0.0000       0.263188         7.1617 
 105   0.0000       0.273519         7.4428 
 106   0.0000       0.282595         7.6898 
 107   0.0000       0.292518         7.9598 
 108   0.0000       0.300466         8.1761 
 109   0.0000       0.302306         8.2262 
 110   0.0000       0.309230         8.4146 
 111   0.0000       0.313912         8.5420 
 112   0.0000       0.316038         8.5998 
 113   0.0000       0.326516         8.8850 
 114   0.0000       0.328084         8.9276 
 115   0.0000       0.330523         8.9940 
 116   0.0000       0.344079         9.3629 
 117   0.0000       0.348629         9.4867 
 118   0.0000       0.351295         9.5592 
 119   0.0000       0.355929         9.6853 
 120   0.0000       0.361269         9.8306 
 121   0.0000       0.366213         9.9652 
 122   0.0000       0.372009        10.1229 
 123   0.0000       0.375487        10.2175 
 124   0.0000       0.380320        10.3490 
 125   0.0000       0.386371        10.5137 
 126   0.0000       0.394231        10.7276 
 127   0.0000       0.398251        10.8370 
 128   0.0000       0.404372        11.0035 
 129   0.0000       0.408266        11.1095 
 130   0.0000       0.417967        11.3735 
 131   0.0000       0.426553        11.6071 
 132   0.0000       0.430428        11.7125 
 133   0.0000       0.435910        11.8617 
 134   0.0000       0.439088        11.9482 
 135   0.0000       0.440889        11.9972 
 136   0.0000       0.444238        12.0883 
 137   0.0000       0.457023        12.4362 
 138   0.0000       0.467929        12.7330 
 139   0.0000       0.482208        13.1216 
 140   0.0000       0.488368        13.2892 
 141   0.0000       0.497798        13.5458 
 142   0.0000       0.501398        13.6437 
 143   0.0000       0.509270        13.8579 
 144   0.0000       0.512047        13.9335 
 145   0.0000       0.518090        14.0979 
 146   0.0000       0.527580        14.3562 
 147   0.0000       0.535135        14.5618 
 148   0.0000       0.542756        14.7691 
 149   0.0000       0.555281        15.1100 
 150   0.0000       0.560673        15.2567 
 151   0.0000       0.575008        15.6468 
 152   0.0000       0.590927        16.0799 
 153   0.0000       0.595167        16.1953 
 154   0.0000       0.603326        16.4173 
 155   0.0000       0.614141        16.7116 
 156   0.0000       0.628170        17.0934 
 157   0.0000       0.636577        17.3221 
 158   0.0000       0.649265        17.6674 
 159   0.0000       0.677345        18.4315 
 160   0.0000       0.686319        18.6757 
 161   0.0000       0.699445        19.0329 
 162   0.0000       0.704116        19.1600 
 163   0.0000       0.719056        19.5665 
 164   0.0000       0.730230        19.8706 
 165   0.0000       0.733704        19.9651 
 166   0.0000       0.742979        20.2175 
 167   0.0000       0.744558        20.2605 
 168   0.0000       0.755058        20.5462 
 169   0.0000       0.776805        21.1379 
 170   0.0000       0.793845        21.6016 
 171   0.0000       0.802360        21.8333 
 172   0.0000       0.809934        22.0394 
 173   0.0000       0.833775        22.6882 
 174   0.0000       0.838462        22.8157 
 175   0.0000       0.846867        23.0444 
 176   0.0000       0.858457        23.3598 
 177   0.0000       0.877152        23.8685 
 178   0.0000       0.891290        24.2532 
 179   0.0000       0.897696        24.4275 
 180   0.0000       0.910684        24.7810 
 181   0.0000       0.917640        24.9703 
 182   0.0000       0.940886        25.6028 
 183   0.0000       0.941652        25.6236 
 184   0.0000       0.949085        25.8259 
 185   0.0000       0.967906        26.3380 
 186   0.0000       0.974336        26.5130 
 187   0.0000       0.979550        26.6549 
 188   0.0000       0.994545        27.0629 
 189   0.0000       1.003199        27.2984 
 190   0.0000       1.008151        27.4332 
 191   0.0000       1.018009        27.7014 
 192   0.0000       1.027847        27.9691 
 193   0.0000       1.035413        28.1750 
 194   0.0000       1.060703        28.8632 
 195   0.0000       1.079133        29.3647 
 196   0.0000       1.087539        29.5935 
 197   0.0000       1.090506        29.6742 
 198   0.0000       1.104761        30.0621 
 199   0.0000       1.116488        30.3812 
 200   0.0000       1.132078        30.8054 
 201   0.0000       1.141610        31.0648 
 202   0.0000       1.159113        31.5411 
 203   0.0000       1.164654        31.6918 
 204   0.0000       1.182074        32.1659 
 205   0.0000       1.207447        32.8563 
 206   0.0000       1.209802        32.9204 
 207   0.0000       1.225648        33.3516 
 208   0.0000       1.228078        33.4177 
 209   0.0000       1.242554        33.8116 
 210   0.0000       1.249537        34.0016 
 211   0.0000       1.259562        34.2744 
 212   0.0000       1.299263        35.3547 
 213   0.0000       1.305880        35.5348 
 214   0.0000       1.329723        36.1836 
 215   0.0000       1.334648        36.3176 
 216   0.0000       1.344102        36.5749 
 217   0.0000       1.358539        36.9677 
 218   0.0000       1.365504        37.1573 
 219   0.0000       1.367132        37.2016 
 220   0.0000       1.379388        37.5351 
 221   0.0000       1.400226        38.1021 
 222   0.0000       1.416127        38.5348 
 223   0.0000       1.439787        39.1786 
 224   0.0000       1.442535        39.2534 
 225   0.0000       1.454817        39.5876 
 226   0.0000       1.458302        39.6824 
 227   0.0000       1.470377        40.0110 
 228   0.0000       1.479533        40.2601 
 229   0.0000       1.482194        40.3325 
 230   0.0000       1.488693        40.5094 
 231   0.0000       1.492801        40.6212 
 232   0.0000       1.500531        40.8315 
 233   0.0000       1.508509        41.0486 
 234   0.0000       1.510803        41.1110 
 235   0.0000       1.514395        41.2088 
 236   0.0000       1.530455        41.6458 
 237   0.0000       1.546121        42.0721 
 238   0.0000       1.554122        42.2898 
 239   0.0000       1.562351        42.5137 
 240   0.0000       1.574995        42.8578 
 241   0.0000       1.578116        42.9427 
 242   0.0000       1.583128        43.0791 
 243   0.0000       1.587580        43.2002 
 244   0.0000       1.594978        43.4016 
 245   0.0000       1.606682        43.7201 
 246   0.0000       1.612350        43.8743 
 247   0.0000       1.638581        44.5881 
 248   0.0000       1.649370        44.8816 
 249   0.0000       1.655094        45.0374 
 250   0.0000       1.663168        45.2571 
 251   0.0000       1.684895        45.8483 
 252   0.0000       1.686417        45.8897 
 253   0.0000       1.700556        46.2745 
 254   0.0000       1.717577        46.7376 
 255   0.0000       1.732474        47.1430 
 256   0.0000       1.743382        47.4398 
 257   0.0000       1.746147        47.5151 
 258   0.0000       1.772766        48.2394 
 259   0.0000       1.779658        48.4270 
 260   0.0000       1.790678        48.7268 
 261   0.0000       1.804140        49.0931 
 262   0.0000       1.817472        49.4559 
 263   0.0000       1.822987        49.6060 
 264   0.0000       1.831314        49.8326 
 265   0.0000       1.836341        49.9694 
 266   0.0000       1.840697        50.0879 
 267   0.0000       1.852982        50.4222 
 268   0.0000       1.860120        50.6164 
 269   0.0000       1.885658        51.3114 
 270   0.0000       1.902130        51.7596 
 271   0.0000       1.905449        51.8499 
 272   0.0000       1.916653        52.1548 
 273   0.0000       1.927434        52.4482 
 274   0.0000       1.937898        52.7329 
 275   0.0000       1.950620        53.0791 
 276   0.0000       1.965554        53.4854 
 277   0.0000       1.967832        53.5474 
 278   0.0000       1.982163        53.9374 
 279   0.0000       1.987641        54.0865 
 280   0.0000       1.998755        54.3889 
 281   0.0000       2.005519        54.5730 
 282   0.0000       2.036031        55.4032 
 283   0.0000       2.051335        55.8197 
 284   0.0000       2.060809        56.0775 
 285   0.0000       2.081372        56.6370 
 286   0.0000       2.096004        57.0352 
 287   0.0000       2.100065        57.1457 
 288   0.0000       2.107812        57.3565 
 289   0.0000       2.123032        57.7706 
 290   0.0000       2.134043        58.0703 
 291   0.0000       2.144715        58.3607 
 292   0.0000       2.159293        58.7574 
 293   0.0000       2.165816        58.9349 
 294   0.0000       2.185363        59.4668 
 295   0.0000       2.194971        59.7282 
 296   0.0000       2.210717        60.1567 
 297   0.0000       2.219069        60.3839 
 298   0.0000       2.229211        60.6599 
 299   0.0000       2.236765        60.8655 
 300   0.0000       2.240627        60.9706 
 301   0.0000       2.259429        61.4822 
 302   0.0000       2.269368        61.7526 
 303   0.0000       2.273404        61.8625 
 304   0.0000       2.282857        62.1197 
 305   0.0000       2.293176        62.4005 
 306   0.0000       2.298569        62.5472 
 307   0.0000       2.302332        62.6496 
 308   0.0000       2.309303        62.8393 
 309   0.0000       2.330243        63.4091 
 310   0.0000       2.339107        63.6503 
 311   0.0000       2.358174        64.1692 
 312   0.0000       2.370886        64.5151 
 313   0.0000       2.372489        64.5587 
 314   0.0000       2.391695        65.0813 
 315   0.0000       2.395831        65.1939 
 316   0.0000       2.406021        65.4711 
 317   0.0000       2.416572        65.7583 
 318   0.0000       2.435801        66.2815 
 319   0.0000       2.446560        66.5743 
 320   0.0000       2.450340        66.6771 
 321   0.0000       2.460642        66.9575 
 322   0.0000       2.478124        67.4332 
 323   0.0000       2.484067        67.5949 
 324   0.0000       2.489154        67.7333 
 325   0.0000       2.498411        67.9852 
 326   0.0000       2.504029        68.1381 
 327   0.0000       2.522716        68.6466 
 328   0.0000       2.529398        68.8284 
 329   0.0000       2.534565        68.9690 
 330   0.0000       2.538426        69.0741 
 331   0.0000       2.558445        69.6188 
 332   0.0000       2.562414        69.7268 
 333   0.0000       2.573627        70.0320 
 334   0.0000       2.579445        70.1903 
 335   0.0000       2.589915        70.4752 
 336   0.0000       2.604266        70.8657 
 337   0.0000       2.615675        71.1761 
 338   0.0000       2.626559        71.4723 
 339   0.0000       2.639449        71.8231 
 340   0.0000       2.651986        72.1642 
 341   0.0000       2.658530        72.3423 
 342   0.0000       2.665144        72.5223 
 343   0.0000       2.677139        72.8487 
 344   0.0000       2.702209        73.5308 
 345   0.0000       2.712871        73.8210 
 346   0.0000       2.730183        74.2920 
 347   0.0000       2.736716        74.4698 
 348   0.0000       2.759307        75.0846 
 349   0.0000       2.775192        75.5168 
 350   0.0000       2.788828        75.8879 
 351   0.0000       2.796685        76.1017 
 352   0.0000       2.798944        76.1632 
 353   0.0000       2.813412        76.5568 
 354   0.0000       2.836334        77.1806 
 355   0.0000       2.855204        77.6941 
 356   0.0000       2.868326        78.0511 
 357   0.0000       2.871487        78.1371 
 358   0.0000       2.881377        78.4062 
 359   0.0000       2.889860        78.6371 
 360   0.0000       2.901794        78.9618 
 361   0.0000       2.914946        79.3197 
 362   0.0000       2.919320        79.4387 
 363   0.0000       2.936477        79.9056 
 364   0.0000       2.956933        80.4622 
 365   0.0000       2.962329        80.6091 
 366   0.0000       2.976721        81.0007 
 367   0.0000       2.981768        81.1380 
 368   0.0000       2.990397        81.3728 
 369   0.0000       3.005365        81.7801 
 370   0.0000       3.019702        82.1703 
 371   0.0000       3.022333        82.2419 
 372   0.0000       3.037598        82.6572 
 373   0.0000       3.044021        82.8320 
 374   0.0000       3.052800        83.0709 
 375   0.0000       3.070439        83.5509 
 376   0.0000       3.080548        83.8260 
 377   0.0000       3.082317        83.8741 
 378   0.0000       3.087822        84.0239 
 379   0.0000       3.097340        84.2829 
 380   0.0000       3.103144        84.4408 
 381   0.0000       3.118268        84.8524 
 382   0.0000       3.124164        85.0128 
 383   0.0000       3.138048        85.3906 
 384   0.0000       3.143502        85.5390 
 385   0.0000       3.158247        85.9403 
 386   0.0000       3.165280        86.1316 
 387   0.0000       3.173360        86.3515 
 388   0.0000       3.183290        86.6217 
 389   0.0000       3.190241        86.8109 
 390   0.0000       3.199603        87.0656 
 391   0.0000       3.213610        87.4468 
 392   0.0000       3.226070        87.7858 
 393   0.0000       3.234032        88.0025 
 394   0.0000       3.244997        88.3008 
 395   0.0000       3.252849        88.5145 
 396   0.0000       3.263489        88.8041 
 397   0.0000       3.270987        89.0081 
 398   0.0000       3.283986        89.3618 
 399   0.0000       3.292020        89.5804 
 400   0.0000       3.304141        89.9103 
 401   0.0000       3.315413        90.2170 
 402   0.0000       3.325481        90.4909 
 403   0.0000       3.327893        90.5566 
 404   0.0000       3.339418        90.8702 
 405   0.0000       3.343466        90.9803 
 406   0.0000       3.354077        91.2691 
 407   0.0000       3.379617        91.9641 
 408   0.0000       3.382875        92.0527 
 409   0.0000       3.387740        92.1851 
 410   0.0000       3.391223        92.2799 
 411   0.0000       3.419788        93.0571 
 412   0.0000       3.430069        93.3369 
 413   0.0000       3.445501        93.7568 
 414   0.0000       3.449391        93.8627 
 415   0.0000       3.471497        94.4642 
 416   0.0000       3.474832        94.5550 
 417   0.0000       3.483081        94.7795 
 418   0.0000       3.501303        95.2753 
 419   0.0000       3.502911        95.3190 
 420   0.0000       3.522767        95.8594 
 421   0.0000       3.546385        96.5020 
 422   0.0000       3.604844        98.0928 
 423   0.0000       3.610697        98.2520 
 424   0.0000       3.633107        98.8619 
 425   0.0000       3.650381        99.3319 
 426   0.0000       3.669617        99.8554 
 427   0.0000       3.676943       100.0547 
 428   0.0000       3.691443       100.4493 
 429   0.0000       3.699952       100.6808 
 430   0.0000       3.716363       101.1274 
 431   0.0000       3.730647       101.5161 
 432   0.0000       3.749097       102.0181 
 433   0.0000       3.761198       102.3474 
 434   0.0000       3.767371       102.5154 
 435   0.0000       3.782853       102.9367 
 436   0.0000       3.796536       103.3090 
 437   0.0000       3.815606       103.8279 
 438   0.0000       3.851605       104.8075 
 439   0.0000       3.862576       105.1060 
 440   0.0000       3.871687       105.3540 
 441   0.0000       3.894672       105.9794 
 442   0.0000       3.934110       107.0526 
 443   0.0000       3.959816       107.7521 
 444   0.0000       3.972490       108.0969 
 445   0.0000       3.994789       108.7037 
 446   0.0000       4.017086       109.3105 
 447   0.0000       4.042667       110.0065 
 448   0.0000       4.057468       110.4093 
 449   0.0000       4.077058       110.9424 
 450   0.0000       4.098125       111.5157 
 451   0.0000       4.109035       111.8125 
 452   0.0000       4.149317       112.9086 
 453   0.0000       4.155531       113.0777 
 454   0.0000       4.207118       114.4815 
 455   0.0000       4.217971       114.7768 
 456   0.0000       4.234254       115.2199 
 457   0.0000       4.276062       116.3576 
 458   0.0000       4.292619       116.8081 
 459   0.0000       4.298362       116.9644 
 460   0.0000       4.321348       117.5899 
 461   0.0000       4.324163       117.6665 
 462   0.0000       4.349591       118.3584 
 463   0.0000       4.357304       118.5683 
 464   0.0000       4.371661       118.9589 
 465   0.0000       4.398057       119.6772 
 466   0.0000       4.427017       120.4653 
 467   0.0000       4.440899       120.8430 
 468   0.0000       4.445486       120.9678 
 469   0.0000       4.463959       121.4705 
 470   0.0000       4.487386       122.1080 
 471   0.0000       4.515678       122.8779 
 472   0.0000       4.534653       123.3942 
 473   0.0000       4.539634       123.5297 
 474   0.0000       4.557751       124.0227 
 475   0.0000       4.575512       124.5060 
 476   0.0000       4.608821       125.4124 
 477   0.0000       4.631848       126.0390 
 478   0.0000       4.637971       126.2056 
 479   0.0000       4.675798       127.2349 
 480   0.0000       4.691917       127.6736 
 481   0.0000       4.701000       127.9207 
 482   0.0000       4.717316       128.3647 
 483   0.0000       4.741207       129.0148 
 484   0.0000       4.781004       130.0977 
 485   0.0000       4.819116       131.1348 
 486   0.0000       4.866022       132.4112 
 487   0.0000       4.892549       133.1330 
 488   0.0000       4.923331       133.9706 
 489   0.0000       4.927379       134.0808 
 490   0.0000       4.937682       134.3612 
 491   0.0000       4.948105       134.6448 
 492   0.0000       4.965383       135.1150 
 493   0.0000       5.006052       136.2216 
 494   0.0000       5.022670       136.6738 
 495   0.0000       5.098922       138.7487 
 496   0.0000       5.110095       139.0528 
 497   0.0000       5.124987       139.4580 
 498   0.0000       5.135899       139.7549 
 499   0.0000       5.143421       139.9596 
 500   0.0000       5.189855       141.2231 
 501   0.0000       5.200776       141.5203 
 502   0.0000       5.206512       141.6764 
 503   0.0000       5.221396       142.0814 
 504   0.0000       5.226388       142.2173 
 505   0.0000       5.268277       143.3571 
 506   0.0000       5.316485       144.6689 
 507   0.0000       5.348879       145.5504 
 508   0.0000       5.388439       146.6269 
 509   0.0000       5.427692       147.6950 
 510   0.0000       5.485419       149.2658 
 511   0.0000       5.496356       149.5635 
 512   0.0000       5.567166       151.4903 
 513   0.0000       5.586019       152.0033 
 514   0.0000       5.637407       153.4016 
 515   0.0000       5.683556       154.6574 
 516   0.0000       5.788172       157.5042 
 517   0.0000       5.815641       158.2517 
 518   0.0000       6.002388       163.3333 
 519   0.0000       6.020323       163.8213 
 520   0.0000       6.211346       169.0193 
 521   0.0000       6.217336       169.1823 
 522   0.0000       6.352682       172.8653 
 523   0.0000       6.364740       173.1934 
 524   0.0000       6.469270       176.0378 
 525   0.0000       6.473508       176.1531 
 526   0.0000       6.564200       178.6210 
 527   0.0000       6.575200       178.9203 
 528   0.0000       6.750385       183.6873 
 529   0.0000       6.754849       183.8088 
 530   0.0000       6.966796       189.5761 
 531   0.0000       6.986526       190.1130 
 532   0.0000       6.995314       190.3522 
 533   0.0000       7.001713       190.5263 
 534   0.0000      22.095967       601.2618 
 535   0.0000      22.326647       607.5390 
 536   0.0000      22.359053       608.4208 
 537   0.0000      22.392768       609.3382 
 538   0.0000      22.458434       611.1251 
 539   0.0000      22.543747       613.4465 
 540   0.0000      22.696181       617.5945 
 541   0.0000      23.270671       633.2271 
 542   0.0000      23.298909       633.9956 
 543   0.0000      31.710226       862.8791 
 544   0.0000      32.402713       881.7226 
 545   0.0000      32.572981       886.3559 
 546   0.0000      43.985162      1196.8971 
 547   0.0000      44.064349      1199.0519 

                 SPIN DOWN ORBITALS
  NO   OCC          E(Eh)            E(eV) 
   0   1.0000     -19.691051      -535.8207 
   1   1.0000     -19.671123      -535.2785 
   2   1.0000     -15.077454      -410.2784 
   3   1.0000     -14.872886      -404.7118 
   4   1.0000     -14.857644      -404.2970 
   5   1.0000     -10.783814      -293.4425 
   6   1.0000     -10.743227      -292.3381 
   7   1.0000     -10.727656      -291.9144 
   8   1.0000     -10.711858      -291.4845 
   9   1.0000     -10.688144      -290.8392 
  10   1.0000     -10.667849      -290.2869 
  11   1.0000     -10.653956      -289.9089 
  12   1.0000     -10.651240      -289.8350 
  13   1.0000     -10.617830      -288.9259 
  14   1.0000      -1.310607       -35.6634 
  15   1.0000      -1.254504       -34.1368 
  16   1.0000      -1.234159       -33.5832 
  17   1.0000      -1.125415       -30.6241 
  18   1.0000      -1.117375       -30.4053 
  19   1.0000      -1.051128       -28.6026 
[...]
     47       0.000016   0.001539   0.000013
     48       0.092284   0.000176   0.000209
     49       0.032126   0.000057   0.000053
     50       0.002385   0.000001  -0.000023
     51      -0.000002  -0.000038  -0.000877
     52      -0.000000  -0.000016   0.000702
     53      -0.000017  -0.000085  -0.000789
     54       0.000008  -0.000010   0.000110
     55      -0.000081   0.000002  -0.000219
     56       0.000036   0.000224   0.000232
     57       0.000060   0.000354   0.002055
     58       0.000016   0.000056  -0.000070
     59       0.000005   0.000038   0.001357
     60      -0.000010  -0.000242   0.006090
     61      -0.000004  -0.000008  -0.007126
     62      -0.000006  -0.000278  -0.010049
     63      -0.000005   0.000063   0.000005
     64      -0.000008  -0.000134   0.000011
     65      -0.000009  -0.000213   0.000017
     66       0.000034   0.000264   0.000015
     67       0.000001  -0.000066  -0.000019
     68       0.000022   0.000185   0.000035
     69       0.000005   0.000054   0.000036
     70       0.000005   0.000172  -0.000020
     71       0.000007   0.000067   0.000006
     72      -0.000032  -0.000368  -0.000059
     73       0.000023   0.001235  -0.000014
     74       0.000090   0.004599  -0.000088
     75       0.000012  -0.005425   0.002467
     76      -0.000067   0.005785  -0.002373
     77      -0.000040   0.000641  -0.001047
     78      -0.000045  -0.001717   0.000057
     79      -0.000010  -0.000430  -0.000359
     80      -0.000016  -0.000031  -0.000330
     81       0.000125   0.000585   0.000143
     82       0.000082   0.000855  -0.000320
     83       0.000384  -0.000527   0.000512
     84       0.000155  -0.000714   0.000108
     85       0.000130  -0.000342   0.000300
     86       0.000322  -0.000614   0.000111
     87       0.000234  -0.000447   0.000013
     88       0.000044   0.000752   0.000064
     89      -0.000090   0.000513  -0.000001
     90      -0.000473  -0.000133  -0.000059
     91       0.000216  -0.000058  -0.000020
     92       0.000209   0.000058  -0.000037
     93       0.001561   0.000070   0.000035
     94      -0.000680   0.000122  -0.000050
     95       0.002635  -0.000073   0.000104
     96       0.002940  -0.000030   0.000022
     97      -0.004891  -0.000062   0.000004
     98      -0.022348   0.000093  -0.000040


-----------
IR SPECTRUM
-----------

 Mode   freq       eps      Int      T**2         TX        TY        TZ
       cm**-1   L/(mol*cm) km/mol    a.u.
----------------------------------------------------------------------------
  6:     17.00   0.000126    0.64  0.002308  ( 0.038763 -0.021807  0.018170)
  7:     26.63   0.002856   14.43  0.033470  ( 0.132620  0.092123  0.085995)
  8:     40.06   0.000343    1.73  0.002669  ( 0.042841  0.024988 -0.014455)
  9:     59.42   0.001605    8.11  0.008427  ( 0.075204  0.016042 -0.050143)
 10:     69.80   0.001172    5.92  0.005240  ( 0.042263 -0.057222  0.013411)
 11:     82.21   0.001563    7.90  0.005932  (-0.014136  0.034258 -0.067514)
 12:     92.73   0.002598   13.13  0.008743  ( 0.019620  0.087091 -0.027813)
 13:    111.72   0.001357    6.86  0.003791  (-0.025809 -0.025936 -0.049521)
 14:    122.13   0.000197    1.00  0.000504  (-0.001169 -0.021406 -0.006696)
 15:    130.54   0.000651    3.29  0.001557  (-0.013644 -0.030032 -0.021657)
 16:    141.94   0.001456    7.36  0.003200  (-0.052554  0.005580 -0.020181)
 17:    154.92   0.000451    2.28  0.000908  ( 0.017727  0.024184  0.002991)
 18:    180.55   0.001854    9.37  0.003205  (-0.026846 -0.049690 -0.003870)
 19:    221.92   0.002011   10.16  0.002827  ( 0.000819  0.052956 -0.004723)
 20:    252.04   0.001230    6.21  0.001523  (-0.029734 -0.018705 -0.016989)
 21:    294.65   0.001047    5.29  0.001109  ( 0.030072  0.000343  0.014315)
 22:    318.38   0.000585    2.95  0.000573  ( 0.022415 -0.008373 -0.000617)
 23:    346.59   0.000354    1.79  0.000318  (-0.015199  0.001398  0.009243)
 24:    383.46   0.003495   17.66  0.002844  ( 0.036014 -0.000345  0.039332)
 25:    410.55   0.001341    6.78  0.001019  (-0.031073 -0.000344  0.007338)
 26:    475.54   0.003389   17.13  0.002224  ( 0.009355 -0.041384  0.020590)
 27:    488.08   0.011923   60.25  0.007623  (-0.078886 -0.036191  0.009492)
 28:    511.57   0.005063   25.59  0.003089  (-0.019199 -0.046053  0.024479)
 29:    547.74   0.016350   82.63  0.009315  (-0.032382 -0.090878  0.002798)
 30:    572.57   0.004134   20.89  0.002253  (-0.027348  0.035165 -0.016396)
 31:    656.85   0.003493   17.65  0.001659  (-0.018183 -0.033326 -0.014772)
 32:    670.10   0.000460    2.32  0.000214  (-0.009808 -0.004074 -0.010061)
 33:    707.22   0.000086    0.43  0.000038  ( 0.004602 -0.003794 -0.001520)
 34:    749.03   0.000514    2.60  0.000214  (-0.011149 -0.000548 -0.009460)
 35:    809.00   0.000245    1.24  0.000095  ( 0.003516  0.008799 -0.002181)
 36:    849.90   0.001369    6.92  0.000503  ( 0.013957 -0.000737  0.017532)
 37:    891.46   0.000502    2.54  0.000176  (-0.006644  0.011008  0.003229)
 38:    919.84   0.001853    9.36  0.000629  ( 0.006117  0.023783  0.005054)
 39:    945.17   0.001803    9.11  0.000595  ( 0.015580 -0.016639 -0.008702)
 40:   1001.79   0.000523    2.64  0.000163  (-0.002258 -0.012078  0.003471)
 41:   1014.25   0.000566    2.86  0.000174  ( 0.005564  0.002071  0.011779)
 42:   1019.40   0.002622   13.25  0.000803  ( 0.027544  0.006624  0.000282)
 43:   1028.86   0.002120   10.72  0.000643  (-0.007214 -0.013969 -0.019898)
 44:   1065.17   0.001445    7.30  0.000423  ( 0.001653  0.020286 -0.003007)
 45:   1066.61   0.000239    1.21  0.000070  ( 0.007368 -0.001803 -0.003525)
 46:   1067.91   0.001036    5.23  0.000303  ( 0.017293  0.001868 -0.000361)
 47:   1093.38   0.002679   13.54  0.000765  ( 0.007335 -0.019169  0.018527)
 48:   1107.03   0.000533    2.69  0.000150  (-0.002098 -0.004564  0.011176)
 49:   1156.47   0.000851    4.30  0.000230  ( 0.003853  0.005130  0.013727)
 50:   1161.84   0.002614   13.21  0.000702  (-0.022833  0.011238 -0.007387)
 51:   1177.42   0.003549   17.94  0.000941  (-0.004655  0.029836  0.005368)
 52:   1183.90   0.004771   24.11  0.001257  ( 0.029099 -0.005232  0.019580)
 53:   1220.67   0.000798    4.03  0.000204  (-0.013483  0.003381 -0.003295)
 54:   1236.48   0.005830   29.46  0.001471  ( 0.021013 -0.010567  0.030302)
 55:   1272.14   0.007383   37.31  0.001811  ( 0.034679  0.001631  0.024613)
 56:   1279.75   0.004216   21.30  0.001028  ( 0.010455  0.028659 -0.009868)
 57:   1299.06   0.000868    4.39  0.000209  (-0.009890 -0.002293 -0.010271)
 58:   1321.51   0.009589   48.46  0.002264  ( 0.023551  0.013502  0.039084)
 59:   1342.92   0.000163    0.82  0.000038  (-0.005864  0.001503 -0.001132)
 60:   1371.15   0.001818    9.19  0.000414  ( 0.015736 -0.004776  0.011968)
 61:   1391.73   0.001687    8.52  0.000378  (-0.000127 -0.009998  0.016681)
 62:   1410.48   0.004674   23.62  0.001034  ( 0.010307 -0.028611  0.010454)
 63:   1412.07   0.010794   54.55  0.002385  ( 0.036849  0.019036  0.025793)
 64:   1416.98   0.001847    9.33  0.000407  ( 0.006513  0.011786 -0.015015)
 65:   1451.88   0.003808   19.24  0.000818  ( 0.016503 -0.019958 -0.012158)
 66:   1464.63   0.001563    7.90  0.000333  ( 0.003015 -0.017357 -0.004766)
 67:   1473.34   0.003397   17.17  0.000720  (-0.005625  0.012014 -0.023315)
 68:   1488.67   0.007239   36.58  0.001517  ( 0.011080  0.005077  0.036998)
 69:   1490.80   0.005085   25.70  0.001064  ( 0.020214  0.017083  0.019076)
 70:   1501.33   0.004133   20.88  0.000859  ( 0.020358  0.012851  0.016715)
 71:   1502.93   0.002307   11.66  0.000479  (-0.017949  0.009393  0.008285)
 72:   1509.73   0.013649   68.98  0.002821  ( 0.027591 -0.012514  0.043627)
 73:   1511.87   0.026429  133.56  0.005455  ( 0.012688  0.056300 -0.046092)
 74:   1541.55   0.086095  435.09  0.017429  (-0.104910 -0.015405 -0.078645)
 75:   1593.01   0.032699  165.25  0.006406  (-0.056066  0.041536 -0.039203)
 76:   1633.68   0.010655   53.85  0.002035  ( 0.039709 -0.002475  0.021269)
 77:   1645.90   0.007384   37.32  0.001400  ( 0.011080 -0.025035 -0.025504)
 78:   1776.88   0.081270  410.71  0.014273  ( 0.067018 -0.041113 -0.089952)
 79:   1791.62   0.018088   91.41  0.003151  ( 0.050219 -0.021225  0.013348)
 80:   2987.94   0.001513    7.65  0.000158  ( 0.005622  0.009557 -0.005921)
 81:   3052.92   0.000829    4.19  0.000085  ( 0.001924 -0.007182  0.005427)
 82:   3071.44   0.000895    4.52  0.000091  (-0.005320 -0.007527 -0.002439)
 83:   3077.63   0.001937    9.79  0.000196  ( 0.001749 -0.002686  0.013642)
 84:   3083.75   0.005380   27.19  0.000544  (-0.021458  0.008385 -0.003703)
 85:   3086.29   0.004107   20.75  0.000415  (-0.010612  0.006290 -0.016219)
 86:   3089.75   0.000373    1.88  0.000038  (-0.003213  0.003155  0.004170)
 87:   3121.42   0.000139    0.70  0.000014  ( 0.002399  0.002499  0.001392)
 88:   3139.19   0.001742    8.81  0.000173  (-0.009833  0.006134 -0.006236)
 89:   3157.89   0.001641    8.30  0.000162  (-0.008864 -0.009037  0.001400)
 90:   3170.56   0.000346    1.75  0.000034  ( 0.004425 -0.002455 -0.002911)
 91:   3185.81   0.000894    4.52  0.000088  (-0.003314  0.001488  0.008626)
 92:   3196.63   0.000018    0.09  0.000002  ( 0.001110 -0.000595  0.000407)
 93:   3245.13   0.000396    2.00  0.000038  ( 0.001413 -0.001964  0.005678)
 94:   3349.09   0.010991   55.55  0.001024  ( 0.021471  0.021312 -0.010437)
 95:   3426.51   0.020450  103.34  0.001862  ( 0.035740 -0.010315  0.021877)
 96:   3474.85   0.026058  131.69  0.002340  ( 0.013532 -0.035672 -0.029741)
 97:   3618.00   0.018688   94.44  0.001612  (-0.004303  0.003177  0.039790)
 98:   3646.18   0.009788   49.47  0.000838  ( 0.021067 -0.016497 -0.011037)

* The epsilon (eps) is given for a Dirac delta lineshape.
** The dipole moment derivative (T) already includes vibrational overlap.

The first frequency considered to be a vibration is 6
The total number of vibrations considered is 93


--------------------------
THERMOCHEMISTRY AT 298.15K
--------------------------

Temperature         ... 298.15 K
Pressure            ... 1.00 atm
Total Mass          ... 201.27 AMU

Throughout the following assumptions are being made:
  (1) The electronic state is orbitally nondegenerate
      but the spin degeneracy is treated
  (2) There are no thermally accessible electronically excited states
  (3) Hindered rotations indicated by low frequency modes are not
      treated as such but are treated as vibrations and this may
      cause some error
  (4) All equations used are the standard statistical mechanics
      equations for an ideal gas
  (5) All vibrations are strictly harmonic

freq.      17.00  E(vib)   ...       0.57 
freq.      26.63  E(vib)   ...       0.56 
freq.      40.06  E(vib)   ...       0.54 
freq.      59.42  E(vib)   ...       0.51 
freq.      69.80  E(vib)   ...       0.50 
freq.      82.21  E(vib)   ...       0.48 
freq.      92.73  E(vib)   ...       0.47 
freq.     111.72  E(vib)   ...       0.45 
freq.     122.13  E(vib)   ...       0.43 
freq.     130.54  E(vib)   ...       0.43 
freq.     141.94  E(vib)   ...       0.41 
freq.     154.92  E(vib)   ...       0.40 
freq.     180.55  E(vib)   ...       0.37 
freq.     221.92  E(vib)   ...       0.33 
freq.     252.04  E(vib)   ...       0.30 
freq.     294.65  E(vib)   ...       0.27 
freq.     318.38  E(vib)   ...       0.25 
freq.     346.59  E(vib)   ...       0.23 
freq.     383.46  E(vib)   ...       0.20 
freq.     410.55  E(vib)   ...       0.19 
freq.     475.54  E(vib)   ...       0.15 
freq.     488.08  E(vib)   ...       0.15 
freq.     511.57  E(vib)   ...       0.14 
freq.     547.74  E(vib)   ...       0.12 
freq.     572.57  E(vib)   ...       0.11 
freq.     656.85  E(vib)   ...       0.08 
freq.     670.10  E(vib)   ...       0.08 
freq.     707.22  E(vib)   ...       0.07 
freq.     749.03  E(vib)   ...       0.06 
freq.     809.00  E(vib)   ...       0.05 
freq.     849.90  E(vib)   ...       0.04 
freq.     891.46  E(vib)   ...       0.03 
freq.     919.84  E(vib)   ...       0.03 
freq.     945.17  E(vib)   ...       0.03 
freq.    1001.79  E(vib)   ...       0.02 
freq.    1014.25  E(vib)   ...       0.02 
freq.    1019.40  E(vib)   ...       0.02 
freq.    1028.86  E(vib)   ...       0.02 
freq.    1065.17  E(vib)   ...       0.02 
freq.    1066.61  E(vib)   ...       0.02 
freq.    1067.91  E(vib)   ...       0.02 
freq.    1093.38  E(vib)   ...       0.02 
freq.    1107.03  E(vib)   ...       0.02 
freq.    1156.47  E(vib)   ...       0.01 
freq.    1161.84  E(vib)   ...       0.01 
freq.    1177.42  E(vib)   ...       0.01 
freq.    1183.90  E(vib)   ...       0.01 
freq.    1220.67  E(vib)   ...       0.01 
freq.    1236.48  E(vib)   ...       0.01 
freq.    1272.14  E(vib)   ...       0.01 
freq.    1279.75  E(vib)   ...       0.01 
freq.    1299.06  E(vib)   ...       0.01 
freq.    1321.51  E(vib)   ...       0.01 
freq.    1342.92  E(vib)   ...       0.01 
freq.    1371.15  E(vib)   ...       0.01 
freq.    1391.73  E(vib)   ...       0.00 
freq.    1410.48  E(vib)   ...       0.00 
freq.    1412.07  E(vib)   ...       0.00 
freq.    1416.98  E(vib)   ...       0.00 
freq.    1451.88  E(vib)   ...       0.00 
freq.    1464.63  E(vib)   ...       0.00 
freq.    1473.34  E(vib)   ...       0.00 
freq.    1488.67  E(vib)   ...       0.00 
freq.    1490.80  E(vib)   ...       0.00 
freq.    1501.33  E(vib)   ...       0.00 
freq.    1502.93  E(vib)   ...       0.00 
freq.    1509.73  E(vib)   ...       0.00 
freq.    1511.87  E(vib)   ...       0.00 
freq.    1541.55  E(vib)   ...       0.00 
freq.    1593.01  E(vib)   ...       0.00 
freq.    1633.68  E(vib)   ...       0.00 
freq.    1645.90  E(vib)   ...       0.00 
freq.    1776.88  E(vib)   ...       0.00 
freq.    1791.62  E(vib)   ...       0.00 
freq.    2987.94  E(vib)   ...       0.00 
freq.    3052.92  E(vib)   ...       0.00 
freq.    3071.44  E(vib)   ...       0.00 
freq.    3077.63  E(vib)   ...       0.00 
freq.    3083.75  E(vib)   ...       0.00 
freq.    3086.29  E(vib)   ...       0.00 
freq.    3089.75  E(vib)   ...       0.00 
freq.    3121.42  E(vib)   ...       0.00 
freq.    3139.19  E(vib)   ...       0.00 
freq.    3157.89  E(vib)   ...       0.00 
freq.    3170.56  E(vib)   ...       0.00 
freq.    3185.81  E(vib)   ...       0.00 
freq.    3196.63  E(vib)   ...       0.00 
freq.    3245.13  E(vib)   ...       0.00 
freq.    3349.09  E(vib)   ...       0.00 
freq.    3426.51  E(vib)   ...       0.00 
freq.    3474.85  E(vib)   ...       0.00 
freq.    3618.00  E(vib)   ...       0.00 
freq.    3646.18  E(vib)   ...       0.00 

------------
INNER ENERGY
------------

The inner energy is: U= E(el) + E(ZPE) + E(vib) + E(rot) + E(trans)
    E(el)   - is the total energy from the electronic structure calculation
              = E(kin-el) + E(nuc-el) + E(el-el) + E(nuc-nuc)
    E(ZPE)  - the the zero temperature vibrational energy from the frequency calculation
    E(vib)  - the the finite temperature correction to E(ZPE) due to population
              of excited vibrational states
    E(rot)  - is the rotational thermal energy
    E(trans)- is the translational thermal energy

Summary of contributions to the inner energy U:
Electronic energy                ...   -668.79905870 Eh
Zero point energy                ...      0.29144382 Eh     182.88 kcal/mol
Thermal vibrational correction   ...      0.01491362 Eh       9.36 kcal/mol
Thermal rotational correction    ...      0.00141627 Eh       0.89 kcal/mol
Thermal translational correction ...      0.00141627 Eh       0.89 kcal/mol
-----------------------------------------------------------------------
Total thermal energy                   -668.48986872 Eh


Summary of corrections to the electronic energy:
(perhaps to be used in another calculation)
Total thermal correction                  0.01774616 Eh      11.14 kcal/mol
Non-thermal (ZPE) correction              0.29144382 Eh     182.88 kcal/mol
-----------------------------------------------------------------------
Total correction                          0.30918998 Eh     194.02 kcal/mol


--------
ENTHALPY
--------

The enthalpy is H = U + kB*T
                kB is Boltzmann's constant
Total free energy                 ...   -668.48986872 Eh 
Thermal Enthalpy correction       ...      0.00094421 Eh       0.59 kcal/mol
-----------------------------------------------------------------------
Total Enthalpy                    ...   -668.48892451 Eh


Note: Only C1 symmetry has been detected, increase convergence thresholds 
      if your molecule has a higher symmetry. Symmetry factor of 1.0 is   
      used for the rotational entropy correction. 
 

Note: Rotational entropy computed according to Herzberg 
Infrared and Raman Spectra, Chapter V,1, Van Nostrand Reinhold, 1945 
Point Group:  C1, Symmetry Number:   1  
Rotational constants in cm-1:     0.019659     0.013867     0.009252 

Vibrational entropy computed according to the QRRHO of S. Grimme
Chem.Eur.J. 2012 18 9955


-------
ENTROPY
-------

The entropy contributions are T*S = T*(S(el)+S(vib)+S(rot)+S(trans))
     S(el)   - electronic entropy
     S(vib)  - vibrational entropy
     S(rot)  - rotational entropy
     S(trans)- translational entropy
The entropies will be listed as multiplied by the temperature to get
units of energy

Electronic entropy                ...      0.00065446 Eh      0.41 kcal/mol
Vibrational entropy               ...      0.02778540 Eh     17.44 kcal/mol
Rotational entropy                ...      0.01559621 Eh      9.79 kcal/mol
Translational entropy             ...      0.01986189 Eh     12.46 kcal/mol
-----------------------------------------------------------------------
Final entropy term                ...      0.06389796 Eh     40.10 kcal/mol

In case the symmetry of your molecule has not been determined correctly
or in case you have a reason to use a different symmetry number we print 
out the resulting rotational entropy values for sn=1,12 :
 --------------------------------------------------------
|  sn= 1 | S(rot)=       0.01559621 Eh      9.79 kcal/mol|
|  sn= 2 | S(rot)=       0.01494176 Eh      9.38 kcal/mol|
|  sn= 3 | S(rot)=       0.01455893 Eh      9.14 kcal/mol|
|  sn= 4 | S(rot)=       0.01428730 Eh      8.97 kcal/mol|
|  sn= 5 | S(rot)=       0.01407661 Eh      8.83 kcal/mol|
|  sn= 6 | S(rot)=       0.01390447 Eh      8.73 kcal/mol|
|  sn= 7 | S(rot)=       0.01375892 Eh      8.63 kcal/mol|
|  sn= 8 | S(rot)=       0.01363285 Eh      8.55 kcal/mol|
|  sn= 9 | S(rot)=       0.01352164 Eh      8.48 kcal/mol|
|  sn=10 | S(rot)=       0.01342216 Eh      8.42 kcal/mol|
|  sn=11 | S(rot)=       0.01333217 Eh      8.37 kcal/mol|
|  sn=12 | S(rot)=       0.01325001 Eh      8.31 kcal/mol|
 --------------------------------------------------------


-------------------
GIBBS FREE ENERGY
-------------------

The Gibbs free energy is G = H - T*S

Total enthalpy                    ...   -668.48892451 Eh 
Total entropy correction          ...     -0.06389796 Eh    -40.10 kcal/mol
-----------------------------------------------------------------------
Final Gibbs free energy         ...   -668.55282247 Eh

For completeness - the Gibbs free energy minus the electronic energy
G-E(el)                           ...      0.24623623 Eh    154.52 kcal/mol


Timings for individual modules:

Sum of individual times         ...     2004.544 sec (=  33.409 min)
GTO integral calculation        ...      225.437 sec (=   3.757 min)  11.2 %
SCF iterations                  ...      714.876 sec (=  11.915 min)  35.7 %
SCF Gradient evaluation         ...      251.931 sec (=   4.199 min)  12.6 %
Geometry relaxation             ...        0.652 sec (=   0.011 min)   0.0 %
Analytical frequency calculation...      811.648 sec (=  13.527 min)  40.5 %
                             ****ORCA TERMINATED NORMALLY****
TOTAL RUN TIME: 0 days 0 hours 35 minutes 5 seconds 550 msec
