
                                 *****************
                                 * O   R   C   A *
                                 *****************

                                            #,                                       
                                            ###                                      
                                            ####                                     
                                            #####                                    
                                            ######                                   
                                           ########,                                 
                                     ,,################,,,,,                         
                               ,,#################################,,                 
                          ,,##########################################,,             
                       ,#########################################, ''#####,          
                    ,#############################################,,   '####,        
                  ,##################################################,,,,####,       
                ,###########''''           ''''###############################       
              ,#####''   ,,,,##########,,,,          '''####'''          '####       
            ,##' ,,,,###########################,,,                        '##       
           ' ,,###''''                  '''############,,,                           
         ,,##''                                '''############,,,,        ,,,,,,###''
      ,#''                                            '''#######################'''  
     '                                                          ''''####''''         
             ,#######,   #######,   ,#######,      ##                                
            ,#'     '#,  ##    ##  ,#'     '#,    #''#        ######   ,####,        
            ##       ##  ##   ,#'  ##            #'  '#       #        #'  '#        
            ##       ##  #######   ##           ,######,      #####,   #    #        
            '#,     ,#'  ##    ##  '#,     ,#' ,#      #,         ##   #,  ,#        
             '#######'   ##     ##  '#######'  #'      '#     #####' # '####'        



                  #######################################################
                  #                        -***-                        #
                  #          Department of theory and spectroscopy      #
                  #    Directorship and core code : Frank Neese         #
                  #        Max Planck Institute fuer Kohlenforschung    #
                  #                Kaiser Wilhelm Platz 1               #
                  #                 D-45470 Muelheim/Ruhr               #
                  #                      Germany                        #
                  #                                                     #
                  #                  All rights reserved                #
                  #                        -***-                        #
                  #######################################################


                         Program Version 5.0.4 -  RELEASE  -


 With contributions from (in alphabetic order):
   Daniel Aravena         : Magnetic Suceptibility
   Michael Atanasov       : Ab Initio Ligand Field Theory (pilot matlab implementation)
   Alexander A. Auer      : GIAO ZORA, VPT2 properties, NMR spectrum
   Ute Becker             : Parallelization
   Giovanni Bistoni       : ED, misc. LED, open-shell LED, HFLD
   Martin Brehm           : Molecular dynamics
   Dmytro Bykov           : SCF Hessian
   Vijay G. Chilkuri      : MRCI spin determinant printing, contributions to CSF-ICE
   Dipayan Datta          : RHF DLPNO-CCSD density
   Achintya Kumar Dutta   : EOM-CC, STEOM-CC
   Dmitry Ganyushin       : Spin-Orbit,Spin-Spin,Magnetic field MRCI
   Miquel Garcia          : C-PCM and meta-GGA Hessian, CC/C-PCM, Gaussian charge scheme
   Yang Guo               : DLPNO-NEVPT2, F12-NEVPT2, CIM, IAO-localization
   Andreas Hansen         : Spin unrestricted coupled pair/coupled cluster methods
   Benjamin Helmich-Paris : MC-RPA, TRAH-SCF, COSX integrals
   Lee Huntington         : MR-EOM, pCC
   Robert Izsak           : Overlap fitted RIJCOSX, COSX-SCS-MP3, EOM
   Marcus Kettner         : VPT2
   Christian Kollmar      : KDIIS, OOCD, Brueckner-CCSD(T), CCSD density, CASPT2, CASPT2-K
   Simone Kossmann        : Meta GGA functionals, TD-DFT gradient, OOMP2, MP2 Hessian
   Martin Krupicka        : Initial AUTO-CI
   Lucas Lang             : DCDCAS
   Marvin Lechner         : AUTO-CI (C++ implementation), FIC-MRCC
   Dagmar Lenk            : GEPOL surface, SMD
   Dimitrios Liakos       : Extrapolation schemes; Compound Job, initial MDCI parallelization
   Dimitrios Manganas     : Further ROCIS development; embedding schemes
   Dimitrios Pantazis     : SARC Basis sets
   Anastasios Papadopoulos: AUTO-CI, single reference methods and gradients
   Taras Petrenko         : DFT Hessian,TD-DFT gradient, ASA, ECA, R-Raman, ABS, FL, XAS/XES, NRVS
   Peter Pinski           : DLPNO-MP2, DLPNO-MP2 Gradient
   Christoph Reimann      : Effective Core Potentials
   Marius Retegan         : Local ZFS, SOC
   Christoph Riplinger    : Optimizer, TS searches, QM/MM, DLPNO-CCSD(T), (RO)-DLPNO pert. Triples
   Tobias Risthaus        : Range-separated hybrids, TD-DFT gradient, RPA, STAB
   Michael Roemelt        : Original ROCIS implementation
   Masaaki Saitow         : Open-shell DLPNO-CCSD energy and density
   Barbara Sandhoefer     : DKH picture change effects
   Avijit Sen             : IP-ROCIS
   Kantharuban Sivalingam : CASSCF convergence, NEVPT2, FIC-MRCI
   Bernardo de Souza      : ESD, SOC TD-DFT
   Georgi Stoychev        : AutoAux, RI-MP2 NMR, DLPNO-MP2 response
   Willem Van den Heuvel  : Paramagnetic NMR
   Boris Wezisla          : Elementary symmetry handling
   Frank Wennmohs         : Technical directorship


 We gratefully acknowledge several colleagues who have allowed us to
 interface, adapt or use parts of their codes:
   Stefan Grimme, W. Hujo, H. Kruse, P. Pracht,  : VdW corrections, initial TS optimization,
                  C. Bannwarth, S. Ehlert          DFT functionals, gCP, sTDA/sTD-DF
   Ed Valeev, F. Pavosevic, A. Kumar             : LibInt (2-el integral package), F12 methods
   Garnet Chan, S. Sharma, J. Yang, R. Olivares  : DMRG
   Ulf Ekstrom                                   : XCFun DFT Library
   Mihaly Kallay                                 : mrcc  (arbitrary order and MRCC methods)
   Jiri Pittner, Ondrej Demel                    : Mk-CCSD
   Frank Weinhold                                : gennbo (NPA and NBO analysis)
   Christopher J. Cramer and Donald G. Truhlar   : smd solvation model
   Lars Goerigk                                  : TD-DFT with DH, B97 family of functionals
   V. Asgeirsson, H. Jonsson                     : NEB implementation
   FAccTs GmbH                                   : IRC, NEB, NEB-TS, DLPNO-Multilevel, CI-OPT
                                                   MM, QMMM, 2- and 3-layer-ONIOM, Crystal-QMMM,
                                                   LR-CPCM, SF, NACMEs, symmetry and pop. for TD-DFT,
                                                   nearIR, NL-DFT gradient (VV10), updates on ESD,
                                                   ML-optimized integration grids
   S Lehtola, MJT Oliveira, MAL Marques          : LibXC Library
   Liviu Ungur et al                             : ANISO software


 Your calculation uses the libint2 library for the computation of 2-el integrals
 For citations please refer to: http://libint.valeyev.net

 Your ORCA version has been built with support for libXC version: 5.1.0
 For citations please refer to: https://tddft.org/programs/libxc/

 This ORCA versions uses:
   CBLAS   interface :  Fast vector & matrix operations
   LAPACKE interface :  Fast linear algebra routines
   SCALAPACK package :  Parallel linear algebra routines
   Shared memory     :  Shared parallel matrices
   BLAS/LAPACK       :  OpenBLAS 0.3.15  USE64BITINT DYNAMIC_ARCH NO_AFFINITY Zen SINGLE_THREADED
        Core in use  :  Zen
   Copyright (c) 2011-2014, The OpenBLAS Project




***************************************
The coordinates will be read from file: model.xyz
***************************************


================================================================================

----- Orbital basis set information -----
Your calculation utilizes the basis: EPR-II
   V. Barone, in Recent Advances in Density Functional Methods, Part 1 (ed. D. P. Chong), World Scientific, Singapore, 1995, p. 287.

----- AuxJ basis set information -----
Your calculation utilizes the auxiliary basis: def2/J
   F. Weigend, Phys. Chem. Chem. Phys. 8, 1057 (2006).

================================================================================
                                        WARNINGS
                       Please study these warnings very carefully!
================================================================================


WARNING: your system is open-shell and RHF/RKS was chosen
  ===> : WILL SWITCH to UHF/UKS


WARNING: Geometry Optimization
  ===> : Switching off AutoStart
         For restart on a previous wavefunction, please use MOREAD

INFO   : the flag for use of the SHARK integral package has been found!

================================================================================
                                       INPUT FILE
================================================================================
NAME = opt.inp
|  1> ! B3LYP EPR-II OPT
|  2> %pal nprocs 16 end
|  3> *XYZFile 1 2 model.xyz
|  4> 
|  5>                          ****END OF INPUT****
================================================================================

                       *****************************
                       * Geometry Optimization Run *
                       *****************************

Geometry optimization settings:
Update method            Update   .... BFGS
Choice of coordinates    CoordSys .... Z-matrix Internals
Initial Hessian          InHess   .... Almoef's Model

Convergence Tolerances:
Energy Change            TolE     ....  5.0000e-06 Eh
Max. Gradient            TolMAXG  ....  3.0000e-04 Eh/bohr
RMS Gradient             TolRMSG  ....  1.0000e-04 Eh/bohr
Max. Displacement        TolMAXD  ....  4.0000e-03 bohr
RMS Displacement         TolRMSD  ....  2.0000e-03 bohr
Strict Convergence                ....  False
------------------------------------------------------------------------------
                        ORCA OPTIMIZATION COORDINATE SETUP
------------------------------------------------------------------------------

The optimization will be done in new redundant internal coordinates
Making redundant internal coordinates   ...  (new redundants) done
Evaluating the initial hessian          ...  (Almloef) done
Evaluating the coordinates              ...  done
Calculating the B-matrix                .... done
Calculating the G-matrix                .... done
Diagonalizing the G-matrix              .... done
Small eigenvalue found = 5.706e-03
Small eigenvalue found = 6.299e-03
Small eigenvalue found = 1.044e-02
Small eigenvalue found = 2.218e-02
Small eigenvalue found = 2.626e-02
The first mode is                       ....   67
The number of degrees of freedom        ....   93

    -----------------------------------------------------------------
                    Redundant Internal Coordinates


    -----------------------------------------------------------------
         Definition                    Initial Value    Approx d2E/dq
    -----------------------------------------------------------------
      1. B(C   1,N   0)                  1.4454         0.456615   
      2. B(C   2,C   1)                  1.5368         0.364409   
      3. B(O   3,C   2)                  1.2183         1.051653   
      4. B(C   4,C   1)                  1.5530         0.343330   
      5. B(C   5,C   4)                  1.5364         0.364884   
      6. B(C   6,C   5)                  1.5434         0.355677   
      7. B(C   7,C   6)                  1.4866         0.438188   
      8. B(N   8,C   7)                  1.4798         0.402285   
      9. B(H   9,N   8)                  1.0257         0.408526   
     10. B(H  10,N   8)                  1.0269         0.406665   
     11. B(H  11,N   0)                  1.0107         0.431557   
     12. B(C  12,N   0)                  1.3615         0.621447   
     13. B(N  13,C   2)                  1.3479         0.653280   
     14. B(H  14,N  13)                  1.0081         0.435764   
     15. B(O  15,C  12)                  1.2163         1.059397   
     16. B(H  16,N   8)                  1.0306         0.401155   
     17. B(C  17,N  13)                  1.4544         0.441769   
     18. B(H  18,C  17)                  1.0971         0.350812   
     19. B(H  19,C  17)                  1.0934         0.355576   
     20. B(H  20,C  17)                  1.0946         0.354050   
     21. B(C  21,C  12)                  1.5200         0.387570   
     22. B(H  22,C  21)                  1.0940         0.354854   
     23. B(H  23,C  21)                  1.0973         0.350510   
     24. B(H  24,C  21)                  1.0952         0.353297   
     25. B(H  25,C   1)                  1.0980         0.349719   
     26. B(H  26,C   4)                  1.0994         0.347821   
     27. B(H  27,C   4)                  1.0974         0.350387   
     28. B(H  28,C   5)                  1.0980         0.349629   
     29. B(H  29,C   5)                  1.0972         0.350710   
     30. B(H  30,C   6)                  1.1086         0.336349   
     31. B(H  31,C   6)                  1.1030         0.343278   
     32. B(H  32,C   7)                  1.0872         0.363886   
     33. A(C   1,N   0,C  12)          121.6104         0.405875   
     34. A(H  11,N   0,C  12)          121.8425         0.358648   
     35. A(C   1,N   0,H  11)          116.4178         0.340479   
     36. A(N   0,C   1,H  25)          108.8028         0.331618   
     37. A(N   0,C   1,C   4)          112.6258         0.368351   
     38. A(C   2,C   1,H  25)          110.6748         0.321455   
     39. A(C   4,C   1,H  25)          107.1230         0.318341   
     40. A(N   0,C   1,C   2)          107.2853         0.372144   
     41. A(C   2,C   1,C   4)          110.3477         0.356650   
     42. A(C   1,C   2,N  13)          115.9586         0.396054   
     43. A(C   1,C   2,O   3)          120.7445         0.430991   
     44. A(O   3,C   2,N  13)          123.2285         0.476084   
     45. A(C   1,C   4,H  26)          108.5863         0.318059   
     46. A(C   1,C   4,H  27)          106.3703         0.318441   
     47. A(C   1,C   4,C   5)          113.2527         0.356729   
     48. A(H  26,C   4,H  27)          108.0266         0.288025   
     49. A(C   5,C   4,H  26)          110.1934         0.321238   
     50. A(C   5,C   4,H  27)          110.2155         0.321624   
     51. A(C   6,C   5,H  28)          109.7318         0.320169   
     52. A(C   4,C   5,C   6)          110.8681         0.358878   
     53. A(H  28,C   5,H  29)          107.0279         0.288300   
     54. A(C   6,C   5,H  29)          109.0753         0.320331   
     55. A(C   4,C   5,H  29)          109.3720         0.321673   
     56. A(C   4,C   5,H  28)          110.6737         0.321510   
     57. A(C   5,C   6,C   7)          111.4524         0.370295   
     58. A(C   7,C   6,H  30)          109.6126         0.329232   
     59. A(C   5,C   6,H  30)          109.3363         0.318152   
     60. A(H  30,C   6,H  31)          106.0549         0.285606   
     61. A(C   5,C   6,H  31)          110.0607         0.319212   
     62. A(C   7,C   6,H  31)          110.1754         0.330343   
     63. A(C   6,C   7,H  32)          124.9375         0.333549   
     64. A(N   8,C   7,H  32)          113.3635         0.326889   
     65. A(C   6,C   7,N   8)          117.5444         0.375866   
     66. A(H   9,N   8,H  10)          107.7262         0.297536   
     67. A(H  10,N   8,H  16)          106.9684         0.296678   
     68. A(H   9,N   8,H  16)          107.3576         0.296893   
     69. A(C   7,N   8,H  10)          110.4428         0.330107   
     70. A(C   7,N   8,H  16)          112.6047         0.329363   
     71. A(C   7,N   8,H   9)          111.4984         0.330356   
     72. A(O  15,C  12,C  21)          122.5697         0.436370   
     73. A(N   0,C  12,C  21)          115.9542         0.396865   
     74. A(N   0,C  12,O  15)          121.4657         0.472368   
     75. A(H  14,N  13,C  17)          118.7488         0.339153   
     76. A(C   2,N  13,C  17)          121.4540         0.407089   
     77. A(C   2,N  13,H  14)          118.9010         0.362314   
     78. A(H  19,C  17,H  20)          109.4436         0.289492   
     79. A(H  18,C  17,H  20)          108.2564         0.288881   
     80. A(N  13,C  17,H  20)          109.6591         0.330482   
     81. A(H  18,C  17,H  19)          109.4083         0.289076   
     82. A(N  13,C  17,H  19)          108.8258         0.330717   
     83. A(N  13,C  17,H  18)          111.2276         0.329980   
     84. A(H  23,C  21,H  24)          108.6591         0.288746   
     85. A(H  22,C  21,H  24)          110.1835         0.289304   
     86. A(C  12,C  21,H  24)          113.1596         0.325264   
     87. A(H  22,C  21,H  23)          107.7620         0.288945   
     88. A(C  12,C  21,H  23)          108.0754         0.324841   
     89. A(C  12,C  21,H  22)          108.8416         0.325499   
     90. D(C   4,C   1,N   0,H  11)   -112.4392         0.017794   
     91. D(H  25,C   1,N   0,C  12)    -46.9893         0.017794   
     92. D(C   2,C   1,N   0,H  11)      9.1768         0.017794   
     93. D(C   4,C   1,N   0,C  12)     71.6220         0.017794   
     94. D(C   2,C   1,N   0,C  12)   -166.7619         0.017794   
     95. D(H  25,C   1,N   0,H  11)    128.9495         0.017794   
     96. D(N  13,C   2,C   1,C   4)    -87.7589         0.009967   
     97. D(N  13,C   2,C   1,H  25)     30.6384         0.009967   
     98. D(O   3,C   2,C   1,N   0)    -33.7051         0.009967   
     99. D(O   3,C   2,C   1,H  25)   -152.2744         0.009967   
    100. D(O   3,C   2,C   1,C   4)     89.3283         0.009967   
    101. D(N  13,C   2,C   1,N   0)    149.2077         0.009967   
    102. D(C   5,C   4,C   1,C   2)    -62.2597         0.009528   
    103. D(C   5,C   4,C   1,H  25)    177.1910         0.009528   
    104. D(C   5,C   4,C   1,N   0)     57.6013         0.009528   
    105. D(H  27,C   4,C   1,H  25)     55.9783         0.009528   
    106. D(H  27,C   4,C   1,C   2)    176.5275         0.009528   
    107. D(H  26,C   4,C   1,H  25)    -60.0658         0.009528   
    108. D(H  26,C   4,C   1,C   2)     60.4835         0.009528   
    109. D(H  26,C   4,C   1,N   0)   -179.6555         0.009528   
    110. D(H  27,C   4,C   1,N   0)    -63.6115         0.009528   
    111. D(H  29,C   5,C   4,H  27)     64.3470         0.010662   
    112. D(H  29,C   5,C   4,H  26)   -176.5221         0.010662   
    113. D(H  29,C   5,C   4,C   1)    -54.6738         0.010662   
    114. D(H  28,C   5,C   4,H  27)   -177.9782         0.010662   
    115. D(H  28,C   5,C   4,H  26)    -58.8473         0.010662   
    116. D(H  28,C   5,C   4,C   1)     63.0010         0.010662   
    117. D(C   6,C   5,C   4,H  27)    -55.9701         0.010662   
    118. D(C   6,C   5,C   4,H  26)     63.1608         0.010662   
    119. D(C   6,C   5,C   4,C   1)   -174.9909         0.010662   
    120. D(C   7,C   6,C   5,C   4)    179.4953         0.010167   
    121. D(H  31,C   6,C   5,H  28)    179.5048         0.010167   
    122. D(H  31,C   6,C   5,C   4)     56.9480         0.010167   
    123. D(H  30,C   6,C   5,H  29)   -179.6596         0.010167   
    124. D(H  30,C   6,C   5,H  28)     63.3906         0.010167   
    125. D(H  30,C   6,C   5,C   4)    -59.1662         0.010167   
    126. D(C   7,C   6,C   5,H  29)     59.0020         0.010167   
    127. D(H  31,C   6,C   5,H  29)    -63.5454         0.010167   
    128. D(C   7,C   6,C   5,H  28)    -57.9478         0.010167   
    129. D(H  32,C   7,C   6,H  31)    157.5927         0.014170   
    130. D(H  32,C   7,C   6,H  30)    -86.0662         0.014170   
    131. D(H  32,C   7,C   6,C   5)     35.1113         0.014170   
    132. D(N   8,C   7,C   6,H  31)    -46.9112         0.014170   
    133. D(N   8,C   7,C   6,H  30)     69.4299         0.014170   
    134. D(N   8,C   7,C   6,C   5)   -169.3927         0.014170   
    135. D(H  16,N   8,C   7,H  32)     82.9283         0.013814   
    136. D(H  16,N   8,C   7,C   6)    -75.3329         0.013814   
    137. D(H  10,N   8,C   7,H  32)   -157.5620         0.013814   
    138. D(H  10,N   8,C   7,C   6)     44.1768         0.013814   
    139. D(H   9,N   8,C   7,H  32)    -37.8233         0.013814   
    140. D(H   9,N   8,C   7,C   6)    163.9155         0.013814   
    141. D(C  21,C  12,N   0,H  11)     -2.2599         0.031284   
    142. D(C  21,C  12,N   0,C   1)    173.4583         0.031284   
    143. D(O  15,C  12,N   0,H  11)    178.8825         0.031284   
    144. D(O  15,C  12,N   0,C   1)     -5.3994         0.031284   
    145. D(C  17,N  13,C   2,O   3)      2.4695         0.034860   
    146. D(C  17,N  13,C   2,C   1)    179.4767         0.034860   
    147. D(H  14,N  13,C   2,O   3)    171.4962         0.034860   
    148. D(H  14,N  13,C   2,C   1)    -11.4966         0.034860   
    149. D(H  19,C  17,N  13,H  14)     20.9698         0.016642   
    150. D(H  19,C  17,N  13,C   2)   -169.9873         0.016642   
    151. D(H  18,C  17,N  13,H  14)    -99.6315         0.016642   
    152. D(H  18,C  17,N  13,C   2)     69.4114         0.016642   
    153. D(H  20,C  17,N  13,H  14)    140.6565         0.016642   
    154. D(H  20,C  17,N  13,C   2)    -50.3005         0.016642   
    155. D(H  24,C  21,C  12,O  15)   -162.7178         0.011183   
    156. D(H  24,C  21,C  12,N   0)     18.4385         0.011183   
    157. D(H  23,C  21,C  12,O  15)     76.9073         0.011183   
    158. D(H  23,C  21,C  12,N   0)   -101.9364         0.011183   
    159. D(H  22,C  21,C  12,O  15)    -39.8647         0.011183   
    160. D(H  22,C  21,C  12,N   0)    141.2916         0.011183   
    -----------------------------------------------------------------

Number of atoms                         .... 33
Number of degrees of freedom            .... 160

         *************************************************************
         *                GEOMETRY OPTIMIZATION CYCLE   1            *
         *************************************************************
---------------------------------
CARTESIAN COORDINATES (ANGSTROEM)
---------------------------------
  N     -7.826620    0.918098    0.078837
  C     -6.387360    0.856226    0.196195
  C     -6.051297    0.851211    1.695753
  O     -6.738961    1.467806    2.490165
  C     -5.678620    2.042736   -0.512066
  C     -6.128788    3.416341    0.008610
  C     -5.486770    4.553494   -0.813989
  C     -5.923318    5.889031   -0.328530
  N     -5.585734    7.064150   -1.162239
  H     -6.141027    7.884840   -0.897504
  H     -5.772137    6.866748   -2.152595
  H     -8.340374    1.090417    0.932025
  C     -8.457502    0.672209   -1.102310
  N     -4.934411    0.183875    2.047845
  H     -4.486510   -0.409668    1.367165
  O     -7.832681    0.485541   -2.128981
  H     -4.592298    7.328801   -1.090099
  C     -4.498211    0.112135    3.433393
  H     -5.177311   -0.507604    4.032062
  H     -3.492589   -0.316046    3.465000
  H     -4.479997    1.117362    3.866248
  C     -9.975607    0.620173   -1.047398
  H    -10.378174    1.095267   -1.946870
  H    -10.280842   -0.433789   -1.060324
  H    -10.390721    1.094223   -0.151629
  H     -6.032461   -0.065337   -0.283690
  H     -4.592414    1.926972   -0.387431
  H     -5.909871    1.947837   -1.580663
  H     -5.868565    3.533303    1.068930
  H     -7.220829    3.493273   -0.064594
  H     -4.382867    4.476160   -0.748010
  H     -5.737511    4.436194   -1.881711
  H     -6.119885    6.139978    0.710840

----------------------------
CARTESIAN COORDINATES (A.U.)
----------------------------
  NO LB      ZA    FRAG     MASS         X           Y           Z
   0 N     7.0000    0    14.007  -14.790169    1.734954    0.148981
   1 C     6.0000    0    12.011  -12.070362    1.618033    0.370755
   2 C     6.0000    0    12.011  -11.435295    1.608556    3.204508
   3 O     8.0000    0    15.999  -12.734791    2.773752    4.705730
   4 C     6.0000    0    12.011  -10.731036    3.860211   -0.967665
   5 C     6.0000    0    12.011  -11.581731    6.455950    0.016270
   6 C     6.0000    0    12.011  -10.368492    8.604857   -1.538217
   7 C     6.0000    0    12.011  -11.193448   11.128655   -0.620832
   8 N     7.0000    0    14.007  -10.555507   13.349310   -2.196314
   9 H     1.0000    0     1.008  -11.604859   14.900188   -1.696038
  10 H     1.0000    0     1.008  -10.907758   12.976272   -4.067814
  11 H     1.0000    0     1.008  -15.761022    2.060590    1.761272
  12 C     6.0000    0    12.011  -15.982363    1.270292   -2.083064
  13 N     7.0000    0    14.007   -9.324686    0.347474    3.869866
  14 H     1.0000    0     1.008   -8.478275   -0.774160    2.583568
  15 O     8.0000    0    15.999  -14.801622    0.917540   -4.023191
  16 H     1.0000    0     1.008   -8.678186   13.849427   -2.059989
  17 C     6.0000    0    12.011   -8.500388    0.211905    6.488172
  18 H     1.0000    0     1.008   -9.783699   -0.959233    7.619494
  19 H     1.0000    0     1.008   -6.600037   -0.597240    6.547901
  20 H     1.0000    0     1.008   -8.465968    2.111508    7.306150
  21 C     6.0000    0    12.011  -18.851166    1.171958   -1.979296
  22 H     1.0000    0     1.008  -19.611906    2.069755   -3.679052
  23 H     1.0000    0     1.008  -19.427976   -0.819742   -2.003722
  24 H     1.0000    0     1.008  -19.635618    2.067782   -0.286538
  25 H     1.0000    0     1.008  -11.399698   -0.123468   -0.536097
  26 H     1.0000    0     1.008   -8.678404    3.641450   -0.732139
  27 H     1.0000    0     1.008  -11.168037    3.680879   -2.987020
  28 H     1.0000    0     1.008  -11.089980    6.676974    2.019985
  29 H     1.0000    0     1.008  -13.645390    6.601328   -0.122066
  30 H     1.0000    0     1.008   -8.282419    8.458716   -1.413534
  31 H     1.0000    0     1.008  -10.842324    8.383191   -3.555918
  32 H     1.0000    0     1.008  -11.564907   11.602877    1.343292

--------------------------------
INTERNAL COORDINATES (ANGSTROEM)
--------------------------------
 N      0   0   0     0.000000000000     0.00000000     0.00000000
 C      1   0   0     1.445361345187     0.00000000     0.00000000
 C      2   1   0     1.536761677912   107.28527795     0.00000000
 O      3   2   1     1.218262034241   120.74447207   326.29491800
 C      2   1   3     1.552981474111   112.62582902   238.38391537
 C      5   2   1     1.536407658845   113.25274582    57.60128563
 C      6   5   2     1.543364136778   110.86807131   185.00912892
 C      7   6   5     1.486574208443   111.45239086   179.49534567
 N      8   7   6     1.479844741399   117.54439317   190.60733859
 H      9   8   7     1.025654079785   111.49835217   163.91551753
 H      9   8   7     1.026897188827   110.44276099    44.17677727
 H      1   2   3     1.010725335675   116.41781909     9.17684505
 C      1   2   3     1.361463332667   121.61038246   193.23806227
 N      3   2   1     1.347865037625   115.95861013   149.20766401
 H     14   3   2     1.008084271410   118.90095039   348.50341365
 O     13   1   2     1.216264948353   121.46572397   354.60064719
 H      9   8   7     1.030610765106   112.60466136   284.66705536
 C     14   3   2     1.454358935619   121.45401171   179.47670100
 H     18  14   3     1.097113288971   111.22756306    69.41139912
 H     18  14   3     1.093441224047   108.82581262   190.01270966
 H     18  14   3     1.094612291340   109.65908420   309.69948081
 C     13   1   2     1.519988674298   115.95417914   173.45825384
 H     22  13   1     1.093994599535   108.84156101   141.29156525
 H     22  13   1     1.097347575790   108.07536561   258.06356394
 H     22  13   1     1.095191531792   113.15959237    18.43846936
 H      2   1   3     1.097962420997   108.80278310   119.77265455
 H      5   2   1     1.099444360464   108.58632694   180.34450271
 H      5   2   1     1.097443134275   106.37032910   296.38853414
 H      6   5   2     1.098032440484   110.67372231    63.00099816
 H      6   5   2     1.097192282242   109.37204502   305.32616065
 H      7   6   5     1.108573279495   109.33627136   300.83380523
 H      7   6   5     1.103023049968   110.06071527    56.94798525
 H      8   7   6     1.087153258409   124.93750824    35.11129023

---------------------------
INTERNAL COORDINATES (A.U.)
---------------------------
 N      0   0   0     0.000000000000     0.00000000     0.00000000
 C      1   0   0     2.731337106959     0.00000000     0.00000000
 C      2   1   0     2.904058704358   107.28527795     0.00000000
 O      3   2   1     2.302181604070   120.74447207   326.29491800
 C      2   1   3     2.934709677123   112.62582902   238.38391537
 C      5   2   1     2.903389705277   113.25274582    57.60128563
 C      6   5   2     2.916535543426   110.86807131   185.00912892
 C      7   6   5     2.809218131707   111.45239086   179.49534567
 N      8   7   6     2.796501281968   117.54439317   190.60733859
 H      9   8   7     1.938205318933   111.49835217   163.91551753
 H      9   8   7     1.940554454577   110.44276099    44.17677727
 H      1   2   3     1.909994081041   116.41781909     9.17684505
 C      1   2   3     2.572792840116   121.61038246   193.23806227
 N      3   2   1     2.547095786598   115.95861013   149.20766401
 H     14   3   2     1.905003192879   118.90095039   348.50341365
 O     13   1   2     2.298407658675   121.46572397   354.60064719
 H      9   8   7     1.947572096722   112.60466136   284.66705536
 C     14   3   2     2.748340088740   121.45401171   179.47670100
 H     18  14   3     2.073243654041   111.22756306    69.41139912
 H     18  14   3     2.066304456989   108.82581262   190.01270966
 H     18  14   3     2.068517453456   109.65908420   309.69948081
 C     13   1   2     2.872362321085   115.95417914   173.45825384
 H     22  13   1     2.067350185109   108.84156101   141.29156525
 H     22  13   1     2.073686391965   108.07536561   258.06356394
 H     22  13   1     2.069612059276   113.15959237    18.43846936
 H      2   1   3     2.074848281021   108.80278310   119.77265455
 H      5   2   1     2.077648740760   108.58632694   180.34450271
 H      5   2   1     2.073866971331   106.37032910   296.38853414
 H      6   5   2     2.074980598675   110.67372231    63.00099816
 H      6   5   2     2.073392929689   109.37204502   305.32616065
 H      7   6   5     2.094899897629   109.33627136   300.83380523
 H      7   6   5     2.084411483842   110.06071527    56.94798525
 H      8   7   6     2.054421923994   124.93750824    35.11129023

---------------------
BASIS SET INFORMATION
---------------------
There are 4 groups of distinct atoms

 Group   1 Type N   : 10s5p1d contracted to 6s2p1d pattern {511111/41/1}
 Group   2 Type C   : 10s5p1d contracted to 6s2p1d pattern {511111/41/1}
 Group   3 Type O   : 10s5p1d contracted to 6s2p1d pattern {511111/41/1}
 Group   4 Type H   : 6s1p contracted to 4s1p pattern {3111/1}

Atom   0N    basis set group =>   1
Atom   1C    basis set group =>   2
Atom   2C    basis set group =>   2
Atom   3O    basis set group =>   3
Atom   4C    basis set group =>   2
Atom   5C    basis set group =>   2
Atom   6C    basis set group =>   2
Atom   7C    basis set group =>   2
Atom   8N    basis set group =>   1
Atom   9H    basis set group =>   4
Atom  10H    basis set group =>   4
Atom  11H    basis set group =>   4
Atom  12C    basis set group =>   2
Atom  13N    basis set group =>   1
Atom  14H    basis set group =>   4
Atom  15O    basis set group =>   3
Atom  16H    basis set group =>   4
Atom  17C    basis set group =>   2
Atom  18H    basis set group =>   4
Atom  19H    basis set group =>   4
Atom  20H    basis set group =>   4
Atom  21C    basis set group =>   2
Atom  22H    basis set group =>   4
Atom  23H    basis set group =>   4
Atom  24H    basis set group =>   4
Atom  25H    basis set group =>   4
Atom  26H    basis set group =>   4
Atom  27H    basis set group =>   4
Atom  28H    basis set group =>   4
Atom  29H    basis set group =>   4
Atom  30H    basis set group =>   4
Atom  31H    basis set group =>   4
Atom  32H    basis set group =>   4
---------------------------------
AUXILIARY/J BASIS SET INFORMATION
---------------------------------
There are 4 groups of distinct atoms

 Group   1 Type N   : 12s5p4d2f1g contracted to 6s4p3d1f1g pattern {711111/2111/211/2/1}
 Group   2 Type C   : 12s5p4d2f1g contracted to 6s4p3d1f1g pattern {711111/2111/211/2/1}
 Group   3 Type O   : 12s5p4d2f1g contracted to 6s4p3d1f1g pattern {711111/2111/211/2/1}
 Group   4 Type H   : 5s2p1d contracted to 3s1p1d pattern {311/2/1}

Atom   0N    basis set group =>   1
Atom   1C    basis set group =>   2
Atom   2C    basis set group =>   2
Atom   3O    basis set group =>   3
Atom   4C    basis set group =>   2
Atom   5C    basis set group =>   2
Atom   6C    basis set group =>   2
Atom   7C    basis set group =>   2
Atom   8N    basis set group =>   1
Atom   9H    basis set group =>   4
Atom  10H    basis set group =>   4
Atom  11H    basis set group =>   4
Atom  12C    basis set group =>   2
Atom  13N    basis set group =>   1
Atom  14H    basis set group =>   4
Atom  15O    basis set group =>   3
Atom  16H    basis set group =>   4
Atom  17C    basis set group =>   2
Atom  18H    basis set group =>   4
Atom  19H    basis set group =>   4
Atom  20H    basis set group =>   4
Atom  21C    basis set group =>   2
Atom  22H    basis set group =>   4
Atom  23H    basis set group =>   4
Atom  24H    basis set group =>   4
Atom  25H    basis set group =>   4
Atom  26H    basis set group =>   4
Atom  27H    basis set group =>   4
Atom  28H    basis set group =>   4
Atom  29H    basis set group =>   4
Atom  30H    basis set group =>   4
Atom  31H    basis set group =>   4
Atom  32H    basis set group =>   4


           ************************************************************
           *        Program running with 16 parallel MPI-processes    *
           *              working on a common directory               *
           ************************************************************
------------------------------------------------------------------------------
                           ORCA GTO INTEGRAL CALCULATION
                           -- RI-GTO INTEGRALS CHOSEN --
------------------------------------------------------------------------------
------------------------------------------------------------------------------
                   ___                                                        
                  /   \      - P O W E R E D   B Y -                         
                 /     \                                                     
                 |  |  |   _    _      __       _____    __    __             
                 |  |  |  | |  | |    /  \     |  _  \  |  |  /  |          
                  \  \/   | |  | |   /    \    | | | |  |  | /  /          
                 / \  \   | |__| |  /  /\  \   | |_| |  |  |/  /          
                |  |  |   |  __  | /  /__\  \  |    /   |      \           
                |  |  |   | |  | | |   __   |  |    \   |  |\   \          
                \     /   | |  | | |  |  |  |  | |\  \  |  | \   \       
                 \___/    |_|  |_| |__|  |__|  |_| \__\ |__|  \__/        
                                                                              
                      - O R C A' S   B I G   F R I E N D -                    
                                      &                                       
                       - I N T E G R A L  F E E D E R -                       
                                                                              
 v1 FN, 2020, v2 2021                                                         
------------------------------------------------------------------------------


Reading SHARK input file opt.SHARKINP.tmp ... ok
----------------------
SHARK INTEGRAL PACKAGE
----------------------

Number of atoms                             ...     33
Number of basis functions                   ...    371
Number of shells                            ...    221
Maximum angular momentum                    ...      2
Integral batch strategy                     ... SHARK/LIBINT Hybrid
RI-J (if used) integral strategy            ... SPLIT-RIJ (Revised 2003 algorithm where possible)
Printlevel                                  ...      1
Contraction scheme used                     ... SEGMENTED contraction
Coulomb Range Separation                    ... NOT USED
Exchange Range Separation                   ... NOT USED
Finite Nucleus Model                        ... NOT USED
Auxiliary Coulomb fitting basis             ... AVAILABLE
   # of basis functions in Aux-J            ...    895
   # of shells in Aux-J                     ...    305
   Maximum angular momentum in Aux-J        ...      4
Auxiliary J/K fitting basis                 ... NOT available
Auxiliary Correlation fitting basis         ... NOT available
Auxiliary 'external' fitting basis          ... NOT available
Integral threshold                          ...     2.500000e-11
Primitive cut-off                           ...     2.500000e-12
Primitive pair pre-selection threshold      ...     2.500000e-12

Calculating pre-screening integrals         ... done (  0.0 sec) Dimension = 221
Organizing shell pair data                  ... done (  0.0 sec)
Shell pair information
Total number of shell pairs                 ...     24531
Shell pairs after pre-screening             ...     15802
Total number of primitive shell pairs       ...     64184
Primitive shell pairs kept                  ...     30143
          la=0 lb=0:   7443 shell pairs
          la=1 lb=0:   5400 shell pairs
          la=1 lb=1:    924 shell pairs
          la=2 lb=0:   1441 shell pairs
          la=2 lb=1:    513 shell pairs
          la=2 lb=2:     81 shell pairs

Calculating one electron integrals          ... done (  0.0 sec)
Calculating RI/J V-Matrix + Cholesky decomp.... done (  0.0 sec)
Calculating Nuclear repulsion               ... done (  0.0 sec) ENN=    936.682702952963 Eh

SHARK setup successfully completed in   0.3 seconds

Maximum memory used throughout the entire GTOINT-calculation: 22.8 MB


           ************************************************************
           *        Program running with 16 parallel MPI-processes    *
           *              working on a common directory               *
           ************************************************************
-------------------------------------------------------------------------------
                                 ORCA SCF
-------------------------------------------------------------------------------

------------
SCF SETTINGS
------------
Hamiltonian:
 Density Functional     Method          .... DFT(GTOs)
 Exchange Functional    Exchange        .... B88
   X-Alpha parameter    XAlpha          ....  0.666667
   Becke's b parameter  XBeta           ....  0.004200
 Correlation Functional Correlation     .... LYP
 LDA part of GGA corr.  LDAOpt          .... VWN-5
 Gradients option       PostSCFGGA      .... off
 Hybrid DFT is turned on
   Fraction HF Exchange ScalHFX         ....  0.200000
   Scaling of DF-GGA-X  ScalDFX         ....  0.720000
   Scaling of DF-GGA-C  ScalDFC         ....  0.810000
   Scaling of DF-LDA-C  ScalLDAC        ....  1.000000
   Perturbative correction              ....  0.000000
   Density functional embedding theory  .... OFF
   NL short-range parameter             ....  4.800000
 RI-approximation to the Coulomb term is turned on
   Number of AuxJ basis functions       .... 895
   RIJ-COSX (HFX calculated with COS-X)).... on


General Settings:
 Integral files         IntName         .... opt
 Hartree-Fock type      HFTyp           .... UHF
 Total Charge           Charge          ....    1
 Multiplicity           Mult            ....    2
 Number of Electrons    NEL             ....  109
 Basis Dimension        Dim             ....  371
 Nuclear Repulsion      ENuc            ....    936.6827029530 Eh

Convergence Acceleration:
 DIIS                   CNVDIIS         .... on
   Start iteration      DIISMaxIt       ....    12
   Startup error        DIISStart       ....  0.200000
   # of expansion vecs  DIISMaxEq       ....     5
   Bias factor          DIISBfac        ....   1.050
   Max. coefficient     DIISMaxC        ....  10.000
 Trust-Rad. Augm. Hess. CNVTRAH         .... auto
   Auto Start mean grad. ratio tolernc. ....  1.125000
   Auto Start start iteration           ....    20
   Auto Start num. interpolation iter.  ....    10
   Max. Number of Micro iterations      ....    16
   Max. Number of Macro iterations      .... Maxiter - #DIIS iter
   Number of Davidson start vectors     ....     2
   Converg. threshold I  (grad. norm)   ....   1.000e-05
   Converg. threshold II (energy diff.) ....   1.000e-08
   Grad. Scal. Fac. for Micro threshold ....   0.100
   Minimum threshold for Micro iter.    ....   0.010
   NR start threshold (gradient norm)   ....   0.001
   Initial trust radius                 ....   0.400
   Minimum AH scaling param. (alpha)    ....   1.000
   Maximum AH scaling param. (alpha)    .... 1000.000
   Orbital update algorithm             .... Taylor
   White noise on init. David. guess    .... on
   Maximum white noise                  ....   0.010
   Quad. conv. algorithm                .... NR
 SOSCF                  CNVSOSCF        .... off
 Level Shifting         CNVShift        .... on
   Level shift para.    LevelShift      ....    0.2500
   Turn off err/grad.   ShiftErr        ....    0.0010
 Zerner damping         CNVZerner       .... off
 Static damping         CNVDamp         .... on
   Fraction old density DampFac         ....    0.7000
   Max. Damping (<1)    DampMax         ....    0.9800
   Min. Damping (>=0)   DampMin         ....    0.0000
   Turn off err/grad.   DampErr         ....    0.1000
 Fernandez-Rico         CNVRico         .... off

SCF Procedure:
 Maximum # iterations   MaxIter         ....   125
 SCF integral mode      SCFMode         .... Direct
   Integral package                     .... SHARK and LIBINT hybrid scheme
 Reset frequency        DirectResetFreq ....    20
 Integral Threshold     Thresh          ....  2.500e-11 Eh
 Primitive CutOff       TCut            ....  2.500e-12 Eh

Convergence Tolerance:
 Convergence Check Mode ConvCheckMode   .... Total+1el-Energy
 Convergence forced     ConvForced      .... 0
 Energy Change          TolE            ....  1.000e-08 Eh
 1-El. energy change                    ....  1.000e-05 Eh
 DIIS Error             TolErr          ....  5.000e-07


Diagonalization of the overlap matrix:
Smallest eigenvalue                        ... 1.054e-03
Time for diagonalization                   ...    0.015 sec
Threshold for overlap eigenvalues          ... 1.000e-08
Number of eigenvalues below threshold      ... 0
Time for construction of square roots      ...    0.013 sec
Total time needed                          ...    0.029 sec

Time for model grid setup =    0.125 sec

------------------------------
INITIAL GUESS: MODEL POTENTIAL
------------------------------
Loading Hartree-Fock densities                     ... done
Calculating cut-offs                               ... done
Initializing the effective Hamiltonian             ... done
Setting up the integral package (SHARK)            ... done
Starting the Coulomb interaction                   ... done (   0.1 sec)
Reading the grid                                   ... done
Mapping shells                                     ... done
Starting the XC term evaluation                    ... done (   0.0 sec)
  promolecular density results
     # of electrons  =    109.997907296
     EX              =    -88.086262942
     EC              =     -3.689549673
     EX+EC           =    -91.775812615
Transforming the Hamiltonian                       ... done (   0.0 sec)
Diagonalizing the Hamiltonian                      ... done (   0.0 sec)
Back transforming the eigenvectors                 ... done (   0.0 sec)
Now organizing SCF variables                       ... done
                      ------------------
                      INITIAL GUESS DONE (   0.3 sec)
                      ------------------
-------------------
DFT GRID GENERATION
-------------------

General Integration Accuracy     IntAcc      ... 4.388
Radial Grid Type                 RadialGrid  ... OptM3 with GC (2021)
Angular Grid (max. ang.)         AngularGrid ... 4 (Lebedev-302)
Angular grid pruning method      GridPruning ... 4 (adaptive)
Weight generation scheme         WeightScheme... Becke
Basis function cutoff            BFCut       ... 1.0000e-11
Integration weight cutoff        WCut        ... 1.0000e-14
Angular grids for H and He will be reduced by one unit
Partially contracted basis set               ... off
Rotationally invariant grid construction     ... off

Total number of grid points                  ...   144729
Total number of batches                      ...     2278
Average number of points per batch           ...       63
Average number of grid points per atom       ...     4386
Time for grid setup =    0.609 sec

--------------------
COSX GRID GENERATION
--------------------

GRIDX 1
-------
General Integration Accuracy     IntAcc      ... 3.816
Radial Grid Type                 RadialGrid  ... OptM3 with GC (2021)
Angular Grid (max. ang.)         AngularGrid ... 1 (Lebedev-50)
Angular grid pruning method      GridPruning ... 4 (adaptive)
Weight generation scheme         WeightScheme... Becke
Basis function cutoff            BFCut       ... 1.0000e-11
Integration weight cutoff        WCut        ... 1.0000e-14
Angular grids for H and He will be reduced by one unit
Partially contracted basis set               ... on
Rotationally invariant grid construction     ... off

Total number of grid points                  ...    18483
Total number of batches                      ...      306
Average number of points per batch           ...       60
Average number of grid points per atom       ...      560
UseSFitting                                  ... on

GRIDX 2
-------
General Integration Accuracy     IntAcc      ... 4.020
Radial Grid Type                 RadialGrid  ... OptM3 with GC (2021)
Angular Grid (max. ang.)         AngularGrid ... 2 (Lebedev-110)
Angular grid pruning method      GridPruning ... 4 (adaptive)
Weight generation scheme         WeightScheme... Becke
Basis function cutoff            BFCut       ... 1.0000e-11
Integration weight cutoff        WCut        ... 1.0000e-14
Angular grids for H and He will be reduced by one unit
Partially contracted basis set               ... on
Rotationally invariant grid construction     ... off

Total number of grid points                  ...    39004
Total number of batches                      ...      626
Average number of points per batch           ...       62
Average number of grid points per atom       ...     1182
UseSFitting                                  ... on

GRIDX 3
-------
General Integration Accuracy     IntAcc      ... 4.338
Radial Grid Type                 RadialGrid  ... OptM3 with GC (2021)
Angular Grid (max. ang.)         AngularGrid ... 3 (Lebedev-194)
Angular grid pruning method      GridPruning ... 4 (adaptive)
Weight generation scheme         WeightScheme... Becke
Basis function cutoff            BFCut       ... 1.0000e-11
Integration weight cutoff        WCut        ... 1.0000e-14
Angular grids for H and He will be reduced by one unit
Partially contracted basis set               ... on
Rotationally invariant grid construction     ... off

Total number of grid points                  ...    85007
Total number of batches                      ...     1344
Average number of points per batch           ...       63
Average number of grid points per atom       ...     2576
UseSFitting                                  ... on

Time for X-Grid setup             =    0.682 sec

--------------
SCF ITERATIONS
--------------
ITER       Energy         Delta-E        Max-DP      RMS-DP      [F,P]     Damp
               ***  Starting incremental Fock matrix formation  ***
  0   -668.1136435537   0.000000000000 0.06354299  0.00088660  0.1306191 0.7000
  1   -668.3330929555  -0.219449401842 0.03711795  0.00061933  0.0516933 0.7000
                               ***Turning on DIIS***
  2   -668.4138746666  -0.080781711086 0.05220931  0.00098097  0.0182804 0.0000
  3   -668.5468745203  -0.132999853747 0.03198997  0.00044990  0.0248774 0.0000
  4   -668.5750286263  -0.028154105936 0.01195449  0.00015339  0.0067518 0.0000
  5   -668.5765808414  -0.001552215125 0.00526031  0.00005932  0.0050764 0.0000
  6   -668.5769484434  -0.000367602055 0.00317661  0.00003283  0.0006247 0.0000
               *** Restarting incremental Fock matrix formation ***
                                   *** Resetting DIIS ***
  7   -668.5769824516  -0.000034008127 0.00152602  0.00001618  0.0005662 0.0000
  8   -668.5769737056   0.000008745990 0.00102825  0.00000923  0.0008601 0.0000
  9   -668.5769910745  -0.000017368910 0.00020941  0.00000235  0.0000997 0.0000
 10   -668.5769910623   0.000000012239 0.00014597  0.00000145  0.0001421 0.0000
 11   -668.5769914010  -0.000000338702 0.00004445  0.00000051  0.0000318 0.0000
 12   -668.5769914142  -0.000000013237 0.00001922  0.00000021  0.0000170 0.0000
 13   -668.5769914213  -0.000000007097 0.00000536  0.00000008  0.0000034 0.0000
 14   -668.5769914178   0.000000003475 0.00000530  0.00000004  0.0000038 0.0000
 15   -668.5769914173   0.000000000480 0.00000223  0.00000002  0.0000024 0.0000
                            ***DIIS convergence achieved***

               *****************************************************
               *                     SUCCESS                       *
               *           SCF CONVERGED AFTER  16 CYCLES          *
               *****************************************************

Old exchange energy                            =    -17.890472486 Eh
New exchange energy                            =    -17.890464511 Eh
Exchange energy change after final integration =      0.000007975 Eh
Total energy after final integration           =   -668.576983448 Eh
Final COS-X integration done in                =     2.279 sec

----------------
TOTAL SCF ENERGY
----------------

Total Energy       :         -668.57698345 Eh          -18192.90463 eV

Components:
Nuclear Repulsion  :          936.68270295 Eh           25488.43215 eV
Electronic Energy  :        -1605.25968640 Eh          -43681.33678 eV
One Electron Energy:        -2753.99741134 Eh          -74940.07944 eV
Two Electron Energy:         1148.73772494 Eh           31258.74266 eV
Max COSX asymmetry :            0.00000114 Eh               0.00003 eV

Virial components:
Potential Energy   :        -1332.79030652 Eh          -36267.06802 eV
Kinetic Energy     :          664.21332307 Eh           18074.16339 eV
Virial Ratio       :            2.00656967


DFT components:
N(Alpha)           :       55.000090960679 electrons
N(Beta)            :       54.000107656472 electrons
N(Total)           :      109.000198617151 electrons
E(X)               :      -71.049084915674 Eh       
E(C)               :       -4.315542594203 Eh       
E(XC)              :      -75.364627509877 Eh       
DFET-embed. en.    :        0.000000000000 Eh       

---------------
SCF CONVERGENCE
---------------

  Last Energy change         ...   -5.6968e-09  Tolerance :   1.0000e-08
  Last MAX-Density change    ...    0.0000e+00  Tolerance :   1.0000e-07
  Last RMS-Density change    ...    0.0000e+00  Tolerance :   5.0000e-09
  Last DIIS Error            ...    3.4124e-07  Tolerance :   5.0000e-07

             **** THE GBW FILE WAS UPDATED (opt.gbw) ****
             **** DENSITY opt.scfp WAS UPDATED ****
             **** ENERGY FILE WAS UPDATED (opt.en.tmp) ****
----------------------
UHF SPIN CONTAMINATION
----------------------

Warning: in a DFT calculation there is little theoretical justification to 
         calculate <S**2> as in Hartree-Fock theory. We will do it anyways
         but you should keep in mind that the values have only limited relevance

Expectation value of <S**2>     :     0.753945
Ideal value S*(S+1) for S=0.5   :     0.750000
Deviation                       :     0.003945

             **** THE GBW FILE WAS UPDATED (opt.gbw) ****
             **** DENSITY opt.scfp WAS UPDATED ****
----------------
ORBITAL ENERGIES
----------------
                 SPIN UP ORBITALS
  NO   OCC          E(Eh)            E(eV) 
   0   1.0000     -19.205326      -522.6035 
   1   1.0000     -19.184118      -522.0264 
   2   1.0000     -14.658934      -398.8899 
   3   1.0000     -14.454294      -393.3213 
   4   1.0000     -14.435955      -392.8223 
   5   1.0000     -10.437257      -284.0122 
   6   1.0000     -10.384270      -282.5703 
   7   1.0000     -10.369690      -282.1736 
   8   1.0000     -10.360222      -281.9160 
   9   1.0000     -10.329800      -281.0881 
  10   1.0000     -10.314074      -280.6602 
  11   1.0000     -10.300296      -280.2853 
  12   1.0000     -10.295383      -280.1516 
  13   1.0000     -10.262086      -279.2455 
  14   1.0000      -1.209181       -32.9035 
  15   1.0000      -1.138481       -30.9796 
  16   1.0000      -1.116676       -30.3863 
  17   1.0000      -1.017471       -27.6868 
  18   1.0000      -1.007774       -27.4229 
  19   1.0000      -0.962743       -26.1976 
  20   1.0000      -0.892094       -24.2751 
  21   1.0000      -0.847806       -23.0700 
  22   1.0000      -0.809824       -22.0364 
  23   1.0000      -0.805325       -21.9140 
  24   1.0000      -0.786319       -21.3968 
  25   1.0000      -0.783981       -21.3332 
  26   1.0000      -0.750643       -20.4260 
  27   1.0000      -0.716493       -19.4968 
  28   1.0000      -0.681821       -18.5533 
  29   1.0000      -0.680726       -18.5235 
  30   1.0000      -0.657038       -17.8789 
  31   1.0000      -0.626781       -17.0556 
  32   1.0000      -0.610168       -16.6035 
  33   1.0000      -0.592060       -16.1108 
  34   1.0000      -0.574844       -15.6423 
  35   1.0000      -0.554541       -15.0898 
  36   1.0000      -0.549414       -14.9503 
  37   1.0000      -0.544039       -14.8040 
  38   1.0000      -0.532967       -14.5028 
  39   1.0000      -0.524945       -14.2845 
  40   1.0000      -0.516713       -14.0605 
  41   1.0000      -0.496013       -13.4972 
  42   1.0000      -0.486416       -13.2360 
  43   1.0000      -0.482010       -13.1161 
  44   1.0000      -0.480889       -13.0856 
  45   1.0000      -0.471264       -12.8238 
  46   1.0000      -0.461489       -12.5578 
  47   1.0000      -0.456305       -12.4167 
  48   1.0000      -0.455434       -12.3930 
  49   1.0000      -0.428403       -11.6574 
  50   1.0000      -0.411258       -11.1909 
  51   1.0000      -0.356812        -9.7094 
  52   1.0000      -0.353123        -9.6090 
  53   1.0000      -0.335987        -9.1427 
  54   1.0000      -0.330586        -8.9957 
  55   0.0000      -0.187438        -5.1004 
  56   0.0000      -0.116976        -3.1831 
  57   0.0000      -0.105952        -2.8831 
  58   0.0000      -0.087545        -2.3822 
  59   0.0000      -0.080379        -2.1872 
  60   0.0000      -0.067900        -1.8477 
  61   0.0000      -0.066537        -1.8106 
  62   0.0000      -0.056325        -1.5327 
  63   0.0000      -0.049516        -1.3474 
  64   0.0000      -0.043078        -1.1722 
  65   0.0000      -0.037528        -1.0212 
  66   0.0000      -0.022917        -0.6236 
  67   0.0000      -0.011492        -0.3127 
  68   0.0000      -0.008281        -0.2253 
  69   0.0000      -0.003297        -0.0897 
  70   0.0000       0.019320         0.5257 
  71   0.0000       0.023925         0.6510 
  72   0.0000       0.029687         0.8078 
  73   0.0000       0.046710         1.2710 
  74   0.0000       0.050388         1.3711 
  75   0.0000       0.064385         1.7520 
  76   0.0000       0.072252         1.9661 
  77   0.0000       0.078580         2.1383 
  78   0.0000       0.083042         2.2597 
  79   0.0000       0.090392         2.4597 
  80   0.0000       0.091995         2.5033 
  81   0.0000       0.102173         2.7803 
  82   0.0000       0.110827         3.0158 
  83   0.0000       0.116543         3.1713 
  84   0.0000       0.118333         3.2200 
  85   0.0000       0.123280         3.3546 
  86   0.0000       0.125434         3.4132 
  87   0.0000       0.133701         3.6382 
  88   0.0000       0.139726         3.8021 
  89   0.0000       0.142924         3.8892 
  90   0.0000       0.150897         4.1061 
  91   0.0000       0.154727         4.2103 
  92   0.0000       0.165864         4.5134 
  93   0.0000       0.172959         4.7064 
  94   0.0000       0.178514         4.8576 
  95   0.0000       0.184722         5.0265 
  96   0.0000       0.191459         5.2099 
  97   0.0000       0.197892         5.3849 
  98   0.0000       0.202820         5.5190 
  99   0.0000       0.210499         5.7280 
 100   0.0000       0.215151         5.8546 
 101   0.0000       0.220199         5.9919 
 102   0.0000       0.222102         6.0437 
 103   0.0000       0.226830         6.1724 
 104   0.0000       0.234439         6.3794 
 105   0.0000       0.245385         6.6773 
 106   0.0000       0.262826         7.1519 
 107   0.0000       0.263363         7.1665 
 108   0.0000       0.280475         7.6321 
 109   0.0000       0.285633         7.7725 
 110   0.0000       0.295586         8.0433 
 111   0.0000       0.299134         8.1398 
 112   0.0000       0.302177         8.2226 
 113   0.0000       0.319155         8.6846 
 114   0.0000       0.328687         8.9440 
 115   0.0000       0.338758         9.2181 
 116   0.0000       0.347289         9.4502 
 117   0.0000       0.353868         9.6292 
 118   0.0000       0.364471         9.9177 
 119   0.0000       0.379512        10.3271 
 120   0.0000       0.387952        10.5567 
 121   0.0000       0.396936        10.8012 
 122   0.0000       0.401966        10.9381 
 123   0.0000       0.407364        11.0849 
 124   0.0000       0.424307        11.5460 
 125   0.0000       0.435966        11.8632 
 126   0.0000       0.439455        11.9582 
 127   0.0000       0.455320        12.3899 
 128   0.0000       0.466357        12.6902 
 129   0.0000       0.485327        13.2064 
 130   0.0000       0.506655        13.7868 
 131   0.0000       0.519478        14.1357 
 132   0.0000       0.522179        14.2092 
 133   0.0000       0.536831        14.6079 
 134   0.0000       0.544878        14.8269 
 135   0.0000       0.576553        15.6888 
 136   0.0000       0.589892        16.0518 
 137   0.0000       0.608367        16.5545 
 138   0.0000       0.612035        16.6543 
 139   0.0000       0.633039        17.2259 
 140   0.0000       0.647758        17.6264 
 141   0.0000       0.670870        18.2553 
 142   0.0000       0.688959        18.7475 
 143   0.0000       0.705218        19.1900 
 144   0.0000       0.716100        19.4861 
 145   0.0000       0.726406        19.7665 
 146   0.0000       0.729999        19.8643 
 147   0.0000       0.739736        20.1293 
 148   0.0000       0.745233        20.2788 
 149   0.0000       0.752736        20.4830 
 150   0.0000       0.758336        20.6354 
 151   0.0000       0.764584        20.8054 
 152   0.0000       0.770233        20.9591 
 153   0.0000       0.783632        21.3237 
 154   0.0000       0.786150        21.3922 
 155   0.0000       0.791683        21.5428 
 156   0.0000       0.802022        21.8241 
 157   0.0000       0.804958        21.9040 
 158   0.0000       0.816854        22.2277 
 159   0.0000       0.827282        22.5115 
 160   0.0000       0.846061        23.0225 
 161   0.0000       0.848962        23.1014 
 162   0.0000       0.852765        23.2049 
 163   0.0000       0.860506        23.4156 
 164   0.0000       0.862109        23.4592 
 165   0.0000       0.865688        23.5566 
 166   0.0000       0.882522        24.0146 
 167   0.0000       0.900282        24.4979 
 168   0.0000       0.909615        24.7519 
 169   0.0000       0.922558        25.1041 
 170   0.0000       0.931994        25.3609 
 171   0.0000       0.945791        25.7363 
 172   0.0000       0.954785        25.9810 
 173   0.0000       0.970295        26.4031 
 174   0.0000       0.974069        26.5058 
 175   0.0000       0.998602        27.1734 
 176   0.0000       1.014233        27.5987 
 177   0.0000       1.027017        27.9466 
 178   0.0000       1.041630        28.3442 
 179   0.0000       1.056762        28.7560 
 180   0.0000       1.071415        29.1547 
 181   0.0000       1.081532        29.4300 
 182   0.0000       1.090840        29.6833 
 183   0.0000       1.102258        29.9940 
 184   0.0000       1.125114        30.6159 
 185   0.0000       1.130246        30.7556 
 186   0.0000       1.137301        30.9475 
 187   0.0000       1.148099        31.2414 
 188   0.0000       1.163587        31.6628 
 189   0.0000       1.182235        32.1703 
 190   0.0000       1.192488        32.4492 
 191   0.0000       1.205069        32.7916 
 192   0.0000       1.260840        34.3092 
 193   0.0000       1.263334        34.3771 
 194   0.0000       1.271248        34.5924 
 195   0.0000       1.280930        34.8559 
 196   0.0000       1.288803        35.0701 
 197   0.0000       1.324408        36.0390 
 198   0.0000       1.332783        36.2669 
 199   0.0000       1.339205        36.4416 
 200   0.0000       1.347038        36.6548 
 201   0.0000       1.374083        37.3907 
 202   0.0000       1.391157        37.8553 
 203   0.0000       1.399797        38.0904 
 204   0.0000       1.405765        38.2528 
 205   0.0000       1.416335        38.5404 
 206   0.0000       1.425719        38.7958 
 207   0.0000       1.429933        38.9104 
 208   0.0000       1.432702        38.9858 
 209   0.0000       1.444015        39.2936 
 210   0.0000       1.463327        39.8191 
 211   0.0000       1.477113        40.1943 
 212   0.0000       1.486337        40.4453 
 213   0.0000       1.496876        40.7321 
 214   0.0000       1.501523        40.8585 
 215   0.0000       1.506625        40.9973 
 216   0.0000       1.522210        41.4214 
 217   0.0000       1.537066        41.8257 
 218   0.0000       1.545614        42.0583 
 219   0.0000       1.548345        42.1326 
 220   0.0000       1.561736        42.4970 
 221   0.0000       1.570580        42.7377 
 222   0.0000       1.583162        43.0800 
 223   0.0000       1.591095        43.2959 
 224   0.0000       1.599765        43.5318 
 225   0.0000       1.607931        43.7540 
 226   0.0000       1.619276        44.0627 
 227   0.0000       1.620339        44.0917 
 228   0.0000       1.639540        44.6142 
 229   0.0000       1.649132        44.8752 
 230   0.0000       1.654773        45.0287 
 231   0.0000       1.665025        45.3076 
 232   0.0000       1.668333        45.3976 
 233   0.0000       1.687156        45.9099 
 234   0.0000       1.720621        46.8205 
 235   0.0000       1.724930        46.9377 
 236   0.0000       1.742456        47.4146 
 237   0.0000       1.764260        48.0079 
 238   0.0000       1.775008        48.3004 
 239   0.0000       1.789919        48.7062 
 240   0.0000       1.797098        48.9015 
 241   0.0000       1.818818        49.4925 
 242   0.0000       1.844288        50.1856 
 243   0.0000       1.849858        50.3372 
 244   0.0000       1.880591        51.1735 
 245   0.0000       1.892398        51.4948 
 246   0.0000       1.912516        52.0422 
 247   0.0000       1.919681        52.2372 
 248   0.0000       1.954651        53.1887 
 249   0.0000       1.956416        53.2368 
 250   0.0000       1.965495        53.4838 
 251   0.0000       1.984898        54.0118 
 252   0.0000       1.996439        54.3259 
 253   0.0000       2.014580        54.8195 
 254   0.0000       2.047326        55.7106 
 255   0.0000       2.064710        56.1836 
 256   0.0000       2.084026        56.7092 
 257   0.0000       2.106240        57.3137 
 258   0.0000       2.113098        57.5003 
 259   0.0000       2.126278        57.8590 
 260   0.0000       2.148816        58.4723 
 261   0.0000       2.160384        58.7870 
 262   0.0000       2.180373        59.3310 
 263   0.0000       2.183571        59.4180 
 264   0.0000       2.193586        59.6905 
 265   0.0000       2.208956        60.1088 
 266   0.0000       2.224425        60.5297 
 267   0.0000       2.234045        60.7915 
 268   0.0000       2.257805        61.4380 
 269   0.0000       2.276293        61.9411 
 270   0.0000       2.282572        62.1119 
 271   0.0000       2.295957        62.4762 
 272   0.0000       2.309941        62.8567 
 273   0.0000       2.314529        62.9815 
 274   0.0000       2.327946        63.3466 
 275   0.0000       2.350440        63.9587 
 276   0.0000       2.354889        64.0798 
 277   0.0000       2.363772        64.3215 
 278   0.0000       2.383313        64.8533 
 279   0.0000       2.387485        64.9668 
 280   0.0000       2.409718        65.5718 
 281   0.0000       2.413316        65.6697 
 282   0.0000       2.422367        65.9160 
 283   0.0000       2.453603        66.7659 
 284   0.0000       2.457774        66.8794 
 285   0.0000       2.501167        68.0602 
 286   0.0000       2.521801        68.6217 
 287   0.0000       2.538428        69.0741 
 288   0.0000       2.548874        69.3584 
 289   0.0000       2.572764        70.0085 
 290   0.0000       2.620331        71.3028 
 291   0.0000       2.635953        71.7279 
 292   0.0000       2.644456        71.9593 
 293   0.0000       2.671664        72.6997 
 294   0.0000       2.686130        73.0933 
 295   0.0000       2.711181        73.7750 
 296   0.0000       2.736455        74.4627 
 297   0.0000       2.913208        79.2724 
 298   0.0000       2.956248        80.4436 
 299   0.0000       3.027675        82.3872 
 300   0.0000       3.041110        82.7528 
 301   0.0000       3.305598        89.9499 
 302   0.0000       3.358586        91.3918 
 303   0.0000       3.368764        91.6687 
 304   0.0000       3.376384        91.8761 
 305   0.0000       4.612415       125.5102 
 306   0.0000       4.654573       126.6574 
 307   0.0000       4.849141       131.9518 
 308   0.0000       4.875474       132.6684 
 309   0.0000       4.908602       133.5698 
 310   0.0000       4.915027       133.7447 
 311   0.0000       4.916583       133.7870 
 312   0.0000       4.934581       134.2768 
 313   0.0000       4.940184       134.4293 
 314   0.0000       4.945760       134.5810 
 315   0.0000       4.978100       135.4610 
 316   0.0000       4.989952       135.7835 
 317   0.0000       5.037175       137.0685 
 318   0.0000       5.069797       137.9562 
 319   0.0000       5.112678       139.1231 
 320   0.0000       5.127219       139.5187 
 321   0.0000       5.175528       140.8333 
 322   0.0000       5.185358       141.1008 
 323   0.0000       5.213834       141.8756 
 324   0.0000       5.225686       142.1981 
 325   0.0000       5.268026       143.3503 
 326   0.0000       5.280068       143.6780 
 327   0.0000       5.315295       144.6365 
 328   0.0000       5.488034       149.3370 
 329   0.0000       5.538233       150.7030 
 330   0.0000       5.611850       152.7062 
 331   0.0000       5.648557       153.7051 
 332   0.0000       5.744295       156.3102 
 333   0.0000       7.023190       191.1107 
 334   0.0000       7.237177       196.9336 
 335   0.0000       7.247209       197.2066 
 336   0.0000       9.006455       245.0781 
 337   0.0000       9.047706       246.2006 
 338   0.0000      29.434601       800.9562 
 339   0.0000      29.547297       804.0228 
 340   0.0000      29.598862       805.4260 
 341   0.0000      29.728216       808.9459 
 342   0.0000      29.836719       811.8984 
 343   0.0000      29.939203       814.6871 
 344   0.0000      30.000026       816.3422 
 345   0.0000      30.034565       817.2821 
 346   0.0000      30.161437       820.7344 
 347   0.0000      36.208349       985.2793 
 348   0.0000      36.245749       986.2970 
 349   0.0000      36.462689       992.2002 
 350   0.0000      36.520188       993.7648 
 351   0.0000      36.527980       993.9769 
 352   0.0000      36.534355       994.1503 
 353   0.0000      36.536439       994.2070 
 354   0.0000      36.552812       994.6526 
 355   0.0000      36.564595       994.9732 
 356   0.0000      36.590216       995.6704 
 357   0.0000      36.622059       996.5369 
 358   0.0000      36.637066       996.9452 
 359   0.0000      36.646670       997.2066 
 360   0.0000      36.705387       998.8044 
 361   0.0000      36.715171       999.0706 
 362   0.0000      36.757340      1000.2181 
 363   0.0000      36.813346      1001.7421 
 364   0.0000      36.831730      1002.2423 
 365   0.0000      36.842375      1002.5320 
 366   0.0000      40.951935      1114.3588 
 367   0.0000      41.172799      1120.3688 
 368   0.0000      41.197084      1121.0296 
 369   0.0000      53.544726      1457.0261 
 370   0.0000      53.581687      1458.0318 

                 SPIN DOWN ORBITALS
  NO   OCC          E(Eh)            E(eV) 
   0   1.0000     -19.205324      -522.6034 
   1   1.0000     -19.184114      -522.0263 
   2   1.0000     -14.659643      -398.9092 
   3   1.0000     -14.454291      -393.3213 
   4   1.0000     -14.435953      -392.8222 
   5   1.0000     -10.422351      -283.6066 
   6   1.0000     -10.384269      -282.5703 
   7   1.0000     -10.369691      -282.1736 
   8   1.0000     -10.360856      -281.9332 
   9   1.0000     -10.329806      -281.0883 
  10   1.0000     -10.313908      -280.6557 
  11   1.0000     -10.300296      -280.2853 
  12   1.0000     -10.295378      -280.1515 
  13   1.0000     -10.262085      -279.2455 
  14   1.0000      -1.204849       -32.7856 
  15   1.0000      -1.138477       -30.9795 
  16   1.0000      -1.116670       -30.3861 
  17   1.0000      -1.017464       -27.6866 
  18   1.0000      -1.007746       -27.4222 
  19   1.0000      -0.951276       -25.8855 
  20   1.0000      -0.885238       -24.0885 
  21   1.0000      -0.840252       -22.8644 
  22   1.0000      -0.807090       -21.9620 
  23   1.0000      -0.803812       -21.8728 
  24   1.0000      -0.783451       -21.3188 
  25   1.0000      -0.778111       -21.1735 
  26   1.0000      -0.749216       -20.3872 
  27   1.0000      -0.715119       -19.4594 
  28   1.0000      -0.681465       -18.5436 
  29   1.0000      -0.673263       -18.3204 
  30   1.0000      -0.655151       -17.8276 
  31   1.0000      -0.625659       -17.0250 
  32   1.0000      -0.600738       -16.3469 
  33   1.0000      -0.587082       -15.9753 
  34   1.0000      -0.573869       -15.6158 
  35   1.0000      -0.554045       -15.0763 
  36   1.0000      -0.547949       -14.9104 
  37   1.0000      -0.541706       -14.7406 
  38   1.0000      -0.531621       -14.4661 
  39   1.0000      -0.523369       -14.2416 
  40   1.0000      -0.515004       -14.0140 
  41   1.0000      -0.495671       -13.4879 
  42   1.0000      -0.485436       -13.2094 
  43   1.0000      -0.481789       -13.1102 
  44   1.0000      -0.480450       -13.0737 
  45   1.0000      -0.470971       -12.8158 
  46   1.0000      -0.461143       -12.5483 
  47   1.0000      -0.455615       -12.3979 
  48   1.0000      -0.455037       -12.3822 
  49   1.0000      -0.428147       -11.6505 
  50   1.0000      -0.356798        -9.7090 
  51   1.0000      -0.353128        -9.6091 
  52   1.0000      -0.335954        -9.1418 
  53   1.0000      -0.330573        -8.9954 
  54   0.0000      -0.257852        -7.0165 
  55   0.0000      -0.185795        -5.0557 
  56   0.0000      -0.115575        -3.1450 
  57   0.0000      -0.102081        -2.7778 
  58   0.0000      -0.082274        -2.2388 
  59   0.0000      -0.079936        -2.1752 
  60   0.0000      -0.067176        -1.8279 
  61   0.0000      -0.065710        -1.7881 
  62   0.0000      -0.054754        -1.4899 
  63   0.0000      -0.049084        -1.3356 
  64   0.0000      -0.042831        -1.1655 
  65   0.0000      -0.033179        -0.9029 
  66   0.0000      -0.020384        -0.5547 
  67   0.0000      -0.008520        -0.2319 
  68   0.0000      -0.004038        -0.1099 
  69   0.0000      -0.003205        -0.0872 
  70   0.0000       0.021045         0.5727 
  71   0.0000       0.027446         0.7469 
  72   0.0000       0.032180         0.8757 
  73   0.0000       0.048268         1.3135 
  74   0.0000       0.056120         1.5271 
  75   0.0000       0.066112         1.7990 
  76   0.0000       0.072873         1.9830 
  77   0.0000       0.081364         2.2140 
  78   0.0000       0.084909         2.3105 
  79   0.0000       0.091478         2.4893 
  80   0.0000       0.097129         2.6430 
  81   0.0000       0.104374         2.8402 
  82   0.0000       0.112053         3.0491 
  83   0.0000       0.118669         3.2291 
  84   0.0000       0.120028         3.2661 
  85   0.0000       0.124836         3.3970 
  86   0.0000       0.126937         3.4541 
  87   0.0000       0.136003         3.7008 
  88   0.0000       0.141804         3.8587 
  89   0.0000       0.150308         4.0901 
  90   0.0000       0.154505         4.2043 
  91   0.0000       0.161119         4.3843 
  92   0.0000       0.170531         4.6404 
  93   0.0000       0.177428         4.8281 
  94   0.0000       0.184513         5.0209 
  95   0.0000       0.185665         5.0522 
  96   0.0000       0.191968         5.2237 
  97   0.0000       0.198862         5.4113 
  98   0.0000       0.203118         5.5271 
  99   0.0000       0.212917         5.7938 
 100   0.0000       0.217928         5.9301 
 101   0.0000       0.221431         6.0254 
 102   0.0000       0.224846         6.1184 
 103   0.0000       0.228492         6.2176 
 104   0.0000       0.235496         6.4082 
 105   0.0000       0.247719         6.7408 
 106   0.0000       0.263615         7.1733 
 107   0.0000       0.264261         7.1909 
 108   0.0000       0.281789         7.6679 
 109   0.0000       0.287166         7.8142 
 110   0.0000       0.296828         8.0771 
 111   0.0000       0.299891         8.1605 
 112   0.0000       0.304925         8.2974 
 113   0.0000       0.322343         8.7714 
 114   0.0000       0.329100         8.9553 
 115   0.0000       0.340118         9.2551 
 116   0.0000       0.348556         9.4847 
 117   0.0000       0.355734         9.6800 
 118   0.0000       0.364884         9.9290 
 119   0.0000       0.382655        10.4126 
 120   0.0000       0.388266        10.5652 
 121   0.0000       0.397603        10.8193 
 122   0.0000       0.403800        10.9880 
 123   0.0000       0.410704        11.1758 
 124   0.0000       0.425282        11.5725 
 125   0.0000       0.436629        11.8813 
 126   0.0000       0.440426        11.9846 
 127   0.0000       0.456323        12.4172 
 128   0.0000       0.466925        12.7057 
 129   0.0000       0.485551        13.2125 
 130   0.0000       0.506770        13.7899 
 131   0.0000       0.520100        14.1526 
 132   0.0000       0.528425        14.3792 
 133   0.0000       0.540399        14.7050 
 134   0.0000       0.546115        14.8605 
 135   0.0000       0.577100        15.7037 
 136   0.0000       0.592843        16.1321 
 137   0.0000       0.609487        16.5850 
 138   0.0000       0.614732        16.7277 
 139   0.0000       0.635840        17.3021 
 140   0.0000       0.652700        17.7609 
 141   0.0000       0.672747        18.3064 
 142   0.0000       0.692552        18.8453 
 143   0.0000       0.709200        19.2983 
 144   0.0000       0.720212        19.5980 
 145   0.0000       0.727802        19.8045 
 146   0.0000       0.733324        19.9548 
 147   0.0000       0.742391        20.2015 
 148   0.0000       0.747289        20.3348 
 149   0.0000       0.753123        20.4935 
 150   0.0000       0.761943        20.7335 
 151   0.0000       0.766281        20.8516 
 152   0.0000       0.775684        21.1074 
 153   0.0000       0.787007        21.4156 
 154   0.0000       0.788482        21.4557 
 155   0.0000       0.794041        21.6070 
 156   0.0000       0.802269        21.8308 
 157   0.0000       0.805855        21.9284 
 158   0.0000       0.820406        22.3244 
 159   0.0000       0.827974        22.5303 
 160   0.0000       0.846998        23.0480 
 161   0.0000       0.849312        23.1110 
 162   0.0000       0.853155        23.2155 
 163   0.0000       0.861656        23.4468 
 164   0.0000       0.862782        23.4775 
 165   0.0000       0.866665        23.5831 
 166   0.0000       0.884030        24.0557 
 167   0.0000       0.901400        24.5283 
 168   0.0000       0.910384        24.7728 
 169   0.0000       0.927281        25.2326 
 170   0.0000       0.932491        25.3744 
 171   0.0000       0.947029        25.7700 
 172   0.0000       0.956038        26.0151 
 173   0.0000       0.971137        26.4260 
 174   0.0000       0.974448        26.5161 
 175   0.0000       0.999502        27.1978 
 176   0.0000       1.018089        27.7036 
 177   0.0000       1.030338        28.0369 
 178   0.0000       1.042329        28.3632 
 179   0.0000       1.057213        28.7682 
 180   0.0000       1.071749        29.1638 
 181   0.0000       1.082057        29.4443 
 182   0.0000       1.091469        29.7004 
 183   0.0000       1.106375        30.1060 
 184   0.0000       1.127896        30.6916 
 185   0.0000       1.137535        30.9539 
 186   0.0000       1.147756        31.2320 
 187   0.0000       1.152639        31.3649 
 188   0.0000       1.170003        31.8374 
 189   0.0000       1.187952        32.3258 
 190   0.0000       1.195761        32.5383 
 191   0.0000       1.209283        32.9063 
 192   0.0000       1.261548        34.3285 
 193   0.0000       1.264427        34.4068 
 194   0.0000       1.271564        34.6010 
 195   0.0000       1.288752        35.0687 
 196   0.0000       1.290273        35.1101 
 197   0.0000       1.325767        36.0760 
 198   0.0000       1.332906        36.2702 
 199   0.0000       1.339387        36.4466 
 200   0.0000       1.352335        36.7989 
 201   0.0000       1.375149        37.4197 
 202   0.0000       1.398416        38.0528 
 203   0.0000       1.405265        38.2392 
 204   0.0000       1.410402        38.3790 
 205   0.0000       1.421860        38.6908 
 206   0.0000       1.429904        38.9097 
 207   0.0000       1.433591        39.0100 
 208   0.0000       1.434728        39.0409 
 209   0.0000       1.445104        39.3233 
 210   0.0000       1.464592        39.8536 
[...]
      px      :     0.974368
      py      :     0.919995
      dz2     :     0.033703  d :     0.174084
      dxz     :     0.008133
      dyz     :     0.071227
      dx2y2   :     0.033493
      dxy     :     0.027527
  8 N s       :     3.020941  s :     3.020941
      pz      :     1.197557  p :     3.570472
      px      :     1.176050
      py      :     1.196865
      dz2     :     0.016446  d :     0.058572
      dxz     :     0.006150
      dyz     :     0.010507
      dx2y2   :     0.011663
      dxy     :     0.013806
  9 H s       :     0.739781  s :     0.739781
      pz      :     0.028177  p :     0.128131
      px      :     0.038091
      py      :     0.061863
 10 H s       :     0.738992  s :     0.738992
      pz      :     0.075113  p :     0.127635
      px      :     0.027471
      py      :     0.025050
 11 H s       :     0.755906  s :     0.755906
      pz      :     0.068510  p :     0.151929
      px      :     0.034958
      py      :     0.048461
 12 C s       :     2.844538  s :     2.844538
      pz      :     0.950681  p :     2.769929
      px      :     1.023354
      py      :     0.795894
      dz2     :     0.157083  d :     0.487342
      dxz     :     0.132130
      dyz     :     0.098950
      dx2y2   :     0.056718
      dxy     :     0.042462
 13 N s       :     3.066084  s :     3.066084
      pz      :     1.152034  p :     3.802855
      px      :     1.299263
      py      :     1.351558
      dz2     :     0.019647  d :     0.081027
      dxz     :     0.021599
      dyz     :     0.018080
      dx2y2   :     0.010110
      dxy     :     0.011591
 14 H s       :     0.771830  s :     0.771830
      pz      :     0.049819  p :     0.145173
      px      :     0.040962
      py      :     0.054393
 15 O s       :     3.584433  s :     3.584433
      pz      :     1.497289  p :     4.574726
      px      :     1.649753
      py      :     1.427684
      dz2     :     0.009939  d :     0.032047
      dxz     :     0.011836
      dyz     :     0.005735
      dx2y2   :     0.002354
      dxy     :     0.002183
 16 H s       :     0.740472  s :     0.740472
      pz      :     0.023234  p :     0.128557
      px      :     0.078240
      py      :     0.027083
 17 C s       :     2.856361  s :     2.856361
      pz      :     0.881311  p :     2.967722
      px      :     1.028804
      py      :     1.057607
      dz2     :     0.049287  d :     0.155890
      dxz     :     0.032824
      dyz     :     0.038703
      dx2y2   :     0.026365
      dxy     :     0.008711
 18 H s       :     0.881302  s :     0.881302
      pz      :     0.017982  p :     0.079976
      px      :     0.017757
      py      :     0.044237
 19 H s       :     0.885596  s :     0.885596
      pz      :     0.013028  p :     0.079604
      px      :     0.047986
      py      :     0.018590
 20 H s       :     0.861141  s :     0.861141
      pz      :     0.023311  p :     0.084168
      px      :     0.026737
      py      :     0.034120
 21 C s       :     2.868779  s :     2.868779
      pz      :     1.029793  p :     3.061518
      px      :     0.983855
      py      :     1.047869
      dz2     :     0.021474  d :     0.105379
      dxz     :     0.019292
      dyz     :     0.014142
      dx2y2   :     0.034118
      dxy     :     0.016354
 22 H s       :     0.863411  s :     0.863411
      pz      :     0.033291  p :     0.081615
      px      :     0.019769
      py      :     0.028555
 23 H s       :     0.855913  s :     0.855913
      pz      :     0.018484  p :     0.082124
      px      :     0.019363
      py      :     0.044277
 24 H s       :     0.882773  s :     0.882773
      pz      :     0.040329  p :     0.081595
      px      :     0.021718
      py      :     0.019549
 25 H s       :     0.853135  s :     0.853135
      pz      :     0.025044  p :     0.082247
      px      :     0.015838
      py      :     0.041364
 26 H s       :     0.869022  s :     0.869022
      pz      :     0.017748  p :     0.080941
      px      :     0.046582
      py      :     0.016611
 27 H s       :     0.852937  s :     0.852937
      pz      :     0.049295  p :     0.084968
      px      :     0.018771
      py      :     0.016901
 28 H s       :     0.860836  s :     0.860836
      pz      :     0.046994  p :     0.082774
      px      :     0.019383
      py      :     0.016397
 29 H s       :     0.859094  s :     0.859094
      pz      :     0.016386  p :     0.082997
      px      :     0.050254
      py      :     0.016358
 30 H s       :     0.844754  s :     0.844754
      pz      :     0.016496  p :     0.081083
      px      :     0.048646
      py      :     0.015941
 31 H s       :     0.856119  s :     0.856119
      pz      :     0.044961  p :     0.080428
      px      :     0.019501
      py      :     0.015966
 32 H s       :     0.843986  s :     0.843986
      pz      :     0.055409  p :     0.093898
      px      :     0.024582
      py      :     0.013907

SPIN
  0 N s       :     0.000016  s :     0.000016
      pz      :     0.000005  p :     0.000060
      px      :     0.000072
      py      :    -0.000016
      dz2     :    -0.000000  d :    -0.000004
      dxz     :    -0.000001
      dyz     :    -0.000000
      dx2y2   :    -0.000001
      dxy     :    -0.000002
  1 C s       :    -0.000038  s :    -0.000038
      pz      :    -0.000038  p :    -0.000118
      px      :    -0.000001
      py      :    -0.000079
      dz2     :     0.000003  d :     0.000074
      dxz     :     0.000003
      dyz     :     0.000003
      dx2y2   :     0.000053
      dxy     :     0.000012
  2 C s       :     0.000000  s :     0.000000
      pz      :     0.000007  p :    -0.000002
      px      :     0.000003
      py      :    -0.000012
      dz2     :     0.000001  d :     0.000001
      dxz     :    -0.000002
      dyz     :    -0.000004
      dx2y2   :    -0.000001
      dxy     :     0.000007
  3 O s       :     0.000001  s :     0.000001
      pz      :     0.000054  p :     0.000064
      px      :     0.000001
      py      :     0.000009
      dz2     :    -0.000000  d :    -0.000000
      dxz     :     0.000000
      dyz     :     0.000000
      dx2y2   :    -0.000000
      dxy     :    -0.000000
  4 C s       :    -0.000125  s :    -0.000125
      pz      :    -0.000026  p :     0.000654
      px      :     0.000700
      py      :    -0.000020
      dz2     :     0.000060  d :     0.000092
      dxz     :     0.000009
      dyz     :     0.000049
      dx2y2   :     0.000005
      dxy     :    -0.000032
  5 C s       :     0.001744  s :     0.001744
      pz      :     0.002380  p :     0.006211
      px      :     0.000211
      py      :     0.003620
      dz2     :     0.000020  d :    -0.000376
      dxz     :     0.000009
      dyz     :     0.000090
      dx2y2   :    -0.000350
      dxy     :    -0.000145
  6 C s       :    -0.002089  s :    -0.002089
      pz      :    -0.004882  p :    -0.017972
      px      :     0.000762
      py      :    -0.013852
      dz2     :     0.005010  d :     0.032955
      dxz     :     0.001692
      dyz     :     0.001683
      dx2y2   :     0.009288
      dxy     :     0.015282
  7 C s       :     0.039616  s :     0.039616
      pz      :     0.051620  p :     0.811699
      px      :     0.742583
      py      :     0.017497
      dz2     :    -0.001044  d :    -0.001689
      dxz     :    -0.000298
      dyz     :    -0.000930
      dx2y2   :     0.000324
      dxy     :     0.000259
  8 N s       :    -0.001464  s :    -0.001464
      pz      :    -0.006015  p :    -0.014694
      px      :    -0.000483
      py      :    -0.008196
      dz2     :     0.002786  d :     0.016422
      dxz     :     0.003585
      dyz     :     0.000531
      dx2y2   :     0.001681
      dxy     :     0.007839
  9 H s       :     0.005046  s :     0.005046
      pz      :    -0.000176  p :    -0.000816
      px      :    -0.000248
      py      :    -0.000392
 10 H s       :     0.011427  s :     0.011427
      pz      :    -0.000432  p :    -0.000853
      px      :    -0.000155
      py      :    -0.000267
 11 H s       :    -0.000004  s :    -0.000004
      pz      :     0.000000  p :     0.000004
      px      :     0.000004
      py      :    -0.000001
 12 C s       :    -0.000002  s :    -0.000002
      pz      :    -0.000004  p :    -0.000022
      px      :    -0.000002
      py      :    -0.000017
      dz2     :     0.000010  d :     0.000011
      dxz     :    -0.000000
      dyz     :    -0.000004
      dx2y2   :     0.000005
      dxy     :    -0.000000
 13 N s       :     0.000004  s :     0.000004
      pz      :     0.000004  p :     0.000116
      px      :     0.000071
      py      :     0.000041
      dz2     :    -0.000000  d :    -0.000001
      dxz     :    -0.000000
      dyz     :    -0.000000
      dx2y2   :    -0.000000
      dxy     :    -0.000000
 14 H s       :    -0.000004  s :    -0.000004
      pz      :    -0.000000  p :     0.000004
      px      :     0.000003
      py      :     0.000001
 15 O s       :     0.000001  s :     0.000001
      pz      :     0.000014  p :     0.000075
      px      :     0.000074
      py      :    -0.000013
      dz2     :    -0.000000  d :    -0.000000
      dxz     :    -0.000000
      dyz     :    -0.000000
      dx2y2   :    -0.000000
      dxy     :    -0.000000
 16 H s       :     0.034891  s :     0.034891
      pz      :     0.000347  p :     0.000029
      px      :    -0.000706
      py      :     0.000387
 17 C s       :    -0.000001  s :    -0.000001
      pz      :    -0.000003  p :    -0.000003
      px      :    -0.000001
      py      :     0.000001
      dz2     :     0.000000  d :     0.000006
      dxz     :     0.000002
      dyz     :     0.000002
      dx2y2   :     0.000001
      dxy     :     0.000000
 18 H s       :     0.000006  s :     0.000006
      pz      :    -0.000000  p :    -0.000000
      px      :    -0.000000
      py      :    -0.000000
 19 H s       :     0.000006  s :     0.000006
      pz      :    -0.000000  p :    -0.000000
      px      :    -0.000000
      py      :    -0.000000
 20 H s       :     0.000000  s :     0.000000
      pz      :    -0.000000  p :     0.000000
      px      :     0.000000
      py      :    -0.000000
 21 C s       :     0.000010  s :     0.000010
      pz      :     0.000001  p :     0.000020
      px      :     0.000019
      py      :     0.000001
      dz2     :     0.000000  d :    -0.000001
      dxz     :    -0.000000
      dyz     :    -0.000000
      dx2y2   :    -0.000000
      dxy     :    -0.000001
 22 H s       :    -0.000001  s :    -0.000001
      pz      :     0.000000  p :     0.000000
      px      :     0.000000
      py      :     0.000000
 23 H s       :    -0.000001  s :    -0.000001
      pz      :     0.000000  p :     0.000001
      px      :     0.000000
      py      :     0.000000
 24 H s       :    -0.000001  s :    -0.000001
      pz      :     0.000000  p :     0.000000
      px      :     0.000000
      py      :     0.000000
 25 H s       :     0.000037  s :     0.000037
      pz      :    -0.000002  p :    -0.000009
      px      :    -0.000000
      py      :    -0.000007
 26 H s       :     0.000501  s :     0.000501
      pz      :     0.000003  p :     0.000094
      px      :     0.000035
      py      :     0.000057
 27 H s       :     0.000198  s :     0.000198
      pz      :     0.000017  p :     0.000010
      px      :     0.000002
      py      :    -0.000009
 28 H s       :    -0.000399  s :    -0.000399
      pz      :     0.000040  p :     0.000257
      px      :     0.000019
      py      :     0.000198
 29 H s       :    -0.000650  s :    -0.000650
      pz      :     0.000088  p :     0.000249
      px      :     0.000208
      py      :    -0.000047
 30 H s       :     0.053856  s :     0.053856
      pz      :    -0.000098  p :    -0.001563
      px      :    -0.001239
      py      :    -0.000226
 31 H s       :     0.020037  s :     0.020037
      pz      :    -0.000444  p :    -0.000884
      px      :    -0.000067
      py      :    -0.000373
 32 H s       :    -0.019283  s :    -0.019283
      pz      :     0.003868  p :     0.026563
      px      :     0.022272
      py      :     0.000423


                      *****************************
                      * MAYER POPULATION ANALYSIS *
                      *****************************

  NA   - Mulliken gross atomic population
  ZA   - Total nuclear charge
  QA   - Mulliken gross atomic charge
  VA   - Mayer's total valence
  BVA  - Mayer's bonded valence
  FA   - Mayer's free valence

  ATOM       NA         ZA         QA         VA         BVA        FA
  0 N      7.1355     7.0000    -0.1355     3.2678     3.2678     0.0000
  1 C      6.1042     6.0000    -0.1042     4.0850     4.0850     0.0000
  2 C      5.9193     6.0000     0.0807     4.0456     4.0456     0.0000
  3 O      8.3273     8.0000    -0.3273     2.1131     2.1131     0.0000
  4 C      6.2696     6.0000    -0.2696     3.9277     3.9277     0.0000
  5 C      6.2706     6.0000    -0.2706     3.9698     3.9698     0.0001
  6 C      6.2537     6.0000    -0.2537     3.9080     3.9052     0.0029
  7 C      6.1304     6.0000    -0.1304     3.6930     2.9164     0.7765
  8 N      7.3489     7.0000    -0.3489     3.5665     3.5653     0.0012
  9 H      0.6615     1.0000     0.3385     0.8890     0.8889     0.0000
 10 H      0.6643     1.0000     0.3357     0.8918     0.8916     0.0001
 11 H      0.7423     1.0000     0.2577     0.9615     0.9615     0.0000
 12 C      5.8289     6.0000     0.1711     3.9761     3.9761     0.0000
 13 N      7.1049     7.0000    -0.1049     3.2023     3.2023     0.0000
 14 H      0.7626     1.0000     0.2374     0.9586     0.9586     0.0000
 15 O      8.3170     8.0000    -0.3170     2.1202     2.1202     0.0000
 16 H      0.6662     1.0000     0.3338     0.8857     0.8840     0.0017
 17 C      6.4485     6.0000    -0.4485     3.8779     3.8779     0.0000
 18 H      0.8194     1.0000     0.1806     0.9525     0.9525     0.0000
 19 H      0.8348     1.0000     0.1652     0.9574     0.9574     0.0000
 20 H      0.8012     1.0000     0.1988     0.9640     0.9640     0.0000
 21 C      6.5420     6.0000    -0.5420     3.8500     3.8500     0.0000
 22 H      0.8158     1.0000     0.1842     0.9599     0.9599     0.0000
 23 H      0.8005     1.0000     0.1995     0.9559     0.9559     0.0000
 24 H      0.8496     1.0000     0.1504     0.9702     0.9702     0.0000
 25 H      0.8425     1.0000     0.1575     0.9499     0.9499     0.0000
 26 H      0.8552     1.0000     0.1448     0.9693     0.9693     0.0000
 27 H      0.8147     1.0000     0.1853     0.9603     0.9603     0.0000
 28 H      0.8214     1.0000     0.1786     0.9627     0.9627     0.0000
 29 H      0.8213     1.0000     0.1787     0.9676     0.9676     0.0000
 30 H      0.8137     1.0000     0.1863     0.9526     0.9486     0.0040
 31 H      0.8268     1.0000     0.1732     0.9619     0.9614     0.0005
 32 H      0.7849     1.0000     0.2151     0.9543     0.9521     0.0021

  Mayer bond orders larger than 0.100000
B(  0-N ,  1-C ) :   1.0172 B(  0-N , 11-H ) :   0.8975 B(  0-N , 12-C ) :   1.1904 
B(  1-C ,  2-C ) :   0.8952 B(  1-C ,  4-C ) :   0.9354 B(  1-C , 15-O ) :   0.1272 
B(  1-C , 25-H ) :   0.9748 B(  2-C ,  3-O ) :   1.8625 B(  2-C , 13-N ) :   1.2069 
B(  4-C ,  5-C ) :   0.9630 B(  4-C , 26-H ) :   0.9706 B(  4-C , 27-H ) :   0.9545 
B(  5-C ,  6-C ) :   0.9443 B(  5-C , 28-H ) :   0.9635 B(  5-C , 29-H ) :   0.9652 
B(  6-C ,  7-C ) :   1.0037 B(  6-C , 30-H ) :   0.9381 B(  6-C , 31-H ) :   0.9528 
B(  7-C ,  8-N ) :   0.8978 B(  7-C , 32-H ) :   0.9393 B(  8-N ,  9-H ) :   0.8844 
B(  8-N , 10-H ) :   0.8821 B(  8-N , 16-H ) :   0.8707 B( 12-C , 15-O ) :   1.8663 
B( 12-C , 21-C ) :   0.9024 B( 13-N , 14-H ) :   0.9262 B( 13-N , 17-C ) :   0.9641 
B( 17-C , 18-H ) :   0.9539 B( 17-C , 19-H ) :   0.9585 B( 17-C , 20-H ) :   0.9443 
B( 21-C , 22-H ) :   0.9569 B( 21-C , 23-H ) :   0.9506 B( 21-C , 24-H ) :   0.9743 


-------
TIMINGS
-------

Total SCF time: 0 days 0 hours 0 min 17 sec 

Total time                  ....      17.728 sec
Sum of individual times     ....      16.934 sec  ( 95.5%)

Fock matrix formation       ....      14.581 sec  ( 82.2%)
  Split-RI-J                ....       1.312 sec  (  9.0% of F)
  Chain of spheres X        ....       9.848 sec  ( 67.5% of F)
  XC integration            ....       3.045 sec  ( 20.9% of F)
    Basis function eval.    ....       0.332 sec  ( 10.9% of XC)
    Density eval.           ....       0.472 sec  ( 15.5% of XC)
    XC-Functional eval.     ....       0.076 sec  (  2.5% of XC)
    XC-Potential eval.      ....       0.297 sec  (  9.7% of XC)
Diagonalization             ....       0.569 sec  (  3.2%)
Density matrix formation    ....       0.031 sec  (  0.2%)
Population analysis         ....       0.076 sec  (  0.4%)
Initial guess               ....       0.060 sec  (  0.3%)
Orbital Transformation      ....       0.000 sec  (  0.0%)
Orbital Orthonormalization  ....       0.043 sec  (  0.2%)
DIIS solution               ....       0.279 sec  (  1.6%)
Grid generation             ....       1.339 sec  (  7.6%)

Maximum memory used throughout the entire SCF-calculation: 85.1 MB

-------------------------   --------------------
FINAL SINGLE POINT ENERGY      -668.578681048206
-------------------------   --------------------

                                *** OPTIMIZATION RUN DONE ***

                            ***************************************
                            *     ORCA property calculations      *
                            ***************************************

                                    ---------------------
                                    Active property flags
                                    ---------------------
   (+) Dipole Moment


------------------------------------------------------------------------------
                       ORCA ELECTRIC PROPERTIES CALCULATION
------------------------------------------------------------------------------

Dipole Moment Calculation                       ... on
Quadrupole Moment Calculation                   ... off
Polarizability Calculation                      ... off
GBWName                                         ... opt.gbw
Electron density                                ... opt.scfp
The origin for moment calculation is the CENTER OF MASS  = (-12.332694,  3.989026  0.400989)

-------------
DIPOLE MOMENT
-------------
                                X             Y             Z
Electronic contribution:     -1.92617      -2.69299      -0.47940
Nuclear contribution   :      4.23457       9.92477      -0.92499
                        -----------------------------------------
Total Dipole Moment    :      2.30840       7.23179      -1.40439
                        -----------------------------------------
Magnitude (a.u.)       :      7.72009
Magnitude (Debye)      :     19.62291



--------------------
Rotational spectrum 
--------------------
 
Rotational constants in cm-1:     0.019917     0.012955     0.008892 
Rotational constants in MHz :   597.086466   388.385626   266.567141 

 Dipole components along the rotational axes: 
x,y,z [a.u.] :    -7.496953     1.841881     0.054361 
x,y,z [Debye]:   -19.055739     4.681690     0.138174 

 

Timings for individual modules:

Sum of individual times         ...     1217.502 sec (=  20.292 min)
GTO integral calculation        ...      228.158 sec (=   3.803 min)  18.7 %
SCF iterations                  ...      661.039 sec (=  11.017 min)  54.3 %
SCF Gradient evaluation         ...      327.264 sec (=   5.454 min)  26.9 %
Geometry relaxation             ...        1.042 sec (=   0.017 min)   0.1 %
                             ****ORCA TERMINATED NORMALLY****
TOTAL RUN TIME: 0 days 0 hours 24 minutes 47 seconds 789 msec
