
                                 *****************
                                 * O   R   C   A *
                                 *****************

                                            #,                                       
                                            ###                                      
                                            ####                                     
                                            #####                                    
                                            ######                                   
                                           ########,                                 
                                     ,,################,,,,,                         
                               ,,#################################,,                 
                          ,,##########################################,,             
                       ,#########################################, ''#####,          
                    ,#############################################,,   '####,        
                  ,##################################################,,,,####,       
                ,###########''''           ''''###############################       
              ,#####''   ,,,,##########,,,,          '''####'''          '####       
            ,##' ,,,,###########################,,,                        '##       
           ' ,,###''''                  '''############,,,                           
         ,,##''                                '''############,,,,        ,,,,,,###''
      ,#''                                            '''#######################'''  
     '                                                          ''''####''''         
             ,#######,   #######,   ,#######,      ##                                
            ,#'     '#,  ##    ##  ,#'     '#,    #''#        ######   ,####,        
            ##       ##  ##   ,#'  ##            #'  '#       #        #'  '#        
            ##       ##  #######   ##           ,######,      #####,   #    #        
            '#,     ,#'  ##    ##  '#,     ,#' ,#      #,         ##   #,  ,#        
             '#######'   ##     ##  '#######'  #'      '#     #####' # '####'        



                  #######################################################
                  #                        -***-                        #
                  #          Department of theory and spectroscopy      #
                  #    Directorship and core code : Frank Neese         #
                  #        Max Planck Institute fuer Kohlenforschung    #
                  #                Kaiser Wilhelm Platz 1               #
                  #                 D-45470 Muelheim/Ruhr               #
                  #                      Germany                        #
                  #                                                     #
                  #                  All rights reserved                #
                  #                        -***-                        #
                  #######################################################


                         Program Version 5.0.4 -  RELEASE  -


 With contributions from (in alphabetic order):
   Daniel Aravena         : Magnetic Suceptibility
   Michael Atanasov       : Ab Initio Ligand Field Theory (pilot matlab implementation)
   Alexander A. Auer      : GIAO ZORA, VPT2 properties, NMR spectrum
   Ute Becker             : Parallelization
   Giovanni Bistoni       : ED, misc. LED, open-shell LED, HFLD
   Martin Brehm           : Molecular dynamics
   Dmytro Bykov           : SCF Hessian
   Vijay G. Chilkuri      : MRCI spin determinant printing, contributions to CSF-ICE
   Dipayan Datta          : RHF DLPNO-CCSD density
   Achintya Kumar Dutta   : EOM-CC, STEOM-CC
   Dmitry Ganyushin       : Spin-Orbit,Spin-Spin,Magnetic field MRCI
   Miquel Garcia          : C-PCM and meta-GGA Hessian, CC/C-PCM, Gaussian charge scheme
   Yang Guo               : DLPNO-NEVPT2, F12-NEVPT2, CIM, IAO-localization
   Andreas Hansen         : Spin unrestricted coupled pair/coupled cluster methods
   Benjamin Helmich-Paris : MC-RPA, TRAH-SCF, COSX integrals
   Lee Huntington         : MR-EOM, pCC
   Robert Izsak           : Overlap fitted RIJCOSX, COSX-SCS-MP3, EOM
   Marcus Kettner         : VPT2
   Christian Kollmar      : KDIIS, OOCD, Brueckner-CCSD(T), CCSD density, CASPT2, CASPT2-K
   Simone Kossmann        : Meta GGA functionals, TD-DFT gradient, OOMP2, MP2 Hessian
   Martin Krupicka        : Initial AUTO-CI
   Lucas Lang             : DCDCAS
   Marvin Lechner         : AUTO-CI (C++ implementation), FIC-MRCC
   Dagmar Lenk            : GEPOL surface, SMD
   Dimitrios Liakos       : Extrapolation schemes; Compound Job, initial MDCI parallelization
   Dimitrios Manganas     : Further ROCIS development; embedding schemes
   Dimitrios Pantazis     : SARC Basis sets
   Anastasios Papadopoulos: AUTO-CI, single reference methods and gradients
   Taras Petrenko         : DFT Hessian,TD-DFT gradient, ASA, ECA, R-Raman, ABS, FL, XAS/XES, NRVS
   Peter Pinski           : DLPNO-MP2, DLPNO-MP2 Gradient
   Christoph Reimann      : Effective Core Potentials
   Marius Retegan         : Local ZFS, SOC
   Christoph Riplinger    : Optimizer, TS searches, QM/MM, DLPNO-CCSD(T), (RO)-DLPNO pert. Triples
   Tobias Risthaus        : Range-separated hybrids, TD-DFT gradient, RPA, STAB
   Michael Roemelt        : Original ROCIS implementation
   Masaaki Saitow         : Open-shell DLPNO-CCSD energy and density
   Barbara Sandhoefer     : DKH picture change effects
   Avijit Sen             : IP-ROCIS
   Kantharuban Sivalingam : CASSCF convergence, NEVPT2, FIC-MRCI
   Bernardo de Souza      : ESD, SOC TD-DFT
   Georgi Stoychev        : AutoAux, RI-MP2 NMR, DLPNO-MP2 response
   Willem Van den Heuvel  : Paramagnetic NMR
   Boris Wezisla          : Elementary symmetry handling
   Frank Wennmohs         : Technical directorship


 We gratefully acknowledge several colleagues who have allowed us to
 interface, adapt or use parts of their codes:
   Stefan Grimme, W. Hujo, H. Kruse, P. Pracht,  : VdW corrections, initial TS optimization,
                  C. Bannwarth, S. Ehlert          DFT functionals, gCP, sTDA/sTD-DF
   Ed Valeev, F. Pavosevic, A. Kumar             : LibInt (2-el integral package), F12 methods
   Garnet Chan, S. Sharma, J. Yang, R. Olivares  : DMRG
   Ulf Ekstrom                                   : XCFun DFT Library
   Mihaly Kallay                                 : mrcc  (arbitrary order and MRCC methods)
   Jiri Pittner, Ondrej Demel                    : Mk-CCSD
   Frank Weinhold                                : gennbo (NPA and NBO analysis)
   Christopher J. Cramer and Donald G. Truhlar   : smd solvation model
   Lars Goerigk                                  : TD-DFT with DH, B97 family of functionals
   V. Asgeirsson, H. Jonsson                     : NEB implementation
   FAccTs GmbH                                   : IRC, NEB, NEB-TS, DLPNO-Multilevel, CI-OPT
                                                   MM, QMMM, 2- and 3-layer-ONIOM, Crystal-QMMM,
                                                   LR-CPCM, SF, NACMEs, symmetry and pop. for TD-DFT,
                                                   nearIR, NL-DFT gradient (VV10), updates on ESD,
                                                   ML-optimized integration grids
   S Lehtola, MJT Oliveira, MAL Marques          : LibXC Library
   Liviu Ungur et al                             : ANISO software


 Your calculation uses the libint2 library for the computation of 2-el integrals
 For citations please refer to: http://libint.valeyev.net

 Your ORCA version has been built with support for libXC version: 5.1.0
 For citations please refer to: https://tddft.org/programs/libxc/

 This ORCA versions uses:
   CBLAS   interface :  Fast vector & matrix operations
   LAPACKE interface :  Fast linear algebra routines
   SCALAPACK package :  Parallel linear algebra routines
   Shared memory     :  Shared parallel matrices
   BLAS/LAPACK       :  OpenBLAS 0.3.15  USE64BITINT DYNAMIC_ARCH NO_AFFINITY Zen SINGLE_THREADED
        Core in use  :  Zen
   Copyright (c) 2011-2014, The OpenBLAS Project




***************************************
The coordinates will be read from file: opt.xyz
***************************************


XCFun DFT library Copyright 2009-2010 Ulf Ekstrom and contributors.
See http://admol.org/xcfun for more information.
This is free software; see the source code for copying conditions.
There is ABSOLUTELY NO WARRANTY; not even for MERCHANTABILITY or FITNESS FOR A PARTICULAR PURPOSE.
For details see the documentation.
Scientific users of this library should cite U. Ekstrom, L. Visscher, R. Bast, A. J. Thorvaldsen and K. Ruud;
J.Chem.Theor.Comp. 2010, DOI: 10.1021/ct100117s
XCFun Version 0.99 

================================================================================

----- Orbital basis set information -----
Your calculation utilizes the basis: def2-TZVP
   F. Weigend and R. Ahlrichs, Phys. Chem. Chem. Phys. 7, 3297 (2005).

----- AuxJ basis set information -----
Your calculation utilizes the auxiliary basis: def2/J
   F. Weigend, Phys. Chem. Chem. Phys. 8, 1057 (2006).

================================================================================
                                        WARNINGS
                       Please study these warnings very carefully!
================================================================================


WARNING: your system is open-shell and RHF/RKS was chosen
  ===> : WILL SWITCH to UHF/UKS


WARNING: Geometry Optimization
  ===> : Switching off AutoStart
         For restart on a previous wavefunction, please use MOREAD

WARNING: Minnesota functionals are quite sensitive to the integration grid.
         see SE Wheeler, KN Houk, JCTC 2010, 6, 395,
             N Mardirossian, M Head-Gordon, JCTC 2016, 12, 4303.
         DEFGRID3 seems to be a minimum grid for reliable results with these functionals!
  ===> : Please increase the integration grid!


INFO   : the flag for use of the SHARK integral package has been found!

================================================================================
                                       INPUT FILE
================================================================================
NAME = freq.inp
|  1> ! M062X def2-TZVP OPT FREQ
|  2> %pal nprocs 16 end
|  3> *XYZFile 0 2 opt.xyz
|  4> 
|  5>                          ****END OF INPUT****
================================================================================

                       *****************************
                       * Geometry Optimization Run *
                       *****************************

Geometry optimization settings:
Update method            Update   .... BFGS
Choice of coordinates    CoordSys .... Z-matrix Internals
Initial Hessian          InHess   .... Almoef's Model

Convergence Tolerances:
Energy Change            TolE     ....  5.0000e-06 Eh
Max. Gradient            TolMAXG  ....  3.0000e-04 Eh/bohr
RMS Gradient             TolRMSG  ....  1.0000e-04 Eh/bohr
Max. Displacement        TolMAXD  ....  4.0000e-03 bohr
RMS Displacement         TolRMSD  ....  2.0000e-03 bohr
Strict Convergence                ....  False
------------------------------------------------------------------------------
                        ORCA OPTIMIZATION COORDINATE SETUP
------------------------------------------------------------------------------

The optimization will be done in new redundant internal coordinates
Making redundant internal coordinates   ...  (new redundants) done
Evaluating the initial hessian          ...  (Almloef) done
Evaluating the coordinates              ...  done
Calculating the B-matrix                .... done
Calculating the G-matrix                .... done
Diagonalizing the G-matrix              .... done
Small eigenvalue found = 6.906e-03
Small eigenvalue found = 6.992e-03
Small eigenvalue found = 1.668e-02
The first mode is                       ....   45
The number of degrees of freedom        ....   75

    -----------------------------------------------------------------
                    Redundant Internal Coordinates


    -----------------------------------------------------------------
         Definition                    Initial Value    Approx d2E/dq
    -----------------------------------------------------------------
      1. B(C   1,N   0)                  1.3839         0.572254   
      2. B(C   2,C   1)                  1.4776         0.452801   
      3. B(O   3,C   2)                  1.2472         0.945673   
      4. B(C   4,C   1)                  1.5029         0.412605   
      5. B(H   5,C   4)                  1.0932         0.355826   
      6. B(H   6,C   4)                  1.0923         0.357069   
      7. B(C   7,C   4)                  1.5475         0.350358   
      8. B(H   8,C   7)                  1.0920         0.357420   
      9. B(H   9,C   7)                  1.0980         0.349659   
     10. B(C  10,C   7)                  1.5192         0.388651   
     11. B(O  11,C  10)                  1.3576         0.630409   
     12. B(O  12,C  10)                  1.2163         1.059279   
     13. B(H  13,N   0)                  1.0197         0.417496   
     14. B(C  14,N   0)                  1.3843         0.571466   
     15. B(N  15,C   2)                  1.3738         0.593922   
     16. B(H  16,O  11)                  0.9713         0.498841   
     17. B(H  17,N  15)                  1.0072         0.437214   
     18. B(O  18,C  14)                  1.2299         1.007568   
     19. B(C  19,C  14)                  1.5236         0.382509   
     20. B(H  20,C  19)                  1.0939         0.354988   
     21. B(H  21,C  19)                  1.0936         0.355367   
     22. B(H  22,C  19)                  1.0927         0.356556   
     23. B(C  23,N  15)                  1.4579         0.436039   
     24. B(H  24,C  23)                  1.0974         0.350447   
     25. B(H  25,C  23)                  1.0927         0.356498   
     26. B(H  26,C  23)                  1.0906         0.359318   
     27. A(H  13,N   0,C  14)          119.0637         0.351603   
     28. A(C   1,N   0,H  13)          110.6398         0.351685   
     29. A(C   1,N   0,C  14)          130.2893         0.416217   
     30. A(C   2,C   1,C   4)          125.8701         0.382077   
     31. A(N   0,C   1,C   4)          123.2268         0.395484   
     32. A(N   0,C   1,C   2)          110.9030         0.402001   
     33. A(C   1,C   2,N  15)          117.7034         0.404645   
     34. A(C   1,C   2,O   3)          120.2435         0.439688   
     35. A(O   3,C   2,N  15)          122.0376         0.458828   
     36. A(C   1,C   4,C   7)          113.7654         0.365547   
     37. A(C   1,C   4,H   6)          109.5587         0.329212   
     38. A(C   1,C   4,H   5)          109.9607         0.329022   
     39. A(H   6,C   4,C   7)          108.3338         0.320483   
     40. A(H   5,C   4,H   6)          106.5204         0.289910   
     41. A(H   5,C   4,C   7)          108.4349         0.320300   
     42. A(H   8,C   7,C  10)          109.5073         0.326034   
     43. A(C   4,C   7,C  10)          111.8422         0.361828   
     44. A(H   8,C   7,H   9)          107.1847         0.289161   
     45. A(C   4,C   7,H   9)          110.9442         0.319387   
     46. A(C   4,C   7,H   8)          110.7304         0.320534   
     47. A(H   9,C   7,C  10)          106.4377         0.324860   
     48. A(O  11,C  10,O  12)          122.2948         0.473603   
     49. A(C   7,C  10,O  12)          125.6708         0.436581   
     50. A(C   7,C  10,O  11)          112.0138         0.398059   
     51. A(C  10,O  11,H  16)          106.5242         0.368542   
     52. A(O  18,C  14,C  19)          121.9083         0.431429   
     53. A(N   0,C  14,C  19)          114.7068         0.390181   
     54. A(N   0,C  14,O  18)          123.3847         0.460915   
     55. A(C   2,N  15,H  17)          118.7561         0.356685   
     56. A(H  17,N  15,C  23)          118.2345         0.338603   
     57. A(C   2,N  15,C  23)          121.3308         0.399386   
     58. A(C  14,C  19,H  21)          108.3493         0.324874   
     59. A(C  14,C  19,H  20)          108.5428         0.324817   
     60. A(H  21,C  19,H  22)          109.2659         0.289786   
     61. A(H  20,C  19,H  22)          109.2902         0.289737   
     62. A(C  14,C  19,H  22)          113.7375         0.325052   
     63. A(H  20,C  19,H  21)          107.4666         0.289586   
     64. A(H  24,C  23,H  26)          108.1587         0.289503   
     65. A(N  15,C  23,H  26)          108.9125         0.330575   
     66. A(H  24,C  23,H  25)          109.0635         0.289146   
     67. A(N  15,C  23,H  25)          109.2401         0.330145   
     68. A(H  25,C  23,H  26)          109.4033         0.290282   
     69. A(N  15,C  23,H  24)          112.0265         0.329212   
     70. D(C   2,C   1,N   0,C  14)    177.2019         0.026221   
     71. D(C   4,C   1,N   0,H  13)    178.1696         0.026221   
     72. D(C   4,C   1,N   0,C  14)     -2.8394         0.026221   
     73. D(C   2,C   1,N   0,H  13)     -1.7891         0.026221   
     74. D(N  15,C   2,C   1,N   0)   -177.8827         0.013973   
     75. D(N  15,C   2,C   1,C   4)      2.1599         0.013973   
     76. D(O   3,C   2,C   1,C   4)   -179.2461         0.013973   
     77. D(O   3,C   2,C   1,N   0)      0.7113         0.013973   
     78. D(H   6,C   4,C   1,N   0)    -39.5550         0.012603   
     79. D(H   6,C   4,C   1,C   2)    140.3975         0.012603   
     80. D(C   7,C   4,C   1,C   2)    -98.1910         0.012603   
     81. D(C   7,C   4,C   1,N   0)     81.8565         0.012603   
     82. D(H   5,C   4,C   1,C   2)     23.6481         0.012603   
     83. D(H   5,C   4,C   1,N   0)   -156.3043         0.012603   
     84. D(H   8,C   7,C   4,C   1)    -73.9347         0.009888   
     85. D(C  10,C   7,C   4,H   5)     40.9484         0.009888   
     86. D(C  10,C   7,C   4,C   1)    163.6292         0.009888   
     87. D(H   9,C   7,C   4,H   6)    167.0452         0.009888   
     88. D(H   9,C   7,C   4,H   5)    -77.7266         0.009888   
     89. D(H   9,C   7,C   4,C   1)     44.9543         0.009888   
     90. D(H   8,C   7,C   4,H   6)     48.1563         0.009888   
     91. D(C  10,C   7,C   4,H   6)    -74.2798         0.009888   
     92. D(H   8,C   7,C   4,H   5)    163.3845         0.009888   
     93. D(O  12,C  10,C   7,H   9)    101.0999         0.011242   
     94. D(O  12,C  10,C   7,H   8)   -143.3488         0.011242   
     95. D(O  12,C  10,C   7,C   4)    -20.2170         0.011242   
     96. D(O  11,C  10,C   7,H   9)    -77.2736         0.011242   
     97. D(O  11,C  10,C   7,H   8)     38.2778         0.011242   
     98. D(O  11,C  10,C   7,C   4)    161.4096         0.011242   
     99. D(H  16,O  11,C  10,O  12)     -0.2357         0.029229   
    100. D(H  16,O  11,C  10,C   7)    178.2011         0.029229   
    101. D(C  19,C  14,N   0,H  13)     -2.7167         0.026144   
    102. D(C  19,C  14,N   0,C   1)    178.3637         0.026144   
    103. D(O  18,C  14,N   0,H  13)    177.1165         0.026144   
    104. D(O  18,C  14,N   0,C   1)     -1.8032         0.026144   
    105. D(C  23,N  15,C   2,O   3)      6.3702         0.028382   
    106. D(C  23,N  15,C   2,C   1)   -175.0627         0.028382   
    107. D(H  17,N  15,C   2,O   3)    171.3440         0.028382   
    108. D(H  17,N  15,C   2,C   1)    -10.0889         0.028382   
    109. D(H  22,C  19,C  14,O  18)    178.7019         0.010909   
    110. D(H  22,C  19,C  14,N   0)     -1.4622         0.010909   
    111. D(H  21,C  19,C  14,O  18)     56.9926         0.010909   
    112. D(H  21,C  19,C  14,N   0)   -123.1715         0.010909   
    113. D(H  20,C  19,C  14,O  18)    -59.4177         0.010909   
    114. D(H  20,C  19,C  14,N   0)    120.4182         0.010909   
    115. D(H  26,C  23,N  15,H  17)    157.7296         0.016211   
    116. D(H  26,C  23,N  15,C   2)    -37.2207         0.016211   
    117. D(H  25,C  23,N  15,H  17)     38.2884         0.016211   
    118. D(H  25,C  23,N  15,C   2)   -156.6619         0.016211   
    119. D(H  24,C  23,N  15,H  17)    -82.6675         0.016211   
    120. D(H  24,C  23,N  15,C   2)     82.3822         0.016211   
    -----------------------------------------------------------------

Number of atoms                         .... 27
Number of degrees of freedom            .... 120

         *************************************************************
         *                GEOMETRY OPTIMIZATION CYCLE   1            *
         *************************************************************
---------------------------------
CARTESIAN COORDINATES (ANGSTROEM)
---------------------------------
  N      1.511828    1.099056    0.007227
  C      0.795964   -0.066582    0.217079
  C      1.623390   -1.254189   -0.080225
  O      2.806265   -1.118683   -0.451568
  C     -0.631733   -0.083047    0.686405
  H     -0.853583   -1.036449    1.173234
  H     -0.777382    0.692609    1.441564
  C     -1.662931    0.139986   -0.445645
  H     -1.670421    1.185390   -0.761255
  H     -1.413477   -0.463585   -1.328310
  C     -3.062984   -0.272776   -0.024288
  O     -4.016332    0.275427   -0.820268
  O     -3.335022   -1.026417    0.890804
  H      2.467228    0.887421   -0.279648
  C      1.118253    2.422170    0.110753
  N      1.034026   -2.489373    0.039286
  H     -4.869739   -0.060899   -0.500930
  H      0.124337   -2.552855    0.466892
  O     -0.026464    2.767138    0.399406
  C      2.219664    3.437732   -0.166347
  H      1.911945    4.063356   -1.009260
  H      2.315836    4.088327    0.707405
  H      3.189454    2.985480   -0.387597
  C      1.803352   -3.716056   -0.130703
  H      2.341736   -3.994324    0.784167
  H      1.128115   -4.528976   -0.408710
  H      2.536351   -3.566499   -0.924263

----------------------------
CARTESIAN COORDINATES (A.U.)
----------------------------
  NO LB      ZA    FRAG     MASS         X           Y           Z
   0 N     7.0000    0    14.007    2.856942    2.076915    0.013657
   1 C     6.0000    0    12.011    1.504154   -0.125822    0.410219
   2 C     6.0000    0    12.011    3.067763   -2.370073   -0.151602
   3 O     8.0000    0    15.999    5.303072   -2.114004   -0.853340
   4 C     6.0000    0    12.011   -1.193802   -0.156937    1.297118
   5 H     1.0000    0     1.008   -1.613038   -1.958605    2.217091
   6 H     1.0000    0     1.008   -1.469038    1.308841    2.724161
   7 C     6.0000    0    12.011   -3.142485    0.264534   -0.842146
   8 H     1.0000    0     1.008   -3.156639    2.240063   -1.438563
   9 H     1.0000    0     1.008   -2.671084   -0.876049   -2.510143
  10 C     6.0000    0    12.011   -5.788201   -0.515471   -0.045897
  11 O     8.0000    0    15.999   -7.589768    0.520481   -1.550083
  12 O     8.0000    0    15.999   -6.302278   -1.939648    1.683376
  13 H     1.0000    0     1.008    4.662385    1.676983   -0.528458
  14 C     6.0000    0    12.011    2.113193    4.577239    0.209292
  15 N     7.0000    0    14.007    1.954026   -4.704233    0.074239
  16 H     1.0000    0     1.008   -9.202473   -0.115082   -0.946621
  17 H     1.0000    0     1.008    0.234963   -4.824196    0.882299
  18 O     8.0000    0    15.999   -0.050009    5.229133    0.754769
  19 C     6.0000    0    12.011    4.194557    6.496372   -0.314349
  20 H     1.0000    0     1.008    3.613052    7.678629   -1.907225
  21 H     1.0000    0     1.008    4.376296    7.725818    1.336802
  22 H     1.0000    0     1.008    6.027194    5.641740   -0.732452
  23 C     6.0000    0    12.011    3.407842   -7.022327   -0.246993
  24 H     1.0000    0     1.008    4.425240   -7.548179    1.481862
  25 H     1.0000    0     1.008    2.131828   -8.558524   -0.772350
  26 H     1.0000    0     1.008    4.793008   -6.739707   -1.746603

--------------------------------
INTERNAL COORDINATES (ANGSTROEM)
--------------------------------
 N      0   0   0     0.000000000000     0.00000000     0.00000000
 C      1   0   0     1.383911578440     0.00000000     0.00000000
 C      2   1   0     1.477644199792   110.90303842     0.00000000
 O      3   2   1     1.247176780862   120.24347246     0.71132585
 C      2   1   3     1.502949562555   123.22683327   179.95875327
 H      5   2   1     1.093249796154   109.96072531   203.69565511
 H      5   2   1     1.092300748526   109.55871172   320.44504197
 C      5   2   1     1.547466029865   113.76539341    81.85651787
 H      8   5   2     1.092033488539   110.73038169   286.06532478
 H      8   5   2     1.098009211083   110.94417224    44.95427814
 C      8   5   2     1.519230173452   111.84215573   163.62923603
 O     11   8   5     1.357565556161   112.01377579   161.40955213
 O     11   8   5     1.216295147083   125.67082073   339.78297785
 H      1   2   3     1.019742226305   110.63978144   358.21089457
 C      1   2   3     1.384286891419   130.28926232   177.20185475
 N      3   2   1     1.373795149167   117.70340717   182.11733643
 H     12  11   8     0.971285138138   106.52422843   178.20111663
 H     16   3   2     1.007180267237   118.75606785   349.91114691
 O     15   1   2     1.229919033930   123.38467728   358.19684352
 C     15   1   2     1.523566372944   114.70677087   178.36365366
 H     20  15   1     1.093891677595   108.54277683   120.41823009
 H     20  15   1     1.093601492776   108.34933783   236.82853503
 H     20  15   1     1.092692357510   113.73745879   358.53780161
 C     16   3   2     1.457912601613   121.33079136   184.93729957
 H     24  16   3     1.097396467413   112.02649356    82.38215947
 H     24  16   3     1.092736540729   109.24010460   203.33806411
 H     24  16   3     1.090591638707   108.91252393   322.77929164

---------------------------
INTERNAL COORDINATES (A.U.)
---------------------------
 N      0   0   0     0.000000000000     0.00000000     0.00000000
 C      1   0   0     2.615213876814     0.00000000     0.00000000
 C      2   1   0     2.792342860984   110.90303842     0.00000000
 O      3   2   1     2.356822556414   120.24347246     0.71132585
 C      2   1   3     2.840163066325   123.22683327   179.95875327
 H      5   2   1     2.065942710696   109.96072531   203.69565511
 H      5   2   1     2.064149270592   109.55871172   320.44504197
 C      5   2   1     2.924286997992   113.76539341    81.85651787
 H      8   5   2     2.063644222410   110.73038169   286.06532478
 H      8   5   2     2.074936701469   110.94417224    44.95427814
 C      8   5   2     2.870928962214   111.84215573   163.62923603
 O     11   8   5     2.565427109988   112.01377579   161.40955213
 O     11   8   5     2.298464726005   125.67082073   339.78297785
 H      1   2   3     1.927033534911   110.63978144   358.21089457
 C      1   2   3     2.615923115559   130.28926232   177.20185475
 N      3   2   1     2.596096596035   117.70340717   182.11733643
 H     12  11   8     1.835462909029   106.52422843   178.20111663
 H     16   3   2     1.903294872568   118.75606785   349.91114691
 O     15   1   2     2.324210141024   123.38467728   358.19684352
 C     15   1   2     2.879123191715   114.70677087   178.36365366
 H     20  15   1     2.067155690831   108.54277683   120.41823009
 H     20  15   1     2.066607320995   108.34933783   236.82853503
 H     20  15   1     2.064889304323   113.73745879   358.53780161
 C     16   3   2     2.755055544241   121.33079136   184.93729957
 H     24  16   3     2.073778783743   112.02649356    82.38215947
 H     24  16   3     2.064972798507   109.24010460   203.33806411
 H     24  16   3     2.060919521100   108.91252393   322.77929164

---------------------
BASIS SET INFORMATION
---------------------
There are 4 groups of distinct atoms

 Group   1 Type N   : 11s6p2d1f contracted to 5s3p2d1f pattern {62111/411/11/1}
 Group   2 Type C   : 11s6p2d1f contracted to 5s3p2d1f pattern {62111/411/11/1}
 Group   3 Type O   : 11s6p2d1f contracted to 5s3p2d1f pattern {62111/411/11/1}
 Group   4 Type H   : 5s1p contracted to 3s1p pattern {311/1}

Atom   0N    basis set group =>   1
Atom   1C    basis set group =>   2
Atom   2C    basis set group =>   2
Atom   3O    basis set group =>   3
Atom   4C    basis set group =>   2
Atom   5H    basis set group =>   4
Atom   6H    basis set group =>   4
Atom   7C    basis set group =>   2
Atom   8H    basis set group =>   4
Atom   9H    basis set group =>   4
Atom  10C    basis set group =>   2
Atom  11O    basis set group =>   3
Atom  12O    basis set group =>   3
Atom  13H    basis set group =>   4
Atom  14C    basis set group =>   2
Atom  15N    basis set group =>   1
Atom  16H    basis set group =>   4
Atom  17H    basis set group =>   4
Atom  18O    basis set group =>   3
Atom  19C    basis set group =>   2
Atom  20H    basis set group =>   4
Atom  21H    basis set group =>   4
Atom  22H    basis set group =>   4
Atom  23C    basis set group =>   2
Atom  24H    basis set group =>   4
Atom  25H    basis set group =>   4
Atom  26H    basis set group =>   4
---------------------------------
AUXILIARY/J BASIS SET INFORMATION
---------------------------------
There are 4 groups of distinct atoms

 Group   1 Type N   : 12s5p4d2f1g contracted to 6s4p3d1f1g pattern {711111/2111/211/2/1}
 Group   2 Type C   : 12s5p4d2f1g contracted to 6s4p3d1f1g pattern {711111/2111/211/2/1}
 Group   3 Type O   : 12s5p4d2f1g contracted to 6s4p3d1f1g pattern {711111/2111/211/2/1}
 Group   4 Type H   : 5s2p1d contracted to 3s1p1d pattern {311/2/1}

Atom   0N    basis set group =>   1
Atom   1C    basis set group =>   2
Atom   2C    basis set group =>   2
Atom   3O    basis set group =>   3
Atom   4C    basis set group =>   2
Atom   5H    basis set group =>   4
Atom   6H    basis set group =>   4
Atom   7C    basis set group =>   2
Atom   8H    basis set group =>   4
Atom   9H    basis set group =>   4
Atom  10C    basis set group =>   2
Atom  11O    basis set group =>   3
Atom  12O    basis set group =>   3
Atom  13H    basis set group =>   4
Atom  14C    basis set group =>   2
Atom  15N    basis set group =>   1
Atom  16H    basis set group =>   4
Atom  17H    basis set group =>   4
Atom  18O    basis set group =>   3
Atom  19C    basis set group =>   2
Atom  20H    basis set group =>   4
Atom  21H    basis set group =>   4
Atom  22H    basis set group =>   4
Atom  23C    basis set group =>   2
Atom  24H    basis set group =>   4
Atom  25H    basis set group =>   4
Atom  26H    basis set group =>   4


           ************************************************************
           *        Program running with 16 parallel MPI-processes    *
           *              working on a common directory               *
           ************************************************************
------------------------------------------------------------------------------
                           ORCA GTO INTEGRAL CALCULATION
                           -- RI-GTO INTEGRALS CHOSEN --
------------------------------------------------------------------------------
------------------------------------------------------------------------------
                   ___                                                        
                  /   \      - P O W E R E D   B Y -                         
                 /     \                                                     
                 |  |  |   _    _      __       _____    __    __             
                 |  |  |  | |  | |    /  \     |  _  \  |  |  /  |          
                  \  \/   | |  | |   /    \    | | | |  |  | /  /          
                 / \  \   | |__| |  /  /\  \   | |_| |  |  |/  /          
                |  |  |   |  __  | /  /__\  \  |    /   |      \           
                |  |  |   | |  | | |   __   |  |    \   |  |\   \          
                \     /   | |  | | |  |  |  |  | |\  \  |  | \   \       
                 \___/    |_|  |_| |__|  |__|  |_| \__\ |__|  \__/        
                                                                              
                      - O R C A' S   B I G   F R I E N D -                    
                                      &                                       
                       - I N T E G R A L  F E E D E R -                       
                                                                              
 v1 FN, 2020, v2 2021                                                         
------------------------------------------------------------------------------


Reading SHARK input file freq.SHARKINP.tmp ... ok
----------------------
SHARK INTEGRAL PACKAGE
----------------------

Number of atoms                             ...     27
Number of basis functions                   ...    512
Number of shells                            ...    206
Maximum angular momentum                    ...      3
Integral batch strategy                     ... SHARK/LIBINT Hybrid
RI-J (if used) integral strategy            ... SPLIT-RIJ (Revised 2003 algorithm where possible)
Printlevel                                  ...      1
Contraction scheme used                     ... SEGMENTED contraction
Coulomb Range Separation                    ... NOT USED
Exchange Range Separation                   ... NOT USED
Finite Nucleus Model                        ... NOT USED
Auxiliary Coulomb fitting basis             ... AVAILABLE
   # of basis functions in Aux-J            ...    829
   # of shells in Aux-J                     ...    275
   Maximum angular momentum in Aux-J        ...      4
Auxiliary J/K fitting basis                 ... NOT available
Auxiliary Correlation fitting basis         ... NOT available
Auxiliary 'external' fitting basis          ... NOT available
Integral threshold                          ...     2.500000e-11
Primitive cut-off                           ...     2.500000e-12
Primitive pair pre-selection threshold      ...     2.500000e-12

Calculating pre-screening integrals         ... done (  0.0 sec) Dimension = 206
Organizing shell pair data                  ... done (  0.1 sec)
Shell pair information
Total number of shell pairs                 ...     21321
Shell pairs after pre-screening             ...     16282
Total number of primitive shell pairs       ...     64608
Primitive shell pairs kept                  ...     34233
          la=0 lb=0:   4477 shell pairs
          la=1 lb=0:   4717 shell pairs
          la=1 lb=1:   1279 shell pairs
          la=2 lb=0:   2269 shell pairs
          la=2 lb=1:   1216 shell pairs
          la=2 lb=2:    306 shell pairs
          la=3 lb=0:   1084 shell pairs
          la=3 lb=1:    584 shell pairs
          la=3 lb=2:    277 shell pairs
          la=3 lb=3:     73 shell pairs

Calculating one electron integrals          ... done (  0.0 sec)
Calculating RI/J V-Matrix + Cholesky decomp.... done (  0.0 sec)
Calculating Nuclear repulsion               ... done (  0.0 sec) ENN=    905.694900598685 Eh

SHARK setup successfully completed in   0.3 seconds

Maximum memory used throughout the entire GTOINT-calculation: 28.5 MB


           ************************************************************
           *        Program running with 16 parallel MPI-processes    *
           *              working on a common directory               *
           ************************************************************
-------------------------------------------------------------------------------
                                 ORCA SCF
-------------------------------------------------------------------------------

------------
SCF SETTINGS
------------
Hamiltonian:
 Density Functional     Method          .... DFT(GTOs)
 Exchange Functional    Exchange        .... M062X
 Correlation Functional Correlation     .... M062X
 Gradients option       PostSCFGGA      .... off
 Hybrid DFT is turned on
   Fraction HF Exchange ScalHFX         ....  0.540000
   Scaling of DF-GGA-X  ScalDFX         ....  0.460000
   Scaling of DF-GGA-C  ScalDFC         ....  1.000000
   Scaling of DF-LDA-C  ScalLDAC        ....  1.000000
   Perturbative correction              ....  0.000000
   Density functional embedding theory  .... OFF
 RI-approximation to the Coulomb term is turned on
   Number of AuxJ basis functions       .... 829
   RIJ-COSX (HFX calculated with COS-X)).... on


General Settings:
 Integral files         IntName         .... freq
 Hartree-Fock type      HFTyp           .... UHF
 Total Charge           Charge          ....    0
 Multiplicity           Mult            ....    2
 Number of Electrons    NEL             ....  107
 Basis Dimension        Dim             ....  512
 Nuclear Repulsion      ENuc            ....    905.6949005987 Eh

Convergence Acceleration:
 DIIS                   CNVDIIS         .... on
   Start iteration      DIISMaxIt       ....    12
   Startup error        DIISStart       ....  0.200000
   # of expansion vecs  DIISMaxEq       ....     5
   Bias factor          DIISBfac        ....   1.050
   Max. coefficient     DIISMaxC        ....  10.000
 Trust-Rad. Augm. Hess. CNVTRAH         .... auto
   Auto Start mean grad. ratio tolernc. ....  1.125000
   Auto Start start iteration           ....    20
   Auto Start num. interpolation iter.  ....    10
   Max. Number of Micro iterations      ....    16
   Max. Number of Macro iterations      .... Maxiter - #DIIS iter
   Number of Davidson start vectors     ....     2
   Converg. threshold I  (grad. norm)   ....   1.000e-05
   Converg. threshold II (energy diff.) ....   1.000e-08
   Grad. Scal. Fac. for Micro threshold ....   0.100
   Minimum threshold for Micro iter.    ....   0.010
   NR start threshold (gradient norm)   ....   0.001
   Initial trust radius                 ....   0.400
   Minimum AH scaling param. (alpha)    ....   1.000
   Maximum AH scaling param. (alpha)    .... 1000.000
   Orbital update algorithm             .... Taylor
   White noise on init. David. guess    .... on
   Maximum white noise                  ....   0.010
   Quad. conv. algorithm                .... NR
 SOSCF                  CNVSOSCF        .... off
 Level Shifting         CNVShift        .... on
   Level shift para.    LevelShift      ....    0.2500
   Turn off err/grad.   ShiftErr        ....    0.0010
 Zerner damping         CNVZerner       .... off
 Static damping         CNVDamp         .... on
   Fraction old density DampFac         ....    0.7000
   Max. Damping (<1)    DampMax         ....    0.9800
   Min. Damping (>=0)   DampMin         ....    0.0000
   Turn off err/grad.   DampErr         ....    0.1000
 Fernandez-Rico         CNVRico         .... off

SCF Procedure:
 Maximum # iterations   MaxIter         ....   125
 SCF integral mode      SCFMode         .... Direct
   Integral package                     .... SHARK and LIBINT hybrid scheme
 Reset frequency        DirectResetFreq ....    20
 Integral Threshold     Thresh          ....  2.500e-11 Eh
 Primitive CutOff       TCut            ....  2.500e-12 Eh

Convergence Tolerance:
 Convergence Check Mode ConvCheckMode   .... Total+1el-Energy
 Convergence forced     ConvForced      .... 0
 Energy Change          TolE            ....  1.000e-08 Eh
 1-El. energy change                    ....  1.000e-05 Eh
 DIIS Error             TolErr          ....  5.000e-07


Diagonalization of the overlap matrix:
Smallest eigenvalue                        ... 5.352e-05
Time for diagonalization                   ...    0.039 sec
Threshold for overlap eigenvalues          ... 1.000e-08
Number of eigenvalues below threshold      ... 0
Time for construction of square roots      ...    0.022 sec
Total time needed                          ...    0.062 sec

Time for model grid setup =    0.106 sec

------------------------------
INITIAL GUESS: MODEL POTENTIAL
------------------------------
Loading Hartree-Fock densities                     ... done
Calculating cut-offs                               ... done
Initializing the effective Hamiltonian             ... done
Setting up the integral package (SHARK)            ... done
Starting the Coulomb interaction                   ... done (   0.1 sec)
Reading the grid                                   ... done
Mapping shells                                     ... done
Starting the XC term evaluation                    ... done (   0.1 sec)
  promolecular density results
     # of electrons  =    106.991222925
     EX              =    -90.429531249
     EC              =     -3.581564712
     EX+EC           =    -94.011095960
Transforming the Hamiltonian                       ... done (   0.0 sec)
Diagonalizing the Hamiltonian                      ... done (   0.0 sec)
Back transforming the eigenvectors                 ... done (   0.0 sec)
Now organizing SCF variables                       ... done
                      ------------------
                      INITIAL GUESS DONE (   0.4 sec)
                      ------------------
-------------------
DFT GRID GENERATION
-------------------

General Integration Accuracy     IntAcc      ... 4.388
Radial Grid Type                 RadialGrid  ... OptM3 with GC (2021)
Angular Grid (max. ang.)         AngularGrid ... 4 (Lebedev-302)
Angular grid pruning method      GridPruning ... 4 (adaptive)
Weight generation scheme         WeightScheme... Becke
Basis function cutoff            BFCut       ... 1.0000e-11
Integration weight cutoff        WCut        ... 1.0000e-14
Angular grids for H and He will be reduced by one unit
Partially contracted basis set               ... off
Rotationally invariant grid construction     ... off

Total number of grid points                  ...   125971
Total number of batches                      ...     1986
Average number of points per batch           ...       63
Average number of grid points per atom       ...     4666
Time for grid setup =    0.554 sec

--------------------
COSX GRID GENERATION
--------------------

GRIDX 1
-------
General Integration Accuracy     IntAcc      ... 3.816
Radial Grid Type                 RadialGrid  ... OptM3 with GC (2021)
Angular Grid (max. ang.)         AngularGrid ... 1 (Lebedev-50)
Angular grid pruning method      GridPruning ... 4 (adaptive)
Weight generation scheme         WeightScheme... Becke
Basis function cutoff            BFCut       ... 1.0000e-11
Integration weight cutoff        WCut        ... 1.0000e-14
Angular grids for H and He will be reduced by one unit
Partially contracted basis set               ... on
Rotationally invariant grid construction     ... off

Total number of grid points                  ...    16070
Total number of batches                      ...      266
Average number of points per batch           ...       60
Average number of grid points per atom       ...      595
UseSFitting                                  ... on

GRIDX 2
-------
General Integration Accuracy     IntAcc      ... 4.020
Radial Grid Type                 RadialGrid  ... OptM3 with GC (2021)
Angular Grid (max. ang.)         AngularGrid ... 2 (Lebedev-110)
Angular grid pruning method      GridPruning ... 4 (adaptive)
Weight generation scheme         WeightScheme... Becke
Basis function cutoff            BFCut       ... 1.0000e-11
Integration weight cutoff        WCut        ... 1.0000e-14
Angular grids for H and He will be reduced by one unit
Partially contracted basis set               ... on
Rotationally invariant grid construction     ... off

Total number of grid points                  ...    34810
Total number of batches                      ...      557
Average number of points per batch           ...       62
Average number of grid points per atom       ...     1289
UseSFitting                                  ... on

GRIDX 3
-------
General Integration Accuracy     IntAcc      ... 4.338
Radial Grid Type                 RadialGrid  ... OptM3 with GC (2021)
Angular Grid (max. ang.)         AngularGrid ... 3 (Lebedev-194)
Angular grid pruning method      GridPruning ... 4 (adaptive)
Weight generation scheme         WeightScheme... Becke
Basis function cutoff            BFCut       ... 1.0000e-11
Integration weight cutoff        WCut        ... 1.0000e-14
Angular grids for H and He will be reduced by one unit
Partially contracted basis set               ... on
Rotationally invariant grid construction     ... off

Total number of grid points                  ...    76251
Total number of batches                      ...     1208
Average number of points per batch           ...       63
Average number of grid points per atom       ...     2824
UseSFitting                                  ... on

Time for X-Grid setup             =    0.723 sec

--------------
SCF ITERATIONS
--------------
ITER       Energy         Delta-E        Max-DP      RMS-DP      [F,P]     Damp
               ***  Starting incremental Fock matrix formation  ***
  0   -722.5825571018   0.000000000000 0.05374206  0.00051342  0.1537937 0.7000
  1   -722.8102081461  -0.227651044326 0.05157794  0.00041497  0.0728699 0.7000
                               ***Turning on DIIS***
  2   -722.9064428313  -0.096234685217 0.08315271  0.00074883  0.0270944 0.0000
  3   -723.0645827793  -0.158139947996 0.04385621  0.00029398  0.0373746 0.0000
  4   -723.0927154723  -0.028132692942 0.01457293  0.00008533  0.0066598 0.0000
  5   -723.0940893484  -0.001373876109 0.00550957  0.00003826  0.0027494 0.0000
  6   -723.0943474083  -0.000258059893 0.00232567  0.00001889  0.0021389 0.0000
  7   -723.0944469871  -0.000099578830 0.00130586  0.00001359  0.0011061 0.0000
  8   -723.0944986665  -0.000051679381 0.00112599  0.00001367  0.0008279 0.0000
               *** Restarting incremental Fock matrix formation ***
                                   *** Resetting DIIS ***
  9   -723.0945910433  -0.000092376806 0.00031148  0.00000530  0.0002394 0.0000
 10   -723.0945931857  -0.000002142405 0.00015972  0.00000146  0.0002309 0.0000
 11   -723.0945941879  -0.000001002176 0.00013205  0.00000166  0.0001579 0.0000
 12   -723.0945948277  -0.000000639858 0.00012907  0.00000094  0.0001000 0.0000
 13   -723.0945950310  -0.000000203312 0.00004882  0.00000048  0.0000546 0.0000
 14   -723.0945950688  -0.000000037748 0.00001880  0.00000014  0.0000171 0.0000
 15   -723.0945950659   0.000000002835 0.00001176  0.00000009  0.0000095 0.0000
 16   -723.0945950630   0.000000002914 0.00000604  0.00000005  0.0000046 0.0000
 17   -723.0945950493   0.000000013696 0.00000510  0.00000004  0.0000046 0.0000
 18   -723.0945950594  -0.000000010017 0.00000247  0.00000002  0.0000016 0.0000
                            ***DIIS convergence achieved***

               *****************************************************
               *                     SUCCESS                       *
               *           SCF CONVERGED AFTER  19 CYCLES          *
               *****************************************************

Old exchange energy                            =    -49.792727512 Eh
New exchange energy                            =    -49.792751878 Eh
Exchange energy change after final integration =     -0.000024366 Eh
Total energy after final integration           =   -723.094619418 Eh
Final COS-X integration done in                =     3.988 sec

----------------
TOTAL SCF ENERGY
----------------

Total Energy       :         -723.09461942 Eh          -19676.40492 eV

Components:
Nuclear Repulsion  :          905.69490060 Eh           24645.21118 eV
Electronic Energy  :        -1628.78952002 Eh          -44321.61611 eV
One Electron Energy:        -2783.13160067 Eh          -75732.86104 eV
Two Electron Energy:         1154.34208066 Eh           31411.24493 eV
Max COSX asymmetry :            0.00000383 Eh               0.00010 eV

Virial components:
Potential Energy   :        -1442.41648856 Eh          -39250.14809 eV
Kinetic Energy     :          719.32186914 Eh           19573.74317 eV
Virial Ratio       :            2.00524487


DFT components:
N(Alpha)           :       53.999986896646 electrons
N(Beta)            :       52.999977813384 electrons
N(Total)           :      106.999964710030 electrons
E(XC)              :      -46.406678563318 Eh       
DFET-embed. en.    :        0.000000000000 Eh       

---------------
SCF CONVERGENCE
---------------

  Last Energy change         ...    7.1660e-09  Tolerance :   1.0000e-08
  Last MAX-Density change    ...    0.0000e+00  Tolerance :   1.0000e-07
  Last RMS-Density change    ...    0.0000e+00  Tolerance :   5.0000e-09
  Last DIIS Error            ...    5.6630e-07  Tolerance :   5.0000e-07

             **** THE GBW FILE WAS UPDATED (freq.gbw) ****
             **** DENSITY freq.scfp WAS UPDATED ****
             **** ENERGY FILE WAS UPDATED (freq.en.tmp) ****
----------------------
UHF SPIN CONTAMINATION
----------------------

Warning: in a DFT calculation there is little theoretical justification to 
         calculate <S**2> as in Hartree-Fock theory. We will do it anyways
         but you should keep in mind that the values have only limited relevance

Expectation value of <S**2>     :     0.757577
Ideal value S*(S+1) for S=0.5   :     0.750000
Deviation                       :     0.007577

             **** THE GBW FILE WAS UPDATED (freq.gbw) ****
             **** DENSITY freq.scfp WAS UPDATED ****
----------------
ORBITAL ENERGIES
----------------
                 SPIN UP ORBITALS
  NO   OCC          E(Eh)            E(eV) 
   0   1.0000     -19.681333      -535.5563 
   1   1.0000     -19.629294      -534.1402 
   2   1.0000     -19.611158      -533.6467 
   3   1.0000     -19.598546      -533.3035 
   4   1.0000     -14.805947      -402.8903 
   5   1.0000     -14.782682      -402.2572 
   6   1.0000     -10.689268      -290.8698 
   7   1.0000     -10.664651      -290.1999 
   8   1.0000     -10.653450      -289.8951 
   9   1.0000     -10.610019      -288.7133 
  10   1.0000     -10.575196      -287.7657 
  11   1.0000     -10.565062      -287.4900 
  12   1.0000     -10.564349      -287.4705 
  13   1.0000     -10.553480      -287.1748 
  14   1.0000      -1.240463       -33.7547 
  15   1.0000      -1.176000       -32.0006 
  16   1.0000      -1.160677       -31.5836 
  17   1.0000      -1.145825       -31.1795 
  18   1.0000      -1.063693       -28.9446 
  19   1.0000      -1.036925       -28.2162 
  20   1.0000      -0.918976       -25.0066 
  21   1.0000      -0.866044       -23.5663 
  22   1.0000      -0.831593       -22.6288 
  23   1.0000      -0.794432       -21.6176 
  24   1.0000      -0.759930       -20.6787 
  25   1.0000      -0.691758       -18.8237 
  26   1.0000      -0.683692       -18.6042 
  27   1.0000      -0.651365       -17.7245 
  28   1.0000      -0.637491       -17.3470 
  29   1.0000      -0.591409       -16.0930 
  30   1.0000      -0.583699       -15.8832 
  31   1.0000      -0.569799       -15.5050 
  32   1.0000      -0.565844       -15.3974 
  33   1.0000      -0.551600       -15.0098 
  34   1.0000      -0.539882       -14.6909 
  35   1.0000      -0.534072       -14.5328 
  36   1.0000      -0.526809       -14.3352 
  37   1.0000      -0.510962       -13.9040 
  38   1.0000      -0.498947       -13.5770 
  39   1.0000      -0.494104       -13.4452 
  40   1.0000      -0.484547       -13.1852 
  41   1.0000      -0.477210       -12.9855 
  42   1.0000      -0.467448       -12.7199 
  43   1.0000      -0.457372       -12.4457 
  44   1.0000      -0.454729       -12.3738 
  45   1.0000      -0.448723       -12.2104 
  46   1.0000      -0.431380       -11.7385 
  47   1.0000      -0.406621       -11.0647 
  48   1.0000      -0.395552       -10.7635 
  49   1.0000      -0.370044       -10.0694 
  50   1.0000      -0.352966        -9.6047 
  51   1.0000      -0.348372        -9.4797 
  52   1.0000      -0.338161        -9.2018 
  53   1.0000      -0.238168        -6.4809 
  54   0.0000       0.033594         0.9141 
  55   0.0000       0.039630         1.0784 
  56   0.0000       0.049883         1.3574 
  57   0.0000       0.065554         1.7838 
  58   0.0000       0.068583         1.8662 
  59   0.0000       0.090874         2.4728 
  60   0.0000       0.094919         2.5829 
  61   0.0000       0.101387         2.7589 
  62   0.0000       0.108413         2.9501 
  63   0.0000       0.116695         3.1754 
  64   0.0000       0.124737         3.3943 
  65   0.0000       0.141897         3.8612 
  66   0.0000       0.147636         4.0174 
  67   0.0000       0.149641         4.0719 
  68   0.0000       0.153416         4.1747 
  69   0.0000       0.161465         4.3937 
  70   0.0000       0.166737         4.5372 
  71   0.0000       0.184439         5.0188 
  72   0.0000       0.191525         5.2117 
  73   0.0000       0.203075         5.5260 
  74   0.0000       0.208373         5.6701 
  75   0.0000       0.211964         5.7678 
  76   0.0000       0.224232         6.1017 
  77   0.0000       0.228446         6.2163 
  78   0.0000       0.236248         6.4286 
  79   0.0000       0.239463         6.5161 
  80   0.0000       0.243446         6.6245 
  81   0.0000       0.254536         6.9263 
  82   0.0000       0.260852         7.0982 
  83   0.0000       0.265978         7.2376 
  84   0.0000       0.276281         7.5180 
  85   0.0000       0.279882         7.6160 
  86   0.0000       0.284287         7.7358 
  87   0.0000       0.298625         8.1260 
  88   0.0000       0.309163         8.4127 
  89   0.0000       0.321214         8.7407 
  90   0.0000       0.325203         8.8492 
  91   0.0000       0.334788         9.1100 
  92   0.0000       0.351450         9.5634 
  93   0.0000       0.361820         9.8456 
  94   0.0000       0.365556         9.9473 
  95   0.0000       0.372992        10.1496 
  96   0.0000       0.383720        10.4416 
  97   0.0000       0.395703        10.7676 
  98   0.0000       0.396870        10.7994 
  99   0.0000       0.408204        11.1078 
 100   0.0000       0.412773        11.2321 
 101   0.0000       0.419329        11.4105 
 102   0.0000       0.421828        11.4785 
 103   0.0000       0.426100        11.5948 
 104   0.0000       0.439132        11.9494 
 105   0.0000       0.439829        11.9683 
 106   0.0000       0.446521        12.1504 
 107   0.0000       0.453913        12.3516 
 108   0.0000       0.466821        12.7028 
 109   0.0000       0.467759        12.7284 
 110   0.0000       0.471737        12.8366 
 111   0.0000       0.475990        12.9524 
 112   0.0000       0.484218        13.1763 
 113   0.0000       0.489149        13.3104 
 114   0.0000       0.495260        13.4767 
 115   0.0000       0.504623        13.7315 
 116   0.0000       0.511179        13.9099 
 117   0.0000       0.512692        13.9510 
 118   0.0000       0.527572        14.3560 
 119   0.0000       0.530200        14.4275 
 120   0.0000       0.537641        14.6300 
 121   0.0000       0.541013        14.7217 
 122   0.0000       0.547993        14.9117 
 123   0.0000       0.554725        15.0948 
 124   0.0000       0.573977        15.6187 
 125   0.0000       0.579409        15.7665 
 126   0.0000       0.590094        16.0573 
 127   0.0000       0.599906        16.3243 
 128   0.0000       0.602781        16.4025 
 129   0.0000       0.609871        16.5954 
 130   0.0000       0.614111        16.7108 
 131   0.0000       0.616783        16.7835 
 132   0.0000       0.626555        17.0494 
 133   0.0000       0.639219        17.3940 
 134   0.0000       0.643306        17.5052 
 135   0.0000       0.653250        17.7758 
 136   0.0000       0.663034        18.0421 
 137   0.0000       0.673164        18.3177 
 138   0.0000       0.676459        18.4074 
 139   0.0000       0.688697        18.7404 
 140   0.0000       0.699598        19.0370 
 141   0.0000       0.710387        19.3306 
 142   0.0000       0.716492        19.4967 
 143   0.0000       0.732466        19.9314 
 144   0.0000       0.742459        20.2033 
 145   0.0000       0.763396        20.7731 
 146   0.0000       0.772999        21.0344 
 147   0.0000       0.788220        21.4485 
 148   0.0000       0.802174        21.8283 
 149   0.0000       0.819526        22.3004 
 150   0.0000       0.823630        22.4121 
 151   0.0000       0.830480        22.5985 
 152   0.0000       0.862962        23.4824 
 153   0.0000       0.874668        23.8009 
 154   0.0000       0.879779        23.9400 
 155   0.0000       0.888631        24.1809 
 156   0.0000       0.889307        24.1993 
 157   0.0000       0.903121        24.5752 
 158   0.0000       0.918150        24.9841 
 159   0.0000       0.926997        25.2249 
 160   0.0000       0.940720        25.5983 
 161   0.0000       0.953936        25.9579 
 162   0.0000       0.966547        26.3011 
 163   0.0000       0.972160        26.4538 
 164   0.0000       0.987546        26.8725 
 165   0.0000       1.002239        27.2723 
 166   0.0000       1.011180        27.5156 
 167   0.0000       1.020428        27.7673 
 168   0.0000       1.043710        28.4008 
 169   0.0000       1.050796        28.5936 
 170   0.0000       1.057458        28.7749 
 171   0.0000       1.060608        28.8606 
 172   0.0000       1.071316        29.1520 
 173   0.0000       1.095546        29.8113 
 174   0.0000       1.103114        30.0173 
 175   0.0000       1.114890        30.3377 
 176   0.0000       1.134446        30.8698 
 177   0.0000       1.137654        30.9571 
 178   0.0000       1.166393        31.7392 
 179   0.0000       1.181120        32.1399 
 180   0.0000       1.228026        33.4163 
 181   0.0000       1.236723        33.6529 
 182   0.0000       1.245596        33.8944 
 183   0.0000       1.254707        34.1423 
 184   0.0000       1.282187        34.8901 
 185   0.0000       1.310338        35.6561 
 186   0.0000       1.323680        36.0192 
 187   0.0000       1.331073        36.2203 
 188   0.0000       1.356407        36.9097 
 189   0.0000       1.359815        37.0024 
 190   0.0000       1.382290        37.6140 
 191   0.0000       1.388222        37.7754 
 192   0.0000       1.396088        37.9895 
 193   0.0000       1.420015        38.6406 
 194   0.0000       1.428131        38.8614 
 195   0.0000       1.453743        39.5583 
 196   0.0000       1.470280        40.0084 
 197   0.0000       1.484498        40.3952 
 198   0.0000       1.494433        40.6656 
 199   0.0000       1.499769        40.8108 
 200   0.0000       1.503661        40.9167 
 201   0.0000       1.510842        41.1121 
 202   0.0000       1.532478        41.7008 
 203   0.0000       1.538023        41.8517 
 204   0.0000       1.554539        42.3012 
 205   0.0000       1.561715        42.4964 
 206   0.0000       1.565002        42.5859 
 207   0.0000       1.572199        42.7817 
 208   0.0000       1.573531        42.8179 
 209   0.0000       1.578487        42.9528 
 210   0.0000       1.592214        43.3264 
 211   0.0000       1.601835        43.5881 
 212   0.0000       1.611247        43.8443 
 213   0.0000       1.620605        44.0989 
 214   0.0000       1.628520        44.3143 
 215   0.0000       1.638502        44.5859 
 216   0.0000       1.650065        44.9006 
 217   0.0000       1.652961        44.9794 
 218   0.0000       1.663935        45.2780 
 219   0.0000       1.675799        45.6008 
 220   0.0000       1.692277        46.0492 
 221   0.0000       1.703536        46.3556 
 222   0.0000       1.729116        47.0517 
 223   0.0000       1.738060        47.2950 
 224   0.0000       1.750492        47.6333 
 225   0.0000       1.758755        47.8582 
 226   0.0000       1.785346        48.5817 
 227   0.0000       1.790799        48.7301 
 228   0.0000       1.804475        49.1023 
 229   0.0000       1.816044        49.4171 
 230   0.0000       1.825260        49.6678 
 231   0.0000       1.837327        49.9962 
 232   0.0000       1.865628        50.7663 
 233   0.0000       1.872431        50.9514 
 234   0.0000       1.888585        51.3910 
 235   0.0000       1.892884        51.5080 
 236   0.0000       1.900502        51.7153 
 237   0.0000       1.909495        51.9600 
 238   0.0000       1.921001        52.2731 
 239   0.0000       1.934051        52.6282 
 240   0.0000       1.955384        53.2087 
 241   0.0000       1.963877        53.4398 
 242   0.0000       1.978372        53.8342 
 243   0.0000       1.991852        54.2011 
 244   0.0000       2.002566        54.4926 
 245   0.0000       2.020051        54.9684 
 246   0.0000       2.025253        55.1099 
 247   0.0000       2.029790        55.2334 
 248   0.0000       2.044787        55.6415 
 249   0.0000       2.056695        55.9655 
 250   0.0000       2.061305        56.0910 
 251   0.0000       2.094037        56.9816 
 252   0.0000       2.106549        57.3221 
 253   0.0000       2.117937        57.6320 
 254   0.0000       2.143754        58.3345 
 255   0.0000       2.149490        58.4906 
 256   0.0000       2.164105        58.8883 
 257   0.0000       2.177464        59.2518 
 258   0.0000       2.190040        59.5940 
 259   0.0000       2.198108        59.8136 
 260   0.0000       2.217966        60.3539 
 261   0.0000       2.223001        60.4909 
 262   0.0000       2.236233        60.8510 
 263   0.0000       2.253081        61.3094 
 264   0.0000       2.257064        61.4178 
 265   0.0000       2.265600        61.6501 
 266   0.0000       2.277886        61.9844 
 267   0.0000       2.285574        62.1936 
 268   0.0000       2.291787        62.3627 
 269   0.0000       2.308751        62.8243 
 270   0.0000       2.327411        63.3321 
 271   0.0000       2.340823        63.6970 
 272   0.0000       2.347168        63.8697 
 273   0.0000       2.369238        64.4702 
 274   0.0000       2.374609        64.6164 
 275   0.0000       2.377093        64.6840 
 276   0.0000       2.385743        64.9194 
 277   0.0000       2.406994        65.4976 
 278   0.0000       2.429054        66.0979 
 279   0.0000       2.432916        66.2030 
 280   0.0000       2.452455        66.7347 
 281   0.0000       2.470220        67.2181 
 282   0.0000       2.485546        67.6351 
 283   0.0000       2.502773        68.1039 
 284   0.0000       2.535942        69.0065 
 285   0.0000       2.539881        69.1137 
 286   0.0000       2.551092        69.4187 
 287   0.0000       2.560234        69.6675 
 288   0.0000       2.566608        69.8410 
 289   0.0000       2.576774        70.1176 
 290   0.0000       2.581079        70.2347 
 291   0.0000       2.599554        70.7375 
 292   0.0000       2.604987        70.8853 
 293   0.0000       2.628068        71.5134 
 294   0.0000       2.639692        71.8297 
 295   0.0000       2.641106        71.8682 
 296   0.0000       2.668039        72.6010 
 297   0.0000       2.676428        72.8293 
 298   0.0000       2.689962        73.1976 
 299   0.0000       2.705817        73.6290 
 300   0.0000       2.729883        74.2839 
 301   0.0000       2.739533        74.5465 
 302   0.0000       2.750929        74.8566 
 303   0.0000       2.777192        75.5712 
 304   0.0000       2.780937        75.6731 
 305   0.0000       2.796103        76.0858 
 306   0.0000       2.812237        76.5249 
 307   0.0000       2.820267        76.7434 
 308   0.0000       2.831712        77.0548 
 309   0.0000       2.834958        77.1431 
 310   0.0000       2.863965        77.9324 
 311   0.0000       2.869994        78.0965 
 312   0.0000       2.872491        78.1644 
 313   0.0000       2.890872        78.6646 
 314   0.0000       2.899436        78.8977 
 315   0.0000       2.916483        79.3615 
 316   0.0000       2.925950        79.6192 
 317   0.0000       2.950210        80.2793 
 318   0.0000       2.963718        80.6469 
 319   0.0000       2.969383        80.8010 
 320   0.0000       2.986478        81.2662 
 321   0.0000       2.997905        81.5771 
 322   0.0000       3.003544        81.7306 
 323   0.0000       3.005717        81.7897 
 324   0.0000       3.020690        82.1971 
 325   0.0000       3.033435        82.5440 
 326   0.0000       3.057992        83.2122 
 327   0.0000       3.059957        83.2657 
 328   0.0000       3.073854        83.6438 
 329   0.0000       3.082540        83.8802 
 330   0.0000       3.095440        84.2312 
 331   0.0000       3.104560        84.4794 
 332   0.0000       3.118949        84.8709 
 333   0.0000       3.128797        85.1389 
 334   0.0000       3.130580        85.1874 
 335   0.0000       3.143177        85.5302 
 336   0.0000       3.150306        85.7242 
 337   0.0000       3.157979        85.9330 
 338   0.0000       3.166169        86.1558 
 339   0.0000       3.184805        86.6630 
 340   0.0000       3.192850        86.8819 
 341   0.0000       3.201158        87.1079 
 342   0.0000       3.215697        87.5036 
 343   0.0000       3.218127        87.5697 
 344   0.0000       3.221016        87.6483 
 345   0.0000       3.241085        88.1944 
 346   0.0000       3.247357        88.3651 
 347   0.0000       3.253666        88.5368 
 348   0.0000       3.273552        89.0779 
 349   0.0000       3.277189        89.1768 
 350   0.0000       3.285930        89.4147 
 351   0.0000       3.295072        89.6635 
 352   0.0000       3.299932        89.7957 
 353   0.0000       3.305646        89.9512 
 354   0.0000       3.330124        90.6173 
 355   0.0000       3.336280        90.7848 
 356   0.0000       3.351393        91.1960 
 357   0.0000       3.360360        91.4401 
 358   0.0000       3.361735        91.4775 
 359   0.0000       3.375951        91.8643 
 360   0.0000       3.382510        92.0428 
 361   0.0000       3.395545        92.3975 
 362   0.0000       3.407174        92.7139 
 363   0.0000       3.421594        93.1063 
 364   0.0000       3.427514        93.2674 
 365   0.0000       3.447115        93.8008 
 366   0.0000       3.464901        94.2847 
 367   0.0000       3.475257        94.5666 
 368   0.0000       3.480179        94.7005 
 369   0.0000       3.497310        95.1667 
 370   0.0000       3.519944        95.7826 
 371   0.0000       3.529668        96.0471 
 372   0.0000       3.540933        96.3537 
 373   0.0000       3.555742        96.7567 
 374   0.0000       3.579160        97.3939 
 375   0.0000       3.595503        97.8386 
 376   0.0000       3.626530        98.6829 
 377   0.0000       3.649337        99.3035 
 378   0.0000       3.665334        99.7388 
 379   0.0000       3.677727       100.0761 
 380   0.0000       3.714018       101.0636 
 381   0.0000       3.728811       101.4661 
 382   0.0000       3.749323       102.0243 
 383   0.0000       3.761713       102.3614 
 384   0.0000       3.779000       102.8318 
 385   0.0000       3.788381       103.0871 
 386   0.0000       3.814264       103.7914 
 387   0.0000       3.827468       104.1507 
 388   0.0000       3.847184       104.6872 
 389   0.0000       3.849625       104.7536 
 390   0.0000       3.862968       105.1167 
 391   0.0000       3.884657       105.7069 
 392   0.0000       3.900659       106.1423 
 393   0.0000       3.933382       107.0328 
 394   0.0000       3.965331       107.9021 
 395   0.0000       3.977566       108.2351 
 396   0.0000       4.013181       109.2042 
 397   0.0000       4.024987       109.5255 
 398   0.0000       4.048908       110.1764 
 399   0.0000       4.099232       111.5458 
 400   0.0000       4.111332       111.8750 
 401   0.0000       4.128375       112.3388 
 402   0.0000       4.141624       112.6993 
 403   0.0000       4.164973       113.3347 
 404   0.0000       4.176280       113.6423 
 405   0.0000       4.223202       114.9192 
 406   0.0000       4.237613       115.3113 
 407   0.0000       4.273974       116.3007 
 408   0.0000       4.331294       117.8605 
 409   0.0000       4.336191       117.9937 
 410   0.0000       4.350516       118.3836 
 411   0.0000       4.378380       119.1418 
 412   0.0000       4.388977       119.4301 
 413   0.0000       4.411911       120.0542 
 414   0.0000       4.447835       121.0318 
 415   0.0000       4.453381       121.1827 
 416   0.0000       4.480596       121.9232 
 417   0.0000       4.502428       122.5173 
 418   0.0000       4.522838       123.0727 
 419   0.0000       4.544207       123.6542 
 420   0.0000       4.577063       124.5482 
 421   0.0000       4.593600       124.9982 
 422   0.0000       4.660694       126.8239 
 423   0.0000       4.686546       127.5274 
 424   0.0000       4.710691       128.1844 
 425   0.0000       4.725253       128.5807 
 426   0.0000       4.733749       128.8119 
 427   0.0000       4.742079       129.0385 
 428   0.0000       4.787429       130.2726 
 429   0.0000       4.815679       131.0413 
 430   0.0000       4.843178       131.7896 
 431   0.0000       4.960629       134.9856 
 432   0.0000       4.994831       135.9163 
 433   0.0000       5.013507       136.4244 
 434   0.0000       5.043206       137.2326 
 435   0.0000       5.070533       137.9762 
 436   0.0000       5.088509       138.4654 
 437   0.0000       5.102665       138.8506 
 438   0.0000       5.131138       139.6254 
 439   0.0000       5.149206       140.1170 
 440   0.0000       5.163386       140.5029 
 441   0.0000       5.191929       141.2796 
 442   0.0000       5.207581       141.7055 
 443   0.0000       5.213992       141.8799 
 444   0.0000       5.234422       142.4359 
 445   0.0000       5.258850       143.1006 
 446   0.0000       5.273117       143.4888 
 447   0.0000       5.278585       143.6376 
 448   0.0000       5.303090       144.3044 
 449   0.0000       5.380519       146.4114 
 450   0.0000       5.384627       146.5231 
 451   0.0000       5.393881       146.7750 
 452   0.0000       5.403801       147.0449 
 453   0.0000       5.469160       148.8234 
 454   0.0000       5.493615       149.4889 
 455   0.0000       5.509488       149.9208 
 456   0.0000       5.558039       151.2419 
 457   0.0000       5.582627       151.9110 
 458   0.0000       5.611299       152.6912 
 459   0.0000       5.656292       153.9155 
 460   0.0000       5.668051       154.2355 
 461   0.0000       5.734445       156.0422 
 462   0.0000       5.783338       157.3726 
 463   0.0000       5.818682       158.3344 
 464   0.0000       5.838824       158.8825 
 465   0.0000       5.858144       159.4082 
 466   0.0000       5.884368       160.1218 
 467   0.0000       5.974961       162.5869 
 468   0.0000       6.042613       164.4279 
 469   0.0000       6.066976       165.0908 
 470   0.0000       6.126748       166.7173 
 471   0.0000       6.188413       168.3953 
 472   0.0000       6.273548       170.7119 
 473   0.0000       6.295456       171.3081 
 474   0.0000       6.316426       171.8787 
 475   0.0000       6.318442       171.9336 
 476   0.0000       6.393558       173.9776 
 477   0.0000       6.397513       174.0852 
 478   0.0000       6.435305       175.1136 
 479   0.0000       6.475315       176.2023 
 480   0.0000       6.548192       178.1854 
 481   0.0000       6.578059       178.9981 
 482   0.0000       6.630159       180.4158 
 483   0.0000       6.651537       180.9975 
 484   0.0000       6.681503       181.8129 
 485   0.0000       6.714744       182.7175 
 486   0.0000       6.727206       183.0566 
 487   0.0000       6.804735       185.1662 
 488   0.0000       6.808069       185.2570 
 489   0.0000       6.817893       185.5243 
 490   0.0000       6.878991       187.1869 
 491   0.0000       7.040803       191.5900 
 492   0.0000       7.057198       192.0361 
 493   0.0000       7.059269       192.0925 
 494   0.0000       7.065292       192.2564 
 495   0.0000       7.083431       192.7499 
 496   0.0000       7.137583       194.2235 
 497   0.0000       7.254458       197.4038 
 498   0.0000      22.398820       609.5029 
 499   0.0000      22.471188       611.4721 
 500   0.0000      22.546840       613.5307 
 501   0.0000      22.627878       615.7359 
 502   0.0000      22.979531       625.3048 
 503   0.0000      23.243214       632.4800 
 504   0.0000      23.341722       635.1605 
 505   0.0000      23.366124       635.8246 
 506   0.0000      32.521337       884.9506 
 507   0.0000      32.726598       890.5360 
 508   0.0000      43.915832      1195.0105 
 509   0.0000      43.988725      1196.9941 
 510   0.0000      44.053044      1198.7443 
 511   0.0000      44.126659      1200.7474 

                 SPIN DOWN ORBITALS
  NO   OCC          E(Eh)            E(eV) 
   0   1.0000     -19.681275      -535.5547 
   1   1.0000     -19.629293      -534.1402 
   2   1.0000     -19.609255      -533.5949 
   3   1.0000     -19.596619      -533.2511 
   4   1.0000     -14.804996      -402.8644 
   5   1.0000     -14.781635      -402.2287 
   6   1.0000     -10.689208      -290.8681 
   7   1.0000     -10.664671      -290.2005 
   8   1.0000     -10.653919      -289.9079 
   9   1.0000     -10.605075      -288.5788 
  10   1.0000     -10.575248      -287.7671 
  11   1.0000     -10.564913      -287.4859 
  12   1.0000     -10.564247      -287.4678 
  13   1.0000     -10.553540      -287.1764 
  14   1.0000      -1.240298       -33.7502 
  15   1.0000      -1.170679       -31.8558 
  16   1.0000      -1.155765       -31.4500 
  17   1.0000      -1.145739       -31.1771 
  18   1.0000      -1.055359       -28.7178 
  19   1.0000      -1.032730       -28.1020 
  20   1.0000      -0.912778       -24.8380 
  21   1.0000      -0.860455       -23.4142 
  22   1.0000      -0.827965       -22.5301 
  23   1.0000      -0.792118       -21.5546 
  24   1.0000      -0.753424       -20.5017 
  25   1.0000      -0.688903       -18.7460 
  26   1.0000      -0.681338       -18.5402 
  27   1.0000      -0.646599       -17.5948 
  28   1.0000      -0.633059       -17.2264 
  29   1.0000      -0.590550       -16.0697 
  30   1.0000      -0.581633       -15.8270 
  31   1.0000      -0.567880       -15.4528 
  32   1.0000      -0.564540       -15.3619 
  33   1.0000      -0.538870       -14.6634 
  34   1.0000      -0.536958       -14.6114 
  35   1.0000      -0.527885       -14.3645 
  36   1.0000      -0.521731       -14.1970 
  37   1.0000      -0.509396       -13.8614 
  38   1.0000      -0.494855       -13.4657 
  39   1.0000      -0.488751       -13.2996 
  40   1.0000      -0.476591       -12.9687 
  41   1.0000      -0.475121       -12.9287 
  42   1.0000      -0.466566       -12.6959 
  43   1.0000      -0.450481       -12.2582 
  44   1.0000      -0.447269       -12.1708 
  45   1.0000      -0.444736       -12.1019 
  46   1.0000      -0.428876       -11.6703 
  47   1.0000      -0.406570       -11.0633 
  48   1.0000      -0.372609       -10.1392 
  49   1.0000      -0.369043       -10.0422 
  50   1.0000      -0.347807        -9.4643 
  51   1.0000      -0.344753        -9.3812 
  52   1.0000      -0.321658        -8.7528 
  53   0.0000      -0.061633        -1.6771 
  54   0.0000       0.034578         0.9409 
  55   0.0000       0.049405         1.3444 
  56   0.0000       0.054820         1.4917 
  57   0.0000       0.065430         1.7804 
  58   0.0000       0.068043         1.8516 
  59   0.0000       0.091957         2.5023 
  60   0.0000       0.097767         2.6604 
  61   0.0000       0.107832         2.9343 
  62   0.0000       0.112843         3.0706 
  63   0.0000       0.118726         3.2307 
  64   0.0000       0.125484         3.4146 
  65   0.0000       0.141805         3.8587 
  66   0.0000       0.148544         4.0421 
  67   0.0000       0.150186         4.0868 
  68   0.0000       0.153286         4.1711 
  69   0.0000       0.162530         4.4227 
  70   0.0000       0.166721         4.5367 
  71   0.0000       0.185200         5.0395 
  72   0.0000       0.191548         5.2123 
  73   0.0000       0.203194         5.5292 
  74   0.0000       0.206690         5.6243 
  75   0.0000       0.212736         5.7888 
  76   0.0000       0.222789         6.0624 
  77   0.0000       0.228781         6.2254 
  78   0.0000       0.235542         6.4094 
  79   0.0000       0.239951         6.5294 
  80   0.0000       0.243619         6.6292 
  81   0.0000       0.255101         6.9417 
  82   0.0000       0.264128         7.1873 
  83   0.0000       0.266123         7.2416 
  84   0.0000       0.280954         7.6451 
  85   0.0000       0.282278         7.6812 
  86   0.0000       0.287671         7.8279 
  87   0.0000       0.299494         8.1497 
  88   0.0000       0.306382         8.3371 
  89   0.0000       0.322331         8.7711 
  90   0.0000       0.326383         8.8813 
  91   0.0000       0.338641         9.2149 
  92   0.0000       0.351443         9.5633 
  93   0.0000       0.361648         9.8410 
  94   0.0000       0.368606        10.0303 
  95   0.0000       0.373510        10.1637 
  96   0.0000       0.383323        10.4307 
  97   0.0000       0.394772        10.7423 
  98   0.0000       0.396056        10.7772 
  99   0.0000       0.408685        11.1209 
 100   0.0000       0.412960        11.2372 
 101   0.0000       0.419500        11.4152 
 102   0.0000       0.420384        11.4392 
 103   0.0000       0.428444        11.6585 
 104   0.0000       0.438972        11.9450 
 105   0.0000       0.440114        11.9761 
 106   0.0000       0.447241        12.1700 
 107   0.0000       0.454283        12.3617 
 108   0.0000       0.466902        12.7051 
 109   0.0000       0.469114        12.7653 
 110   0.0000       0.471600        12.8329 
 111   0.0000       0.476040        12.9537 
 112   0.0000       0.484558        13.1855 
 113   0.0000       0.488333        13.2882 
 114   0.0000       0.494846        13.4654 
 115   0.0000       0.506158        13.7733 
 116   0.0000       0.512382        13.9426 
 117   0.0000       0.513670        13.9777 
 118   0.0000       0.527787        14.3618 
 119   0.0000       0.531462        14.4618 
 120   0.0000       0.537475        14.6255 
 121   0.0000       0.538811        14.6618 
 122   0.0000       0.547481        14.8977 
 123   0.0000       0.554631        15.0923 
 124   0.0000       0.573366        15.6021 
 125   0.0000       0.578994        15.7552 
 126   0.0000       0.590065        16.0565 
 127   0.0000       0.599917        16.3246 
 128   0.0000       0.602569        16.3967 
 129   0.0000       0.609009        16.5720 
 130   0.0000       0.615216        16.7409 
 131   0.0000       0.618243        16.8233 
 132   0.0000       0.627393        17.0722 
 133   0.0000       0.640439        17.4272 
 134   0.0000       0.646482        17.5917 
 135   0.0000       0.650847        17.7104 
 136   0.0000       0.661975        18.0133 
 137   0.0000       0.675024        18.3683 
 138   0.0000       0.676517        18.4090 
 139   0.0000       0.691053        18.8045 
 140   0.0000       0.703807        19.1516 
 141   0.0000       0.713219        19.4077 
 142   0.0000       0.715934        19.4816 
 143   0.0000       0.734538        19.9878 
 144   0.0000       0.743321        20.2268 
 145   0.0000       0.764107        20.7924 
 146   0.0000       0.776653        21.1338 
 147   0.0000       0.790514        21.5110 
 148   0.0000       0.800993        21.7961 
 149   0.0000       0.820599        22.3296 
 150   0.0000       0.823689        22.4137 
 151   0.0000       0.830721        22.6051 
 152   0.0000       0.863247        23.4902 
 153   0.0000       0.874180        23.7876 
[...]
     71      -0.090647   0.000119  -0.000433  -0.000002  -0.018166   0.000970
     72       0.478879  -0.000498  -0.000028  -0.000129  -0.153123   0.008373
     73      -0.079994   0.000056   0.000197   0.000006   0.039343  -0.002113
     74       0.439248  -0.000481   0.000012  -0.000140  -0.167347   0.009132
     75       0.099456  -0.000036  -0.000635  -0.000055  -0.554747   0.030210
     76       0.128357  -0.000039  -0.000713  -0.000071  -0.683609   0.037207
     77      -0.018518   0.000027  -0.000052  -0.000044   0.019307  -0.001059
     78      -0.320474   0.000386  -0.002812   0.000094  -0.155610   0.008403
     79      -0.053693   0.000061  -0.000231   0.000033  -0.020096   0.001103
     80       0.655963  -0.000804   0.005604  -0.000190   0.367542  -0.019848
                 78         79         80    
      0       0.069299  -0.000139  -0.000045
      1      -0.012977   0.000199   0.000006
      2      -0.016481   0.000048   0.000015
      3       0.001428  -0.000357   0.000051
      4       0.001041  -0.000189  -0.000005
      5      -0.000438   0.000092  -0.000002
      6      -0.001330  -0.000257   0.000040
      7       0.000328   0.000979  -0.000011
      8       0.000403   0.000202  -0.000003
      9       0.001115   0.000981  -0.000028
     10      -0.000074   0.000347   0.000005
     11      -0.000287  -0.000223   0.000007
     12      -0.000518  -0.000067  -0.000061
     13      -0.000365  -0.000104   0.000006
     14       0.000156   0.000169  -0.000111
     15      -0.001085  -0.000095   0.000241
     16      -0.000615   0.011599  -0.000284
     17       0.000643   0.000217   0.000244
     18       0.000916  -0.000752   0.000036
     19      -0.000448  -0.000238   0.000262
     20      -0.000813   0.000636   0.000241
     21       0.000011  -0.000056  -0.000644
     22      -0.000064  -0.000035  -0.000144
     23       0.000071   0.000107   0.000561
     24       0.000442   0.000276  -0.000861
     25       0.000970  -0.000076   0.001882
     26      -0.000114   0.000061  -0.001215
     27      -0.000033   0.000573  -0.000381
     28      -0.000060  -0.000437  -0.001243
     29      -0.000135  -0.000851  -0.002098
     30       0.000106   0.000020   0.003057
     31       0.000026   0.000119   0.000162
     32      -0.000017  -0.000196   0.000306
     33       0.000001  -0.000087   0.056254
     34       0.000005  -0.000051   0.011732
     35      -0.000024   0.000086  -0.021212
     36      -0.000034  -0.000005  -0.000227
     37      -0.000014  -0.000102   0.000290
     38       0.000023   0.000086  -0.000877
     39      -0.959971   0.002198   0.000484
     40       0.142371  -0.000811  -0.000110
     41       0.229859  -0.000454  -0.000083
     42       0.000141   0.000221   0.000058
     43       0.000408  -0.000199   0.000017
     44       0.000079  -0.000036  -0.000004
     45       0.000229  -0.070118  -0.000128
     46       0.000167  -0.005456   0.000006
     47      -0.000034   0.021586   0.000033
     48      -0.000475   0.001557  -0.917110
     49      -0.000056   0.000463  -0.191392
     50       0.000232  -0.000747   0.344237
     51       0.002546   0.949035   0.001713
     52       0.001479   0.070015  -0.000022
     53      -0.000726  -0.297803  -0.000447
     54      -0.001434  -0.000141  -0.000025
     55       0.000960   0.000030  -0.000012
     56       0.000099   0.000022  -0.000000
     57       0.000444  -0.000006   0.000006
     58      -0.000240   0.000004  -0.000008
     59       0.000012   0.000000   0.000004
     60       0.000002  -0.000006   0.000006
     61       0.001176   0.000102   0.000008
     62      -0.001079  -0.000093   0.000007
     63       0.000445   0.000034  -0.000001
     64       0.000904   0.000087   0.000000
     65       0.000323   0.000051   0.000001
     66      -0.006611  -0.000052  -0.000044
     67       0.005818  -0.000025   0.000006
     68       0.001151   0.000013   0.000014
     69      -0.000020   0.000354   0.000011
     70      -0.000072  -0.001682  -0.000025
     71       0.000010  -0.000099  -0.000003
     72      -0.000121   0.004457  -0.000089
     73      -0.000206  -0.002958   0.000033
     74       0.000151   0.003130  -0.000049
     75       0.000423   0.004616   0.000047
     76       0.000238   0.007083   0.000057
     77      -0.000079  -0.000352  -0.000001
     78      -0.000151   0.004324  -0.000036
     79      -0.000173  -0.002123   0.000014
     80      -0.000193  -0.006819   0.000047


-----------
IR SPECTRUM
-----------

 Mode   freq       eps      Int      T**2         TX        TY        TZ
       cm**-1   L/(mol*cm) km/mol    a.u.
----------------------------------------------------------------------------
  6:     30.93   0.000270    1.36  0.002722  ( 0.018623 -0.041570 -0.025433)
  7:     37.91   0.000120    0.61  0.000988  (-0.005971  0.029888 -0.007717)
  8:     55.94   0.000080    0.40  0.000445  (-0.012595  0.016917 -0.000685)
  9:     77.73   0.001271    6.42  0.005103  (-0.009116  0.002027 -0.070821)
 10:     85.27   0.003570   18.04  0.013067  (-0.037372 -0.011842 -0.107377)
 11:    122.80   0.001094    5.53  0.002780  (-0.022072  0.044456 -0.017799)
 12:    126.93   0.000899    4.54  0.002211  ( 0.020268 -0.020453  0.037167)
 13:    133.10   0.000145    0.73  0.000339  ( 0.006504 -0.004731  0.016565)
 14:    145.70   0.001005    5.08  0.002154  (-0.015469 -0.036042 -0.024806)
 15:    151.74   0.001025    5.18  0.002109  ( 0.023184  0.000917  0.039629)
 16:    181.88   0.000442    2.24  0.000759  (-0.016278 -0.003109  0.022008)
 17:    227.69   0.000413    2.09  0.000566  ( 0.005711  0.020788 -0.010061)
 18:    262.35   0.002394   12.10  0.002848  ( 0.023501  0.047730  0.004160)
 19:    303.61   0.006635   33.53  0.006820  (-0.028903  0.017412 -0.075374)
 20:    312.92   0.001841    9.30  0.001836  (-0.016883 -0.009836 -0.038135)
 21:    361.14   0.002292   11.58  0.001981  (-0.002820 -0.035730 -0.026386)
 22:    378.95   0.000891    4.50  0.000733  ( 0.006252  0.022655  0.013456)
 23:    403.42   0.001168    5.90  0.000903  (-0.001538  0.029810 -0.003492)
 24:    484.49   0.003146   15.90  0.002026  (-0.030032  0.010844 -0.031731)
 25:    527.29   0.009421   47.61  0.005576  (-0.037339 -0.061514 -0.019935)
 26:    531.77   0.002403   12.14  0.001410  (-0.032839  0.004916  0.017540)
 27:    592.01   0.006536   33.03  0.003446  ( 0.046605 -0.035571  0.002864)
 28:    618.64   0.001746    8.82  0.000881  (-0.014808 -0.001970 -0.025642)
 29:    656.78   0.012208   61.69  0.005801  (-0.019009  0.068616  0.027038)
 30:    663.58   0.005516   27.87  0.002594  (-0.036202 -0.034589 -0.009315)
 31:    714.63   0.002165   10.94  0.000945  ( 0.002644  0.029812  0.007049)
 32:    746.94   0.003208   16.21  0.001340  ( 0.019246 -0.004178  0.030864)
 33:    757.12   0.008780   44.37  0.003619  (-0.021097  0.006522 -0.055959)
 34:    806.29   0.003703   18.71  0.001433  ( 0.010440  0.034989  0.009995)
 35:    866.82   0.000279    1.41  0.000101  ( 0.005979 -0.007676 -0.002419)
 36:    919.18   0.000798    4.03  0.000271  (-0.015846  0.004450 -0.000130)
 37:    944.41   0.002997   15.14  0.000990  ( 0.029721  0.010113 -0.002138)
 38:   1018.11   0.001684    8.51  0.000516  (-0.002469  0.021382 -0.007264)
 39:   1039.35   0.000874    4.42  0.000262  (-0.002883 -0.014568 -0.006475)
 40:   1060.38   0.001447    7.31  0.000426  ( 0.004076  0.005870  0.019362)
 41:   1064.44   0.001734    8.76  0.000508  ( 0.018669 -0.009078  0.008796)
 42:   1080.97   0.000088    0.44  0.000025  (-0.004915 -0.000555 -0.000893)
 43:   1164.05   0.000157    0.79  0.000042  ( 0.001239 -0.005576  0.003075)
 44:   1168.26   0.002514   12.71  0.000672  (-0.022535  0.000752 -0.012776)
 45:   1183.83   0.047588  240.49  0.012544  ( 0.088564 -0.014450  0.067022)
 46:   1186.44   0.003008   15.20  0.000791  (-0.013393  0.024733 -0.000138)
 47:   1229.24   0.008500   42.95  0.002158  (-0.013935  0.043697  0.007361)
 48:   1262.84   0.000981    4.96  0.000242  ( 0.009925  0.006741 -0.009921)
 49:   1281.48   0.006507   32.89  0.001585  ( 0.032092 -0.016582  0.016728)
 50:   1310.29   0.008136   41.12  0.001938  ( 0.013033 -0.042029 -0.001208)
 51:   1343.79   0.018067   91.30  0.004196  ( 0.029752 -0.056223  0.012226)
 52:   1353.92   0.040925  206.82  0.009433  ( 0.004509  0.096754  0.007157)
 53:   1411.18   0.008921   45.08  0.001973  (-0.006686 -0.043705  0.004235)
 54:   1423.99   0.020604  104.12  0.004515  ( 0.060689  0.014906  0.024699)
 55:   1433.12   0.009588   48.46  0.002088  ( 0.032894 -0.025794  0.018454)
 56:   1455.83   0.002902   14.67  0.000622  (-0.008738 -0.022858  0.004817)
 57:   1464.74   0.003216   16.25  0.000685  ( 0.024327  0.006031 -0.007545)
 58:   1477.63   0.001575    7.96  0.000333  (-0.006414  0.002968 -0.016811)
 59:   1482.89   0.004339   21.93  0.000913  ( 0.000019  0.021094  0.021638)
 60:   1493.86   0.011250   56.86  0.002350  ( 0.027747 -0.033837 -0.020865)
 61:   1495.48   0.004960   25.07  0.001035  (-0.026790  0.015834  0.008161)
 62:   1519.82   0.009844   49.75  0.002021  ( 0.007253 -0.044363 -0.000723)
 63:   1553.39   0.145969  737.67  0.029324  (-0.004653 -0.171155  0.002896)
 64:   1598.55   0.002225   11.24  0.000434  (-0.017843 -0.009156  0.005663)
 65:   1702.84   0.066797  337.56  0.012241  (-0.108026  0.006490  0.023014)
 66:   1782.86   0.043881  221.76  0.007681  (-0.068232  0.054437  0.007864)
 67:   1861.29   0.062503  315.87  0.010479  (-0.018752 -0.033136  0.095024)
 68:   3077.44   0.007829   39.56  0.000794  ( 0.010374 -0.026189 -0.000590)
 69:   3080.65   0.001397    7.06  0.000141  (-0.008082 -0.006632 -0.005672)
 70:   3089.15   0.000431    2.18  0.000043  ( 0.005878  0.002834 -0.000957)
 71:   3104.92   0.002007   10.14  0.000202  ( 0.000152 -0.012205  0.007262)
 72:   3143.35   0.002138   10.80  0.000212  (-0.004545 -0.000991 -0.013806)
 73:   3144.49   0.000641    3.24  0.000064  ( 0.007148  0.003391  0.001008)
 74:   3161.16   0.000107    0.54  0.000011  (-0.002957  0.001343 -0.000201)
 75:   3170.05   0.000122    0.62  0.000012  (-0.000781  0.000007  0.003378)
 76:   3182.77   0.001567    7.92  0.000154  ( 0.008253  0.009053 -0.001882)
 77:   3183.11   0.001257    6.35  0.000123  (-0.010390  0.003677  0.001326)
 78:   3532.50   0.020004  101.09  0.001767  (-0.034993  0.021998  0.007666)
 79:   3697.33   0.008854   44.75  0.000747  ( 0.024278  0.010869 -0.006307)
 80:   3798.56   0.018902   95.52  0.001553  (-0.039174 -0.003681  0.002165)

* The epsilon (eps) is given for a Dirac delta lineshape.
** The dipole moment derivative (T) already includes vibrational overlap.

The first frequency considered to be a vibration is 6
The total number of vibrations considered is 75


--------------------------
THERMOCHEMISTRY AT 298.15K
--------------------------

Temperature         ... 298.15 K
Pressure            ... 1.00 atm
Total Mass          ... 201.20 AMU

Throughout the following assumptions are being made:
  (1) The electronic state is orbitally nondegenerate
      but the spin degeneracy is treated
  (2) There are no thermally accessible electronically excited states
  (3) Hindered rotations indicated by low frequency modes are not
      treated as such but are treated as vibrations and this may
      cause some error
  (4) All equations used are the standard statistical mechanics
      equations for an ideal gas
  (5) All vibrations are strictly harmonic

freq.      30.93  E(vib)   ...       0.55 
freq.      37.91  E(vib)   ...       0.54 
freq.      55.94  E(vib)   ...       0.52 
freq.      77.73  E(vib)   ...       0.49 
freq.      85.27  E(vib)   ...       0.48 
freq.     122.80  E(vib)   ...       0.43 
freq.     126.93  E(vib)   ...       0.43 
freq.     133.10  E(vib)   ...       0.42 
freq.     145.70  E(vib)   ...       0.41 
freq.     151.74  E(vib)   ...       0.40 
freq.     181.88  E(vib)   ...       0.37 
freq.     227.69  E(vib)   ...       0.33 
freq.     262.35  E(vib)   ...       0.29 
freq.     303.61  E(vib)   ...       0.26 
freq.     312.92  E(vib)   ...       0.25 
freq.     361.14  E(vib)   ...       0.22 
freq.     378.95  E(vib)   ...       0.21 
freq.     403.42  E(vib)   ...       0.19 
freq.     484.49  E(vib)   ...       0.15 
freq.     527.29  E(vib)   ...       0.13 
freq.     531.77  E(vib)   ...       0.13 
freq.     592.01  E(vib)   ...       0.10 
freq.     618.64  E(vib)   ...       0.09 
freq.     656.78  E(vib)   ...       0.08 
freq.     663.58  E(vib)   ...       0.08 
freq.     714.63  E(vib)   ...       0.07 
freq.     746.94  E(vib)   ...       0.06 
freq.     757.12  E(vib)   ...       0.06 
freq.     806.29  E(vib)   ...       0.05 
freq.     866.82  E(vib)   ...       0.04 
freq.     919.18  E(vib)   ...       0.03 
freq.     944.41  E(vib)   ...       0.03 
freq.    1018.11  E(vib)   ...       0.02 
freq.    1039.35  E(vib)   ...       0.02 
freq.    1060.38  E(vib)   ...       0.02 
freq.    1064.44  E(vib)   ...       0.02 
freq.    1080.97  E(vib)   ...       0.02 
freq.    1164.05  E(vib)   ...       0.01 
freq.    1168.26  E(vib)   ...       0.01 
freq.    1183.83  E(vib)   ...       0.01 
freq.    1186.44  E(vib)   ...       0.01 
freq.    1229.24  E(vib)   ...       0.01 
freq.    1262.84  E(vib)   ...       0.01 
freq.    1281.48  E(vib)   ...       0.01 
freq.    1310.29  E(vib)   ...       0.01 
freq.    1343.79  E(vib)   ...       0.01 
freq.    1353.92  E(vib)   ...       0.01 
freq.    1411.18  E(vib)   ...       0.00 
freq.    1423.99  E(vib)   ...       0.00 
freq.    1433.12  E(vib)   ...       0.00 
freq.    1455.83  E(vib)   ...       0.00 
freq.    1464.74  E(vib)   ...       0.00 
freq.    1477.63  E(vib)   ...       0.00 
freq.    1482.89  E(vib)   ...       0.00 
freq.    1493.86  E(vib)   ...       0.00 
freq.    1495.48  E(vib)   ...       0.00 
freq.    1519.82  E(vib)   ...       0.00 
freq.    1553.39  E(vib)   ...       0.00 
freq.    1598.55  E(vib)   ...       0.00 
freq.    1702.84  E(vib)   ...       0.00 
freq.    1782.86  E(vib)   ...       0.00 
freq.    1861.29  E(vib)   ...       0.00 
freq.    3077.44  E(vib)   ...       0.00 
freq.    3080.65  E(vib)   ...       0.00 
freq.    3089.15  E(vib)   ...       0.00 
freq.    3104.92  E(vib)   ...       0.00 
freq.    3143.35  E(vib)   ...       0.00 
freq.    3144.49  E(vib)   ...       0.00 
freq.    3161.16  E(vib)   ...       0.00 
freq.    3170.05  E(vib)   ...       0.00 
freq.    3182.77  E(vib)   ...       0.00 
freq.    3183.11  E(vib)   ...       0.00 
freq.    3532.50  E(vib)   ...       0.00 
freq.    3697.33  E(vib)   ...       0.00 
freq.    3798.56  E(vib)   ...       0.00 

------------
INNER ENERGY
------------

The inner energy is: U= E(el) + E(ZPE) + E(vib) + E(rot) + E(trans)
    E(el)   - is the total energy from the electronic structure calculation
              = E(kin-el) + E(nuc-el) + E(el-el) + E(nuc-nuc)
    E(ZPE)  - the the zero temperature vibrational energy from the frequency calculation
    E(vib)  - the the finite temperature correction to E(ZPE) due to population
              of excited vibrational states
    E(rot)  - is the rotational thermal energy
    E(trans)- is the translational thermal energy

Summary of contributions to the inner energy U:
Electronic energy                ...   -723.09817273 Eh
Zero point energy                ...      0.21984382 Eh     137.95 kcal/mol
Thermal vibrational correction   ...      0.01293024 Eh       8.11 kcal/mol
Thermal rotational correction    ...      0.00141627 Eh       0.89 kcal/mol
Thermal translational correction ...      0.00141627 Eh       0.89 kcal/mol
-----------------------------------------------------------------------
Total thermal energy                   -722.86256613 Eh


Summary of corrections to the electronic energy:
(perhaps to be used in another calculation)
Total thermal correction                  0.01576278 Eh       9.89 kcal/mol
Non-thermal (ZPE) correction              0.21984382 Eh     137.95 kcal/mol
-----------------------------------------------------------------------
Total correction                          0.23560660 Eh     147.85 kcal/mol


--------
ENTHALPY
--------

The enthalpy is H = U + kB*T
                kB is Boltzmann's constant
Total free energy                 ...   -722.86256613 Eh 
Thermal Enthalpy correction       ...      0.00094421 Eh       0.59 kcal/mol
-----------------------------------------------------------------------
Total Enthalpy                    ...   -722.86162192 Eh


Note: Only C1 symmetry has been detected, increase convergence thresholds 
      if your molecule has a higher symmetry. Symmetry factor of 1.0 is   
      used for the rotational entropy correction. 
 

Note: Rotational entropy computed according to Herzberg 
Infrared and Raman Spectra, Chapter V,1, Van Nostrand Reinhold, 1945 
Point Group:  C1, Symmetry Number:   1  
Rotational constants in cm-1:     0.021277     0.016713     0.009989 

Vibrational entropy computed according to the QRRHO of S. Grimme
Chem.Eur.J. 2012 18 9955


-------
ENTROPY
-------

The entropy contributions are T*S = T*(S(el)+S(vib)+S(rot)+S(trans))
     S(el)   - electronic entropy
     S(vib)  - vibrational entropy
     S(rot)  - rotational entropy
     S(trans)- translational entropy
The entropies will be listed as multiplied by the temperature to get
units of energy

Electronic entropy                ...      0.00065446 Eh      0.41 kcal/mol
Vibrational entropy               ...      0.02350406 Eh     14.75 kcal/mol
Rotational entropy                ...      0.01543459 Eh      9.69 kcal/mol
Translational entropy             ...      0.01986141 Eh     12.46 kcal/mol
-----------------------------------------------------------------------
Final entropy term                ...      0.05945452 Eh     37.31 kcal/mol

In case the symmetry of your molecule has not been determined correctly
or in case you have a reason to use a different symmetry number we print 
out the resulting rotational entropy values for sn=1,12 :
 --------------------------------------------------------
|  sn= 1 | S(rot)=       0.01543459 Eh      9.69 kcal/mol|
|  sn= 2 | S(rot)=       0.01478013 Eh      9.27 kcal/mol|
|  sn= 3 | S(rot)=       0.01439730 Eh      9.03 kcal/mol|
|  sn= 4 | S(rot)=       0.01412568 Eh      8.86 kcal/mol|
|  sn= 5 | S(rot)=       0.01391499 Eh      8.73 kcal/mol|
|  sn= 6 | S(rot)=       0.01374285 Eh      8.62 kcal/mol|
|  sn= 7 | S(rot)=       0.01359730 Eh      8.53 kcal/mol|
|  sn= 8 | S(rot)=       0.01347122 Eh      8.45 kcal/mol|
|  sn= 9 | S(rot)=       0.01336001 Eh      8.38 kcal/mol|
|  sn=10 | S(rot)=       0.01326053 Eh      8.32 kcal/mol|
|  sn=11 | S(rot)=       0.01317054 Eh      8.26 kcal/mol|
|  sn=12 | S(rot)=       0.01308839 Eh      8.21 kcal/mol|
 --------------------------------------------------------


-------------------
GIBBS FREE ENERGY
-------------------

The Gibbs free energy is G = H - T*S

Total enthalpy                    ...   -722.86162192 Eh 
Total entropy correction          ...     -0.05945452 Eh    -37.31 kcal/mol
-----------------------------------------------------------------------
Final Gibbs free energy         ...   -722.92107643 Eh

For completeness - the Gibbs free energy minus the electronic energy
G-E(el)                           ...      0.17709629 Eh    111.13 kcal/mol


Timings for individual modules:

Sum of individual times         ...     2003.741 sec (=  33.396 min)
GTO integral calculation        ...       75.053 sec (=   1.251 min)   3.7 %
SCF iterations                  ...      989.962 sec (=  16.499 min)  49.4 %
SCF Gradient evaluation         ...      296.575 sec (=   4.943 min)  14.8 %
Geometry relaxation             ...        0.951 sec (=   0.016 min)   0.0 %
Analytical frequency calculation...      641.200 sec (=  10.687 min)  32.0 %
                             ****ORCA TERMINATED NORMALLY****
TOTAL RUN TIME: 0 days 0 hours 34 minutes 29 seconds 741 msec
