
                                 *****************
                                 * O   R   C   A *
                                 *****************

                                            #,                                       
                                            ###                                      
                                            ####                                     
                                            #####                                    
                                            ######                                   
                                           ########,                                 
                                     ,,################,,,,,                         
                               ,,#################################,,                 
                          ,,##########################################,,             
                       ,#########################################, ''#####,          
                    ,#############################################,,   '####,        
                  ,##################################################,,,,####,       
                ,###########''''           ''''###############################       
              ,#####''   ,,,,##########,,,,          '''####'''          '####       
            ,##' ,,,,###########################,,,                        '##       
           ' ,,###''''                  '''############,,,                           
         ,,##''                                '''############,,,,        ,,,,,,###''
      ,#''                                            '''#######################'''  
     '                                                          ''''####''''         
             ,#######,   #######,   ,#######,      ##                                
            ,#'     '#,  ##    ##  ,#'     '#,    #''#        ######   ,####,        
            ##       ##  ##   ,#'  ##            #'  '#       #        #'  '#        
            ##       ##  #######   ##           ,######,      #####,   #    #        
            '#,     ,#'  ##    ##  '#,     ,#' ,#      #,         ##   #,  ,#        
             '#######'   ##     ##  '#######'  #'      '#     #####' # '####'        



                  #######################################################
                  #                        -***-                        #
                  #          Department of theory and spectroscopy      #
                  #    Directorship and core code : Frank Neese         #
                  #        Max Planck Institute fuer Kohlenforschung    #
                  #                Kaiser Wilhelm Platz 1               #
                  #                 D-45470 Muelheim/Ruhr               #
                  #                      Germany                        #
                  #                                                     #
                  #                  All rights reserved                #
                  #                        -***-                        #
                  #######################################################


                         Program Version 5.0.4 -  RELEASE  -


 With contributions from (in alphabetic order):
   Daniel Aravena         : Magnetic Suceptibility
   Michael Atanasov       : Ab Initio Ligand Field Theory (pilot matlab implementation)
   Alexander A. Auer      : GIAO ZORA, VPT2 properties, NMR spectrum
   Ute Becker             : Parallelization
   Giovanni Bistoni       : ED, misc. LED, open-shell LED, HFLD
   Martin Brehm           : Molecular dynamics
   Dmytro Bykov           : SCF Hessian
   Vijay G. Chilkuri      : MRCI spin determinant printing, contributions to CSF-ICE
   Dipayan Datta          : RHF DLPNO-CCSD density
   Achintya Kumar Dutta   : EOM-CC, STEOM-CC
   Dmitry Ganyushin       : Spin-Orbit,Spin-Spin,Magnetic field MRCI
   Miquel Garcia          : C-PCM and meta-GGA Hessian, CC/C-PCM, Gaussian charge scheme
   Yang Guo               : DLPNO-NEVPT2, F12-NEVPT2, CIM, IAO-localization
   Andreas Hansen         : Spin unrestricted coupled pair/coupled cluster methods
   Benjamin Helmich-Paris : MC-RPA, TRAH-SCF, COSX integrals
   Lee Huntington         : MR-EOM, pCC
   Robert Izsak           : Overlap fitted RIJCOSX, COSX-SCS-MP3, EOM
   Marcus Kettner         : VPT2
   Christian Kollmar      : KDIIS, OOCD, Brueckner-CCSD(T), CCSD density, CASPT2, CASPT2-K
   Simone Kossmann        : Meta GGA functionals, TD-DFT gradient, OOMP2, MP2 Hessian
   Martin Krupicka        : Initial AUTO-CI
   Lucas Lang             : DCDCAS
   Marvin Lechner         : AUTO-CI (C++ implementation), FIC-MRCC
   Dagmar Lenk            : GEPOL surface, SMD
   Dimitrios Liakos       : Extrapolation schemes; Compound Job, initial MDCI parallelization
   Dimitrios Manganas     : Further ROCIS development; embedding schemes
   Dimitrios Pantazis     : SARC Basis sets
   Anastasios Papadopoulos: AUTO-CI, single reference methods and gradients
   Taras Petrenko         : DFT Hessian,TD-DFT gradient, ASA, ECA, R-Raman, ABS, FL, XAS/XES, NRVS
   Peter Pinski           : DLPNO-MP2, DLPNO-MP2 Gradient
   Christoph Reimann      : Effective Core Potentials
   Marius Retegan         : Local ZFS, SOC
   Christoph Riplinger    : Optimizer, TS searches, QM/MM, DLPNO-CCSD(T), (RO)-DLPNO pert. Triples
   Tobias Risthaus        : Range-separated hybrids, TD-DFT gradient, RPA, STAB
   Michael Roemelt        : Original ROCIS implementation
   Masaaki Saitow         : Open-shell DLPNO-CCSD energy and density
   Barbara Sandhoefer     : DKH picture change effects
   Avijit Sen             : IP-ROCIS
   Kantharuban Sivalingam : CASSCF convergence, NEVPT2, FIC-MRCI
   Bernardo de Souza      : ESD, SOC TD-DFT
   Georgi Stoychev        : AutoAux, RI-MP2 NMR, DLPNO-MP2 response
   Willem Van den Heuvel  : Paramagnetic NMR
   Boris Wezisla          : Elementary symmetry handling
   Frank Wennmohs         : Technical directorship


 We gratefully acknowledge several colleagues who have allowed us to
 interface, adapt or use parts of their codes:
   Stefan Grimme, W. Hujo, H. Kruse, P. Pracht,  : VdW corrections, initial TS optimization,
                  C. Bannwarth, S. Ehlert          DFT functionals, gCP, sTDA/sTD-DF
   Ed Valeev, F. Pavosevic, A. Kumar             : LibInt (2-el integral package), F12 methods
   Garnet Chan, S. Sharma, J. Yang, R. Olivares  : DMRG
   Ulf Ekstrom                                   : XCFun DFT Library
   Mihaly Kallay                                 : mrcc  (arbitrary order and MRCC methods)
   Jiri Pittner, Ondrej Demel                    : Mk-CCSD
   Frank Weinhold                                : gennbo (NPA and NBO analysis)
   Christopher J. Cramer and Donald G. Truhlar   : smd solvation model
   Lars Goerigk                                  : TD-DFT with DH, B97 family of functionals
   V. Asgeirsson, H. Jonsson                     : NEB implementation
   FAccTs GmbH                                   : IRC, NEB, NEB-TS, DLPNO-Multilevel, CI-OPT
                                                   MM, QMMM, 2- and 3-layer-ONIOM, Crystal-QMMM,
                                                   LR-CPCM, SF, NACMEs, symmetry and pop. for TD-DFT,
                                                   nearIR, NL-DFT gradient (VV10), updates on ESD,
                                                   ML-optimized integration grids
   S Lehtola, MJT Oliveira, MAL Marques          : LibXC Library
   Liviu Ungur et al                             : ANISO software


 Your calculation uses the libint2 library for the computation of 2-el integrals
 For citations please refer to: http://libint.valeyev.net

 Your ORCA version has been built with support for libXC version: 5.1.0
 For citations please refer to: https://tddft.org/programs/libxc/

 This ORCA versions uses:
   CBLAS   interface :  Fast vector & matrix operations
   LAPACKE interface :  Fast linear algebra routines
   SCALAPACK package :  Parallel linear algebra routines
   Shared memory     :  Shared parallel matrices
   BLAS/LAPACK       :  OpenBLAS 0.3.15  USE64BITINT DYNAMIC_ARCH NO_AFFINITY Zen SINGLE_THREADED
        Core in use  :  Zen
   Copyright (c) 2011-2014, The OpenBLAS Project




***************************************
The coordinates will be read from file: model.xyz
***************************************


================================================================================

----- Orbital basis set information -----
Your calculation utilizes the basis: EPR-II
   V. Barone, in Recent Advances in Density Functional Methods, Part 1 (ed. D. P. Chong), World Scientific, Singapore, 1995, p. 287.

----- AuxJ basis set information -----
Your calculation utilizes the auxiliary basis: def2/J
   F. Weigend, Phys. Chem. Chem. Phys. 8, 1057 (2006).

================================================================================
                                        WARNINGS
                       Please study these warnings very carefully!
================================================================================


WARNING: your system is open-shell and RHF/RKS was chosen
  ===> : WILL SWITCH to UHF/UKS


WARNING: Geometry Optimization
  ===> : Switching off AutoStart
         For restart on a previous wavefunction, please use MOREAD

INFO   : the flag for use of the SHARK integral package has been found!

================================================================================
                                       INPUT FILE
================================================================================
NAME = opt.inp
|  1> ! B3LYP EPR-II OPT
|  2> %pal nprocs 16 end
|  3> *XYZFile 0 2 model.xyz
|  4> 
|  5>                          ****END OF INPUT****
================================================================================

                       *****************************
                       * Geometry Optimization Run *
                       *****************************

Geometry optimization settings:
Update method            Update   .... BFGS
Choice of coordinates    CoordSys .... Z-matrix Internals
Initial Hessian          InHess   .... Almoef's Model

Convergence Tolerances:
Energy Change            TolE     ....  5.0000e-06 Eh
Max. Gradient            TolMAXG  ....  3.0000e-04 Eh/bohr
RMS Gradient             TolRMSG  ....  1.0000e-04 Eh/bohr
Max. Displacement        TolMAXD  ....  4.0000e-03 bohr
RMS Displacement         TolRMSD  ....  2.0000e-03 bohr
Strict Convergence                ....  False
------------------------------------------------------------------------------
                        ORCA OPTIMIZATION COORDINATE SETUP
------------------------------------------------------------------------------

The optimization will be done in new redundant internal coordinates
Making redundant internal coordinates   ...  (new redundants) done
Evaluating the initial hessian          ...  (Almloef) done
Evaluating the coordinates              ...  done
Calculating the B-matrix                .... done
Calculating the G-matrix                .... done
Diagonalizing the G-matrix              .... done
Small eigenvalue found = 6.979e-03
Small eigenvalue found = 7.233e-03
Small eigenvalue found = 1.615e-02
The first mode is                       ....   45
The number of degrees of freedom        ....   75

    -----------------------------------------------------------------
                    Redundant Internal Coordinates


    -----------------------------------------------------------------
         Definition                    Initial Value    Approx d2E/dq
    -----------------------------------------------------------------
      1. B(C   1,N   0)                  1.3728         0.596016   
      2. B(C   2,C   1)                  1.4746         0.457930   
      3. B(O   3,C   2)                  1.2306         1.004900   
      4. B(C   4,C   1)                  1.5004         0.416561   
      5. B(H   5,C   4)                  1.0952         0.353223   
      6. B(H   6,C   4)                  1.0942         0.354578   
      7. B(C   7,C   4)                  1.5443         0.354461   
      8. B(H   8,C   7)                  1.0957         0.352630   
      9. B(H   9,C   7)                  1.1000         0.347159   
     10. B(C  10,C   7)                  1.5159         0.393461   
     11. B(O  11,C  10)                  1.3389         0.675239   
     12. B(O  12,C  10)                  1.2014         1.119037   
     13. B(H  13,N   0)                  1.0182         0.419791   
     14. B(C  14,N   0)                  1.3765         0.588060   
     15. B(N  15,C   2)                  1.3600         0.624832   
     16. B(H  16,O  11)                  0.9658         0.509011   
     17. B(H  17,N  15)                  1.0052         0.440409   
     18. B(O  18,C  14)                  1.2131         1.071764   
     19. B(C  19,C  14)                  1.5218         0.384967   
     20. B(H  20,C  19)                  1.0926         0.356628   
     21. B(H  21,C  19)                  1.0981         0.349517   
     22. B(H  22,C  19)                  1.0963         0.351895   
     23. B(C  23,N  15)                  1.4491         0.450450   
     24. B(H  24,C  23)                  1.0975         0.350250   
     25. B(H  25,C  23)                  1.0938         0.355087   
     26. B(H  26,C  23)                  1.0965         0.351585   
     27. A(H  13,N   0,C  14)          118.4504         0.353638   
     28. A(C   1,N   0,H  13)          111.4004         0.354444   
     29. A(C   1,N   0,C  14)          130.1467         0.421390   
     30. A(C   2,C   1,C   4)          125.5632         0.383460   
     31. A(N   0,C   1,C   4)          123.0684         0.398988   
     32. A(N   0,C   1,C   2)          111.3470         0.405702   
     33. A(C   1,C   2,N  15)          118.1009         0.409105   
     34. A(C   1,C   2,O   3)          120.5971         0.445451   
     35. A(O   3,C   2,N  15)          121.2998         0.468279   
     36. A(C   1,C   4,C   7)          112.8460         0.366876   
     37. A(C   1,C   4,H   6)          109.8929         0.329350   
     38. A(C   1,C   4,H   5)          110.0411         0.329142   
     39. A(H   6,C   4,C   7)          108.3096         0.320726   
     40. A(H   5,C   4,H   6)          106.6383         0.289259   
     41. A(H   5,C   4,C   7)          108.9060         0.320525   
     42. A(H   8,C   7,C  10)          108.9336         0.325970   
     43. A(C   4,C   7,C  10)          111.6382         0.363311   
     44. A(H   8,C   7,H   9)          107.1608         0.288227   
     45. A(C   4,C   7,H   9)          111.3636         0.319620   
     46. A(C   4,C   7,H   8)          110.5992         0.320437   
     47. A(H   9,C   7,C  10)          106.9650         0.325133   
     48. A(O  11,C  10,O  12)          122.5173         0.484512   
     49. A(C   7,C  10,O  12)          125.6933         0.441906   
     50. A(C   7,C  10,O  11)          111.7766         0.403778   
     51. A(C  10,O  11,H  16)          107.8506         0.374223   
     52. A(O  18,C  14,C  19)          122.7576         0.436753   
     53. A(N   0,C  14,C  19)          113.9417         0.392578   
     54. A(N   0,C  14,O  18)          123.2942         0.468602   
     55. A(C   2,N  15,H  17)          120.2053         0.360224   
     56. A(H  17,N  15,C  23)          119.1494         0.340861   
     57. A(C   2,N  15,C  23)          120.4774         0.405290   
     58. A(C  14,C  19,H  21)          109.3621         0.324330   
     59. A(C  14,C  19,H  20)          108.4317         0.325405   
     60. A(H  21,C  19,H  22)          108.2098         0.288438   
     61. A(H  20,C  19,H  22)          109.9630         0.289349   
     62. A(C  14,C  19,H  22)          112.0279         0.324691   
     63. A(H  20,C  19,H  21)          108.7963         0.289042   
     64. A(H  24,C  23,H  26)          107.9486         0.288493   
     65. A(N  15,C  23,H  26)          110.4131         0.331164   
     66. A(H  24,C  23,H  25)          109.3741         0.288941   
     67. A(N  15,C  23,H  25)          108.7066         0.331708   
     68. A(H  25,C  23,H  26)          109.2973         0.289113   
     69. A(N  15,C  23,H  24)          111.0778         0.330956   
     70. D(C   2,C   1,N   0,C  14)    176.5839         0.028597   
     71. D(C   4,C   1,N   0,H  13)    178.7799         0.028597   
     72. D(C   4,C   1,N   0,C  14)     -1.8158         0.028597   
     73. D(C   2,C   1,N   0,H  13)     -2.8204         0.028597   
     74. D(N  15,C   2,C   1,N   0)   -178.4853         0.014286   
     75. D(N  15,C   2,C   1,C   4)     -0.1339         0.014286   
     76. D(O   3,C   2,C   1,C   4)    179.3416         0.014286   
     77. D(O   3,C   2,C   1,N   0)      0.9902         0.014286   
     78. D(H   6,C   4,C   1,N   0)    -39.5003         0.012838   
     79. D(H   6,C   4,C   1,C   2)    142.3321         0.012838   
     80. D(C   7,C   4,C   1,C   2)    -96.6719         0.012838   
     81. D(C   7,C   4,C   1,N   0)     81.4957         0.012838   
     82. D(H   5,C   4,C   1,C   2)     25.1949         0.012838   
     83. D(H   5,C   4,C   1,N   0)   -156.6375         0.012838   
     84. D(H   8,C   7,C   4,C   1)    -70.6756         0.010103   
     85. D(C  10,C   7,C   4,H   5)     45.3524         0.010103   
     86. D(C  10,C   7,C   4,C   1)    167.8569         0.010103   
     87. D(H   9,C   7,C   4,H   6)    170.2615         0.010103   
     88. D(H   9,C   7,C   4,H   5)    -74.1357         0.010103   
     89. D(H   9,C   7,C   4,C   1)     48.3688         0.010103   
     90. D(H   8,C   7,C   4,H   6)     51.2172         0.010103   
     91. D(C  10,C   7,C   4,H   6)    -70.2504         0.010103   
     92. D(H   8,C   7,C   4,H   5)    166.8200         0.010103   
     93. D(O  12,C  10,C   7,H   9)    109.6692         0.011507   
     94. D(O  12,C  10,C   7,H   8)   -134.8144         0.011507   
     95. D(O  12,C  10,C   7,C   4)    -12.3869         0.011507   
     96. D(O  11,C  10,C   7,H   9)    -69.0474         0.011507   
     97. D(O  11,C  10,C   7,H   8)     46.4690         0.011507   
     98. D(O  11,C  10,C   7,C   4)    168.8965         0.011507   
     99. D(H  16,O  11,C  10,O  12)      0.1376         0.033917   
    100. D(H  16,O  11,C  10,C   7)    178.9015         0.033917   
    101. D(C  19,C  14,N   0,H  13)     -4.3196         0.027787   
    102. D(C  19,C  14,N   0,C   1)    176.3112         0.027787   
    103. D(O  18,C  14,N   0,H  13)    176.5858         0.027787   
    104. D(O  18,C  14,N   0,C   1)     -2.7834         0.027787   
    105. D(C  23,N  15,C   2,O   3)      1.5456         0.031653   
    106. D(C  23,N  15,C   2,C   1)   -178.9828         0.031653   
    107. D(H  17,N  15,C   2,O   3)    176.7968         0.031653   
    108. D(H  17,N  15,C   2,C   1)     -3.7315         0.031653   
    109. D(H  22,C  19,C  14,O  18)   -141.0234         0.011042   
    110. D(H  22,C  19,C  14,N   0)     39.8764         0.011042   
    111. D(H  21,C  19,C  14,O  18)     99.0101         0.011042   
    112. D(H  21,C  19,C  14,N   0)    -80.0901         0.011042   
    113. D(H  20,C  19,C  14,O  18)    -19.4862         0.011042   
    114. D(H  20,C  19,C  14,N   0)    161.4136         0.011042   
    115. D(H  26,C  23,N  15,H  17)    126.2752         0.017310   
    116. D(H  26,C  23,N  15,C   2)    -58.4238         0.017310   
    117. D(H  25,C  23,N  15,H  17)      6.3878         0.017310   
    118. D(H  25,C  23,N  15,C   2)   -178.3112         0.017310   
    119. D(H  24,C  23,N  15,H  17)   -114.0004         0.017310   
    120. D(H  24,C  23,N  15,C   2)     61.3005         0.017310   
    -----------------------------------------------------------------

Number of atoms                         .... 27
Number of degrees of freedom            .... 120

         *************************************************************
         *                GEOMETRY OPTIMIZATION CYCLE   1            *
         *************************************************************
---------------------------------
CARTESIAN COORDINATES (ANGSTROEM)
---------------------------------
  N      1.488217    1.095445    0.024963
  C      0.790569   -0.064585    0.253654
  C      1.617677   -1.252614   -0.027169
  O      2.784893   -1.129968   -0.397361
  C     -0.643103   -0.084087    0.695537
  H     -0.866753   -1.028765    1.202620
  H     -0.818723    0.712317    1.425048
  C     -1.633702    0.102574   -0.474388
  H     -1.593733    1.129947   -0.853174
  H     -1.390399   -0.563152   -1.315536
  C     -3.056627   -0.213038   -0.057768
  O     -3.942569    0.171558   -0.984997
  O     -3.383765   -0.761416    0.959837
  H      2.450121    0.902850   -0.247946
  C      1.078217    2.407271    0.100797
  N      1.049717   -2.478979    0.124510
  H     -4.823323   -0.070737   -0.671439
  H      0.110752   -2.561751    0.473674
  O     -0.061123    2.735069    0.357853
  C      2.189779    3.416957   -0.146003
  H      1.734181    4.378321   -0.395133
  H      2.785027    3.534117    0.769322
  H      2.860960    3.100525   -0.952975
  C      1.821776   -3.681361   -0.116287
  H      2.677252   -3.744862    0.568363
  H      1.173564   -4.549946    0.031410
  H      2.208796   -3.688308   -1.142206

----------------------------
CARTESIAN COORDINATES (A.U.)
----------------------------
  NO LB      ZA    FRAG     MASS         X           Y           Z
   0 N     7.0000    0    14.007    2.812322    2.070091    0.047173
   1 C     6.0000    0    12.011    1.493959   -0.122048    0.479337
   2 C     6.0000    0    12.011    3.056967   -2.367097   -0.051341
   3 O     8.0000    0    15.999    5.262685   -2.135331   -0.750904
   4 C     6.0000    0    12.011   -1.215289   -0.158901    1.314374
   5 H     1.0000    0     1.008   -1.637925   -1.944084    2.272622
   6 H     1.0000    0     1.008   -1.547163    1.346085    2.692950
   7 C     6.0000    0    12.011   -3.087250    0.193837   -0.896464
   8 H     1.0000    0     1.008   -3.011719    2.135291   -1.612266
   9 H     1.0000    0     1.008   -2.627474   -1.064204   -2.486002
  10 C     6.0000    0    12.011   -5.776188   -0.402583   -0.109166
  11 O     8.0000    0    15.999   -7.450376    0.324198   -1.861375
  12 O     8.0000    0    15.999   -6.394388   -1.438868    1.813829
  13 H     1.0000    0     1.008    4.630058    1.706139   -0.468549
  14 C     6.0000    0    12.011    2.037535    4.549083    0.190479
  15 N     7.0000    0    14.007    1.983678   -4.684592    0.235289
  16 H     1.0000    0     1.008   -9.114759   -0.133674   -1.268835
  17 H     1.0000    0     1.008    0.209291   -4.841008    0.895114
  18 O     8.0000    0    15.999   -0.115506    5.168531    0.676243
  19 C     6.0000    0    12.011    4.138083    6.457112   -0.275906
  20 H     1.0000    0     1.008    3.277127    8.273827   -0.746694
  21 H     1.0000    0     1.008    5.262938    6.678513    1.453809
  22 H     1.0000    0     1.008    5.406431    5.859142   -1.800862
  23 C     6.0000    0    12.011    3.442659   -6.956763   -0.219750
  24 H     1.0000    0     1.008    5.059272   -7.076764    1.074051
  25 H     1.0000    0     1.008    2.217715   -8.598152    0.059356
  26 H     1.0000    0     1.008    4.174019   -6.969892   -2.158457

--------------------------------
INTERNAL COORDINATES (ANGSTROEM)
--------------------------------
 N      0   0   0     0.000000000000     0.00000000     0.00000000
 C      1   0   0     1.372837199400     0.00000000     0.00000000
 C      2   1   0     1.474578347266   111.34700354     0.00000000
 O      3   2   1     1.230640790237   120.59710105     0.99021547
 C      2   1   3     1.500352315437   123.06838216   181.60034553
 H      5   2   1     1.095248486262   110.04105255   203.36248260
 H      5   2   1     1.094206875984   109.89290765   320.49973612
 C      5   2   1     1.544296784922   112.84602611    81.49571077
 H      8   5   2     1.095706464077   110.59920268   289.32444617
 H      8   5   2     1.099962246669   111.36356222    48.36875237
 C      8   5   2     1.515881929165   111.63823112   167.85686841
 O     11   8   5     1.338865342182   111.77656900   168.89645663
 O     11   8   5     1.201356423727   125.69325045   347.61307396
 H      1   2   3     1.018249498937   111.40035882   357.17955349
 C      1   2   3     1.376494893637   130.14668562   176.58386388
 N      3   2   1     1.359984597188   118.10093866   181.51471496
 H     12  11   8     0.965791413170   107.85056353   178.90153273
 H     16   3   2     1.005197882311   120.20527880   356.26845218
 O     15   1   2     1.213105568399   123.29423802   357.21657069
 C     15   1   2     1.521823207268   113.94167532   176.31121476
 H     20  15   1     1.092637285991   108.43171407   161.41362664
 H     20  15   1     1.098119898479   109.36213776   279.90994630
 H     20  15   1     1.096273972870   112.02791927    39.87643851
 C     16   3   2     1.449061526734   120.47740226   181.01720017
 H     24  16   3     1.097549876995   111.07777805    61.30053480
 H     24  16   3     1.093816230383   108.70662437   181.68880577
 H     24  16   3     1.096514228095   110.41311417   301.57617300

---------------------------
INTERNAL COORDINATES (A.U.)
---------------------------
 N      0   0   0     0.000000000000     0.00000000     0.00000000
 C      1   0   0     2.594286333325     0.00000000     0.00000000
 C      2   1   0     2.786549239343   111.34700354     0.00000000
 O      3   2   1     2.325574062781   120.59710105     0.99021547
 C      2   1   3     2.835254980571   123.06838216   181.60034553
 H      5   2   1     2.069719687627   110.04105255   203.36248260
 H      5   2   1     2.067751329463   109.89290765   320.49973612
 C      5   2   1     2.918297992997   112.84602611    81.49571077
 H      8   5   2     2.070585140274   110.59920268   289.32444617
 H      8   5   2     2.078627403858   111.36356222    48.36875237
 C      8   5   2     2.864601697483   111.63823112   167.85686841
 O     11   8   5     2.530088826924   111.77656900   168.89645663
 O     11   8   5     2.270234630071   125.69325045   347.61307396
 H      1   2   3     1.924212688994   111.40035882   357.17955349
 C      1   2   3     2.601198373714   130.14668562   176.58386388
 N      3   2   1     2.569998435036   118.10093866   181.51471496
 H     12  11   8     1.825081273385   107.85056353   178.90153273
 H     16   3   2     1.899548707965   120.20527880   356.26845218
 O     15   1   2     2.292437295810   123.29423802   357.21657069
 C     15   1   2     2.875829085982   113.94167532   176.31121476
 H     20  15   1     2.064785234234   108.43171407   161.41362664
 H     20  15   1     2.075145870334   109.36213776   279.90994630
 H     20  15   1     2.071657576470   112.02791927    39.87643851
 C     16   3   2     2.738329436730   120.47740226   181.01720017
 H     24  16   3     2.074068685840   111.07777805    61.30053480
 H     24  16   3     2.067013116263   108.70662437   181.68880577
 H     24  16   3     2.072111593048   110.41311417   301.57617300

---------------------
BASIS SET INFORMATION
---------------------
There are 4 groups of distinct atoms

 Group   1 Type N   : 10s5p1d contracted to 6s2p1d pattern {511111/41/1}
 Group   2 Type C   : 10s5p1d contracted to 6s2p1d pattern {511111/41/1}
 Group   3 Type O   : 10s5p1d contracted to 6s2p1d pattern {511111/41/1}
 Group   4 Type H   : 6s1p contracted to 4s1p pattern {3111/1}

Atom   0N    basis set group =>   1
Atom   1C    basis set group =>   2
Atom   2C    basis set group =>   2
Atom   3O    basis set group =>   3
Atom   4C    basis set group =>   2
Atom   5H    basis set group =>   4
Atom   6H    basis set group =>   4
Atom   7C    basis set group =>   2
Atom   8H    basis set group =>   4
Atom   9H    basis set group =>   4
Atom  10C    basis set group =>   2
Atom  11O    basis set group =>   3
Atom  12O    basis set group =>   3
Atom  13H    basis set group =>   4
Atom  14C    basis set group =>   2
Atom  15N    basis set group =>   1
Atom  16H    basis set group =>   4
Atom  17H    basis set group =>   4
Atom  18O    basis set group =>   3
Atom  19C    basis set group =>   2
Atom  20H    basis set group =>   4
Atom  21H    basis set group =>   4
Atom  22H    basis set group =>   4
Atom  23C    basis set group =>   2
Atom  24H    basis set group =>   4
Atom  25H    basis set group =>   4
Atom  26H    basis set group =>   4
---------------------------------
AUXILIARY/J BASIS SET INFORMATION
---------------------------------
There are 4 groups of distinct atoms

 Group   1 Type N   : 12s5p4d2f1g contracted to 6s4p3d1f1g pattern {711111/2111/211/2/1}
 Group   2 Type C   : 12s5p4d2f1g contracted to 6s4p3d1f1g pattern {711111/2111/211/2/1}
 Group   3 Type O   : 12s5p4d2f1g contracted to 6s4p3d1f1g pattern {711111/2111/211/2/1}
 Group   4 Type H   : 5s2p1d contracted to 3s1p1d pattern {311/2/1}

Atom   0N    basis set group =>   1
Atom   1C    basis set group =>   2
Atom   2C    basis set group =>   2
Atom   3O    basis set group =>   3
Atom   4C    basis set group =>   2
Atom   5H    basis set group =>   4
Atom   6H    basis set group =>   4
Atom   7C    basis set group =>   2
Atom   8H    basis set group =>   4
Atom   9H    basis set group =>   4
Atom  10C    basis set group =>   2
Atom  11O    basis set group =>   3
Atom  12O    basis set group =>   3
Atom  13H    basis set group =>   4
Atom  14C    basis set group =>   2
Atom  15N    basis set group =>   1
Atom  16H    basis set group =>   4
Atom  17H    basis set group =>   4
Atom  18O    basis set group =>   3
Atom  19C    basis set group =>   2
Atom  20H    basis set group =>   4
Atom  21H    basis set group =>   4
Atom  22H    basis set group =>   4
Atom  23C    basis set group =>   2
Atom  24H    basis set group =>   4
Atom  25H    basis set group =>   4
Atom  26H    basis set group =>   4


           ************************************************************
           *        Program running with 16 parallel MPI-processes    *
           *              working on a common directory               *
           ************************************************************
------------------------------------------------------------------------------
                           ORCA GTO INTEGRAL CALCULATION
                           -- RI-GTO INTEGRALS CHOSEN --
------------------------------------------------------------------------------
------------------------------------------------------------------------------
                   ___                                                        
                  /   \      - P O W E R E D   B Y -                         
                 /     \                                                     
                 |  |  |   _    _      __       _____    __    __             
                 |  |  |  | |  | |    /  \     |  _  \  |  |  /  |          
                  \  \/   | |  | |   /    \    | | | |  |  | /  /          
                 / \  \   | |__| |  /  /\  \   | |_| |  |  |/  /          
                |  |  |   |  __  | /  /__\  \  |    /   |      \           
                |  |  |   | |  | | |   __   |  |    \   |  |\   \          
                \     /   | |  | | |  |  |  |  | |\  \  |  | \   \       
                 \___/    |_|  |_| |__|  |__|  |_| \__\ |__|  \__/        
                                                                              
                      - O R C A' S   B I G   F R I E N D -                    
                                      &                                       
                       - I N T E G R A L  F E E D E R -                       
                                                                              
 v1 FN, 2020, v2 2021                                                         
------------------------------------------------------------------------------


Reading SHARK input file opt.SHARKINP.tmp ... ok
----------------------
SHARK INTEGRAL PACKAGE
----------------------

Number of atoms                             ...     27
Number of basis functions                   ...    329
Number of shells                            ...    191
Maximum angular momentum                    ...      2
Integral batch strategy                     ... SHARK/LIBINT Hybrid
RI-J (if used) integral strategy            ... SPLIT-RIJ (Revised 2003 algorithm where possible)
Printlevel                                  ...      1
Contraction scheme used                     ... SEGMENTED contraction
Coulomb Range Separation                    ... NOT USED
Exchange Range Separation                   ... NOT USED
Finite Nucleus Model                        ... NOT USED
Auxiliary Coulomb fitting basis             ... AVAILABLE
   # of basis functions in Aux-J            ...    829
   # of shells in Aux-J                     ...    275
   Maximum angular momentum in Aux-J        ...      4
Auxiliary J/K fitting basis                 ... NOT available
Auxiliary Correlation fitting basis         ... NOT available
Auxiliary 'external' fitting basis          ... NOT available
Integral threshold                          ...     2.500000e-11
Primitive cut-off                           ...     2.500000e-12
Primitive pair pre-selection threshold      ...     2.500000e-12

Calculating pre-screening integrals         ... done (  0.0 sec) Dimension = 191
Organizing shell pair data                  ... done (  0.0 sec)
Shell pair information
Total number of shell pairs                 ...     18336
Shell pairs after pre-screening             ...     12582
Total number of primitive shell pairs       ...     50033
Primitive shell pairs kept                  ...     24939
          la=0 lb=0:   5732 shell pairs
          la=1 lb=0:   4275 shell pairs
          la=1 lb=1:    747 shell pairs
          la=2 lb=0:   1282 shell pairs
          la=2 lb=1:    466 shell pairs
          la=2 lb=2:     80 shell pairs

Calculating one electron integrals          ... done (  0.0 sec)
Calculating RI/J V-Matrix + Cholesky decomp.... done (  0.0 sec)
Calculating Nuclear repulsion               ... done (  0.0 sec) ENN=    911.478734665086 Eh

SHARK setup successfully completed in   0.2 seconds

Maximum memory used throughout the entire GTOINT-calculation: 19.4 MB


           ************************************************************
           *        Program running with 16 parallel MPI-processes    *
           *              working on a common directory               *
           ************************************************************
-------------------------------------------------------------------------------
                                 ORCA SCF
-------------------------------------------------------------------------------

------------
SCF SETTINGS
------------
Hamiltonian:
 Density Functional     Method          .... DFT(GTOs)
 Exchange Functional    Exchange        .... B88
   X-Alpha parameter    XAlpha          ....  0.666667
   Becke's b parameter  XBeta           ....  0.004200
 Correlation Functional Correlation     .... LYP
 LDA part of GGA corr.  LDAOpt          .... VWN-5
 Gradients option       PostSCFGGA      .... off
 Hybrid DFT is turned on
   Fraction HF Exchange ScalHFX         ....  0.200000
   Scaling of DF-GGA-X  ScalDFX         ....  0.720000
   Scaling of DF-GGA-C  ScalDFC         ....  0.810000
   Scaling of DF-LDA-C  ScalLDAC        ....  1.000000
   Perturbative correction              ....  0.000000
   Density functional embedding theory  .... OFF
   NL short-range parameter             ....  4.800000
 RI-approximation to the Coulomb term is turned on
   Number of AuxJ basis functions       .... 829
   RIJ-COSX (HFX calculated with COS-X)).... on


General Settings:
 Integral files         IntName         .... opt
 Hartree-Fock type      HFTyp           .... UHF
 Total Charge           Charge          ....    0
 Multiplicity           Mult            ....    2
 Number of Electrons    NEL             ....  107
 Basis Dimension        Dim             ....  329
 Nuclear Repulsion      ENuc            ....    911.4787346651 Eh

Convergence Acceleration:
 DIIS                   CNVDIIS         .... on
   Start iteration      DIISMaxIt       ....    12
   Startup error        DIISStart       ....  0.200000
   # of expansion vecs  DIISMaxEq       ....     5
   Bias factor          DIISBfac        ....   1.050
   Max. coefficient     DIISMaxC        ....  10.000
 Trust-Rad. Augm. Hess. CNVTRAH         .... auto
   Auto Start mean grad. ratio tolernc. ....  1.125000
   Auto Start start iteration           ....    20
   Auto Start num. interpolation iter.  ....    10
   Max. Number of Micro iterations      ....    16
   Max. Number of Macro iterations      .... Maxiter - #DIIS iter
   Number of Davidson start vectors     ....     2
   Converg. threshold I  (grad. norm)   ....   1.000e-05
   Converg. threshold II (energy diff.) ....   1.000e-08
   Grad. Scal. Fac. for Micro threshold ....   0.100
   Minimum threshold for Micro iter.    ....   0.010
   NR start threshold (gradient norm)   ....   0.001
   Initial trust radius                 ....   0.400
   Minimum AH scaling param. (alpha)    ....   1.000
   Maximum AH scaling param. (alpha)    .... 1000.000
   Orbital update algorithm             .... Taylor
   White noise on init. David. guess    .... on
   Maximum white noise                  ....   0.010
   Quad. conv. algorithm                .... NR
 SOSCF                  CNVSOSCF        .... off
 Level Shifting         CNVShift        .... on
   Level shift para.    LevelShift      ....    0.2500
   Turn off err/grad.   ShiftErr        ....    0.0010
 Zerner damping         CNVZerner       .... off
 Static damping         CNVDamp         .... on
   Fraction old density DampFac         ....    0.7000
   Max. Damping (<1)    DampMax         ....    0.9800
   Min. Damping (>=0)   DampMin         ....    0.0000
   Turn off err/grad.   DampErr         ....    0.1000
 Fernandez-Rico         CNVRico         .... off

SCF Procedure:
 Maximum # iterations   MaxIter         ....   125
 SCF integral mode      SCFMode         .... Direct
   Integral package                     .... SHARK and LIBINT hybrid scheme
 Reset frequency        DirectResetFreq ....    20
 Integral Threshold     Thresh          ....  2.500e-11 Eh
 Primitive CutOff       TCut            ....  2.500e-12 Eh

Convergence Tolerance:
 Convergence Check Mode ConvCheckMode   .... Total+1el-Energy
 Convergence forced     ConvForced      .... 0
 Energy Change          TolE            ....  1.000e-08 Eh
 1-El. energy change                    ....  1.000e-05 Eh
 DIIS Error             TolErr          ....  5.000e-07


Diagonalization of the overlap matrix:
Smallest eigenvalue                        ... 5.987e-04
Time for diagonalization                   ...    0.013 sec
Threshold for overlap eigenvalues          ... 1.000e-08
Number of eigenvalues below threshold      ... 0
Time for construction of square roots      ...    0.008 sec
Total time needed                          ...    0.022 sec

Time for model grid setup =    0.108 sec

------------------------------
INITIAL GUESS: MODEL POTENTIAL
------------------------------
Loading Hartree-Fock densities                     ... done
Calculating cut-offs                               ... done
Initializing the effective Hamiltonian             ... done
Setting up the integral package (SHARK)            ... done
Starting the Coulomb interaction                   ... done (   0.1 sec)
Reading the grid                                   ... done
Mapping shells                                     ... done
Starting the XC term evaluation                    ... done (   0.0 sec)
  promolecular density results
     # of electrons  =    106.994895628
     EX              =    -90.972449108
     EC              =     -3.679499338
     EX+EC           =    -94.651948446
Transforming the Hamiltonian                       ... done (   0.0 sec)
Diagonalizing the Hamiltonian                      ... done (   0.0 sec)
Back transforming the eigenvectors                 ... done (   0.0 sec)
Now organizing SCF variables                       ... done
                      ------------------
                      INITIAL GUESS DONE (   0.3 sec)
                      ------------------
-------------------
DFT GRID GENERATION
-------------------

General Integration Accuracy     IntAcc      ... 4.388
Radial Grid Type                 RadialGrid  ... OptM3 with GC (2021)
Angular Grid (max. ang.)         AngularGrid ... 4 (Lebedev-302)
Angular grid pruning method      GridPruning ... 4 (adaptive)
Weight generation scheme         WeightScheme... Becke
Basis function cutoff            BFCut       ... 1.0000e-11
Integration weight cutoff        WCut        ... 1.0000e-14
Angular grids for H and He will be reduced by one unit
Partially contracted basis set               ... off
Rotationally invariant grid construction     ... off

Total number of grid points                  ...   125950
Total number of batches                      ...     1980
Average number of points per batch           ...       63
Average number of grid points per atom       ...     4665
Time for grid setup =    0.542 sec

--------------------
COSX GRID GENERATION
--------------------

GRIDX 1
-------
General Integration Accuracy     IntAcc      ... 3.816
Radial Grid Type                 RadialGrid  ... OptM3 with GC (2021)
Angular Grid (max. ang.)         AngularGrid ... 1 (Lebedev-50)
Angular grid pruning method      GridPruning ... 4 (adaptive)
Weight generation scheme         WeightScheme... Becke
Basis function cutoff            BFCut       ... 1.0000e-11
Integration weight cutoff        WCut        ... 1.0000e-14
Angular grids for H and He will be reduced by one unit
Partially contracted basis set               ... on
Rotationally invariant grid construction     ... off

Total number of grid points                  ...    16076
Total number of batches                      ...      266
Average number of points per batch           ...       60
Average number of grid points per atom       ...      595
UseSFitting                                  ... on

GRIDX 2
-------
General Integration Accuracy     IntAcc      ... 4.020
Radial Grid Type                 RadialGrid  ... OptM3 with GC (2021)
Angular Grid (max. ang.)         AngularGrid ... 2 (Lebedev-110)
Angular grid pruning method      GridPruning ... 4 (adaptive)
Weight generation scheme         WeightScheme... Becke
Basis function cutoff            BFCut       ... 1.0000e-11
Integration weight cutoff        WCut        ... 1.0000e-14
Angular grids for H and He will be reduced by one unit
Partially contracted basis set               ... on
Rotationally invariant grid construction     ... off

Total number of grid points                  ...    34802
Total number of batches                      ...      558
Average number of points per batch           ...       62
Average number of grid points per atom       ...     1289
UseSFitting                                  ... on

GRIDX 3
-------
General Integration Accuracy     IntAcc      ... 4.338
Radial Grid Type                 RadialGrid  ... OptM3 with GC (2021)
Angular Grid (max. ang.)         AngularGrid ... 3 (Lebedev-194)
Angular grid pruning method      GridPruning ... 4 (adaptive)
Weight generation scheme         WeightScheme... Becke
Basis function cutoff            BFCut       ... 1.0000e-11
Integration weight cutoff        WCut        ... 1.0000e-14
Angular grids for H and He will be reduced by one unit
Partially contracted basis set               ... on
Rotationally invariant grid construction     ... off

Total number of grid points                  ...    76178
Total number of batches                      ...     1205
Average number of points per batch           ...       63
Average number of grid points per atom       ...     2821
UseSFitting                                  ... on

Time for X-Grid setup             =    0.586 sec

--------------
SCF ITERATIONS
--------------
ITER       Energy         Delta-E        Max-DP      RMS-DP      [F,P]     Damp
               ***  Starting incremental Fock matrix formation  ***
  0   -722.3484447226   0.000000000000 0.06572797  0.00108036  0.1333873 0.7000
  1   -722.5996581409  -0.251213418312 0.03931891  0.00071447  0.0516156 0.7000
                               ***Turning on DIIS***
  2   -722.6846493583  -0.084991217366 0.06125505  0.00105257  0.0184047 0.0000
  3   -722.8351608117  -0.150511453383 0.02579849  0.00051582  0.0267804 0.0000
  4   -722.8626803928  -0.027519581141 0.00996629  0.00017295  0.0087698 0.0000
  5   -722.8651665831  -0.002486190286 0.00446975  0.00005739  0.0028926 0.0000
  6   -722.8653645082  -0.000197925105 0.00173430  0.00002374  0.0017122 0.0000
  7   -722.8654070252  -0.000042516969 0.00309088  0.00002381  0.0006549 0.0000
               *** Restarting incremental Fock matrix formation ***
                                   *** Resetting DIIS ***
  8   -722.8654085861  -0.000001560884 0.00074568  0.00001161  0.0002972 0.0000
  9   -722.8654107990  -0.000002212928 0.00043167  0.00000482  0.0004331 0.0000
 10   -722.8654131761  -0.000002377144 0.00029320  0.00000307  0.0001386 0.0000
 11   -722.8654136232  -0.000000447038 0.00024388  0.00000193  0.0001289 0.0000
 12   -722.8654139010  -0.000000277791 0.00007393  0.00000067  0.0000409 0.0000
 13   -722.8654139322  -0.000000031273 0.00003716  0.00000027  0.0000118 0.0000
 14   -722.8654139387  -0.000000006496 0.00001622  0.00000011  0.0000068 0.0000
 15   -722.8654139283   0.000000010386 0.00001197  0.00000007  0.0000043 0.0000
 16   -722.8654139320  -0.000000003613 0.00000554  0.00000005  0.0000032 0.0000
 17   -722.8654139306   0.000000001374 0.00000238  0.00000003  0.0000014 0.0000
                 **** Energy Check signals convergence ****

               *****************************************************
               *                     SUCCESS                       *
               *           SCF CONVERGED AFTER  18 CYCLES          *
               *****************************************************

Old exchange energy                            =    -18.446171533 Eh
New exchange energy                            =    -18.446186394 Eh
Exchange energy change after final integration =     -0.000014861 Eh
Total energy after final integration           =   -722.865428794 Eh
Final COS-X integration done in                =     1.805 sec

----------------
TOTAL SCF ENERGY
----------------

Total Energy       :         -722.86542879 Eh          -19670.16833 eV

Components:
Nuclear Repulsion  :          911.47873467 Eh           24802.59731 eV
Electronic Energy  :        -1634.34416346 Eh          -44472.76564 eV
One Electron Energy:        -2794.94339738 Eh          -76054.27637 eV
Two Electron Energy:         1160.59923392 Eh           31581.51073 eV
Max COSX asymmetry :            0.00000113 Eh               0.00003 eV

Virial components:
Potential Energy   :        -1441.28697355 Eh          -39219.41243 eV
Kinetic Energy     :          718.42154475 Eh           19549.24410 eV
Virial Ratio       :            2.00618562


DFT components:
N(Alpha)           :       53.999986543494 electrons
N(Beta)            :       52.999981640228 electrons
N(Total)           :      106.999968183722 electrons
E(X)               :      -73.358108191511 Eh       
E(C)               :       -4.333185274852 Eh       
E(XC)              :      -77.691293466363 Eh       
DFET-embed. en.    :        0.000000000000 Eh       

---------------
SCF CONVERGENCE
---------------

  Last Energy change         ...   -1.9548e-09  Tolerance :   1.0000e-08
  Last MAX-Density change    ...    0.0000e+00  Tolerance :   1.0000e-07
  Last RMS-Density change    ...    0.0000e+00  Tolerance :   5.0000e-09
  Last DIIS Error            ...    1.3968e-06  Tolerance :   5.0000e-07

             **** THE GBW FILE WAS UPDATED (opt.gbw) ****
             **** DENSITY opt.scfp WAS UPDATED ****
             **** ENERGY FILE WAS UPDATED (opt.en.tmp) ****
----------------------
UHF SPIN CONTAMINATION
----------------------

Warning: in a DFT calculation there is little theoretical justification to 
         calculate <S**2> as in Hartree-Fock theory. We will do it anyways
         but you should keep in mind that the values have only limited relevance

Expectation value of <S**2>     :     0.754917
Ideal value S*(S+1) for S=0.5   :     0.750000
Deviation                       :     0.004917

             **** THE GBW FILE WAS UPDATED (opt.gbw) ****
             **** DENSITY opt.scfp WAS UPDATED ****
----------------
ORBITAL ENERGIES
----------------
                 SPIN UP ORBITALS
  NO   OCC          E(Eh)            E(eV) 
   0   1.0000     -19.195482      -522.3356 
   1   1.0000     -19.141554      -520.8682 
   2   1.0000     -19.124106      -520.3934 
   3   1.0000     -19.109560      -519.9976 
   4   1.0000     -14.383211      -391.3871 
   5   1.0000     -14.362726      -390.8296 
   6   1.0000     -10.331383      -281.1312 
   7   1.0000     -10.304787      -280.4075 
   8   1.0000     -10.292753      -280.0800 
   9   1.0000     -10.248839      -278.8851 
  10   1.0000     -10.219886      -278.0972 
  11   1.0000     -10.208992      -277.8008 
  12   1.0000     -10.206828      -277.7419 
  13   1.0000     -10.197286      -277.4823 
  14   1.0000      -1.120117       -30.4799 
  15   1.0000      -1.057682       -28.7810 
  16   1.0000      -1.041876       -28.3509 
  17   1.0000      -1.027151       -27.9502 
  18   1.0000      -0.952850       -25.9284 
  19   1.0000      -0.926323       -25.2065 
  20   1.0000      -0.814234       -22.1564 
  21   1.0000      -0.765745       -20.8370 
  22   1.0000      -0.732991       -19.9457 
  23   1.0000      -0.699869       -19.0444 
  24   1.0000      -0.668677       -18.1956 
  25   1.0000      -0.608797       -16.5662 
  26   1.0000      -0.599721       -16.3192 
  27   1.0000      -0.567974       -15.4554 
  28   1.0000      -0.556091       -15.1320 
  29   1.0000      -0.506274       -13.7764 
  30   1.0000      -0.491827       -13.3833 
  31   1.0000      -0.488987       -13.3060 
  32   1.0000      -0.483943       -13.1688 
  33   1.0000      -0.470066       -12.7911 
  34   1.0000      -0.460432       -12.5290 
  35   1.0000      -0.455514       -12.3952 
  36   1.0000      -0.448310       -12.1991 
  37   1.0000      -0.433160       -11.7869 
  38   1.0000      -0.420123       -11.4321 
  39   1.0000      -0.416388       -11.3305 
  40   1.0000      -0.409179       -11.1343 
  41   1.0000      -0.405844       -11.0436 
  42   1.0000      -0.399197       -10.8627 
  43   1.0000      -0.384616       -10.4659 
  44   1.0000      -0.381956       -10.3936 
  45   1.0000      -0.378941       -10.3115 
  46   1.0000      -0.361779        -9.8445 
  47   1.0000      -0.330744        -9.0000 
  48   1.0000      -0.325594        -8.8599 
  49   1.0000      -0.287121        -7.8130 
  50   1.0000      -0.268509        -7.3065 
  51   1.0000      -0.267244        -7.2721 
  52   1.0000      -0.266991        -7.2652 
  53   1.0000      -0.179500        -4.8844 
  54   0.0000       0.002754         0.0749 
  55   0.0000       0.008374         0.2279 
  56   0.0000       0.010580         0.2879 
  57   0.0000       0.019399         0.5279 
  58   0.0000       0.024586         0.6690 
  59   0.0000       0.043432         1.1818 
  60   0.0000       0.049544         1.3482 
  61   0.0000       0.060038         1.6337 
  62   0.0000       0.065288         1.7766 
  63   0.0000       0.072451         1.9715 
  64   0.0000       0.101146         2.7523 
  65   0.0000       0.102756         2.7961 
  66   0.0000       0.120052         3.2668 
  67   0.0000       0.136236         3.7072 
  68   0.0000       0.150895         4.1061 
  69   0.0000       0.157070         4.2741 
  70   0.0000       0.167791         4.5658 
  71   0.0000       0.174218         4.7407 
  72   0.0000       0.179778         4.8920 
  73   0.0000       0.184792         5.0284 
  74   0.0000       0.193835         5.2745 
  75   0.0000       0.196919         5.3584 
  76   0.0000       0.201507         5.4833 
  77   0.0000       0.210196         5.7197 
  78   0.0000       0.218167         5.9366 
  79   0.0000       0.225762         6.1433 
  80   0.0000       0.233510         6.3541 
  81   0.0000       0.242718         6.6047 
  82   0.0000       0.244637         6.6569 
  83   0.0000       0.251468         6.8428 
  84   0.0000       0.255043         6.9401 
  85   0.0000       0.262757         7.1500 
  86   0.0000       0.271203         7.3798 
  87   0.0000       0.277051         7.5390 
  88   0.0000       0.285329         7.7642 
  89   0.0000       0.289916         7.8890 
  90   0.0000       0.300498         8.1770 
  91   0.0000       0.303947         8.2708 
  92   0.0000       0.308585         8.3970 
  93   0.0000       0.313337         8.5263 
  94   0.0000       0.322042         8.7632 
  95   0.0000       0.325010         8.8440 
  96   0.0000       0.333399         9.0722 
  97   0.0000       0.349338         9.5060 
  98   0.0000       0.361941         9.8489 
  99   0.0000       0.369406        10.0520 
 100   0.0000       0.387550        10.5458 
 101   0.0000       0.389151        10.5893 
 102   0.0000       0.397046        10.8042 
 103   0.0000       0.406605        11.0643 
 104   0.0000       0.421405        11.4670 
 105   0.0000       0.425356        11.5745 
 106   0.0000       0.430118        11.7041 
 107   0.0000       0.445299        12.1172 
 108   0.0000       0.459641        12.5075 
 109   0.0000       0.470121        12.7926 
 110   0.0000       0.477439        12.9918 
 111   0.0000       0.507129        13.7997 
 112   0.0000       0.509309        13.8590 
 113   0.0000       0.519589        14.1387 
 114   0.0000       0.537019        14.6130 
 115   0.0000       0.544327        14.8119 
 116   0.0000       0.566536        15.4162 
 117   0.0000       0.585614        15.9354 
 118   0.0000       0.596567        16.2334 
 119   0.0000       0.612996        16.6805 
 120   0.0000       0.634783        17.2733 
 121   0.0000       0.640618        17.4321 
 122   0.0000       0.656022        17.8513 
 123   0.0000       0.685942        18.6654 
 124   0.0000       0.695983        18.9387 
 125   0.0000       0.708443        19.2777 
 126   0.0000       0.719690        19.5838 
 127   0.0000       0.758020        20.6268 
 128   0.0000       0.769093        20.9281 
 129   0.0000       0.782535        21.2939 
 130   0.0000       0.789353        21.4794 
 131   0.0000       0.809466        22.0267 
 132   0.0000       0.812425        22.1072 
 133   0.0000       0.817594        22.2479 
 134   0.0000       0.827805        22.5257 
 135   0.0000       0.830537        22.6001 
 136   0.0000       0.842191        22.9172 
 137   0.0000       0.847081        23.0503 
 138   0.0000       0.853479        23.2243 
 139   0.0000       0.863828        23.5059 
 140   0.0000       0.866543        23.5798 
 141   0.0000       0.874307        23.7911 
 142   0.0000       0.890775        24.2392 
 143   0.0000       0.901824        24.5399 
 144   0.0000       0.909319        24.7438 
 145   0.0000       0.914098        24.8739 
 146   0.0000       0.922095        25.0915 
 147   0.0000       0.931591        25.3499 
 148   0.0000       0.949805        25.8455 
 149   0.0000       0.955651        26.0046 
 150   0.0000       0.966361        26.2960 
 151   0.0000       0.971762        26.4430 
 152   0.0000       0.982407        26.7327 
 153   0.0000       0.988361        26.8947 
 154   0.0000       0.999738        27.2043 
 155   0.0000       1.013360        27.5749 
 156   0.0000       1.023815        27.8594 
 157   0.0000       1.037737        28.2383 
 158   0.0000       1.047763        28.5111 
 159   0.0000       1.072554        29.1857 
 160   0.0000       1.084367        29.5071 
 161   0.0000       1.105568        30.0840 
 162   0.0000       1.107809        30.1450 
 163   0.0000       1.117980        30.4218 
 164   0.0000       1.143413        31.1138 
 165   0.0000       1.167718        31.7752 
 166   0.0000       1.168932        31.8083 
 167   0.0000       1.188743        32.3473 
 168   0.0000       1.194592        32.5065 
 169   0.0000       1.232255        33.5314 
 170   0.0000       1.276324        34.7305 
 171   0.0000       1.305772        35.5319 
 172   0.0000       1.309820        35.6420 
 173   0.0000       1.340108        36.4662 
 174   0.0000       1.341933        36.5159 
 175   0.0000       1.371928        37.3321 
 176   0.0000       1.374954        37.4144 
 177   0.0000       1.397614        38.0310 
 178   0.0000       1.406087        38.2616 
 179   0.0000       1.407764        38.3072 
 180   0.0000       1.419677        38.6314 
 181   0.0000       1.425190        38.7814 
 182   0.0000       1.458223        39.6803 
 183   0.0000       1.467407        39.9302 
 184   0.0000       1.487327        40.4722 
 185   0.0000       1.488559        40.5058 
 186   0.0000       1.499685        40.8085 
 187   0.0000       1.516401        41.2634 
 188   0.0000       1.521988        41.4154 
 189   0.0000       1.537607        41.8404 
 190   0.0000       1.547530        42.1104 
 191   0.0000       1.573107        42.8064 
 192   0.0000       1.578097        42.9422 
 193   0.0000       1.582840        43.0713 
 194   0.0000       1.590622        43.2830 
 195   0.0000       1.604002        43.6471 
 196   0.0000       1.620499        44.0960 
 197   0.0000       1.643759        44.7290 
 198   0.0000       1.659831        45.1663 
 199   0.0000       1.673456        45.5370 
 200   0.0000       1.688402        45.9438 
 201   0.0000       1.699538        46.2468 
 202   0.0000       1.714678        46.6588 
 203   0.0000       1.725232        46.9459 
 204   0.0000       1.737467        47.2789 
 205   0.0000       1.750272        47.6273 
 206   0.0000       1.753147        47.7056 
 207   0.0000       1.765843        48.0510 
 208   0.0000       1.795054        48.8459 
 209   0.0000       1.813141        49.3381 
 210   0.0000       1.830906        49.8215 
 211   0.0000       1.850662        50.3591 
 212   0.0000       1.867929        50.8289 
 213   0.0000       1.885656        51.3113 
 214   0.0000       1.935390        52.6646 
 215   0.0000       1.951789        53.1109 
 216   0.0000       1.963953        53.4419 
 217   0.0000       1.968659        53.5699 
 218   0.0000       1.990591        54.1667 
 219   0.0000       2.001929        54.4753 
 220   0.0000       2.010595        54.7111 
 221   0.0000       2.019458        54.9522 
 222   0.0000       2.053154        55.8692 
 223   0.0000       2.085994        56.7628 
 224   0.0000       2.116900        57.6038 
 225   0.0000       2.134873        58.0928 
 226   0.0000       2.135967        58.1226 
 227   0.0000       2.177567        59.2546 
 228   0.0000       2.190758        59.6136 
 229   0.0000       2.207618        60.0723 
 230   0.0000       2.217227        60.3338 
 231   0.0000       2.224962        60.5443 
 232   0.0000       2.240911        60.9783 
 233   0.0000       2.264639        61.6240 
 234   0.0000       2.284196        62.1561 
 235   0.0000       2.303365        62.6777 
 236   0.0000       2.343931        63.7816 
 237   0.0000       2.362090        64.2757 
 238   0.0000       2.381947        64.8161 
 239   0.0000       2.399753        65.3006 
 240   0.0000       2.405759        65.4640 
 241   0.0000       2.430206        66.1293 
 242   0.0000       2.442150        66.4543 
 243   0.0000       2.479202        67.4625 
 244   0.0000       2.489283        67.7368 
 245   0.0000       2.495957        67.9184 
 246   0.0000       2.507630        68.2361 
 247   0.0000       2.527931        68.7885 
 248   0.0000       2.544207        69.2314 
 249   0.0000       2.618159        71.2437 
 250   0.0000       2.630729        71.5858 
 251   0.0000       2.678893        72.8964 
 252   0.0000       2.710072        73.7448 
 253   0.0000       2.728330        74.2416 
 254   0.0000       2.735825        74.4456 
 255   0.0000       2.742067        74.6154 
 256   0.0000       2.754573        74.9558 
 257   0.0000       2.815153        76.6042 
 258   0.0000       2.838816        77.2481 
 259   0.0000       2.881393        78.4067 
 260   0.0000       2.913232        79.2731 
 261   0.0000       3.009723        81.8987 
 262   0.0000       3.041646        82.7674 
 263   0.0000       3.078227        83.7628 
 264   0.0000       3.094699        84.2110 
 265   0.0000       3.105815        84.5135 
 266   0.0000       3.113942        84.7347 
 267   0.0000       3.144317        85.5612 
 268   0.0000       3.374760        91.8319 
 269   0.0000       3.387450        92.1772 
 270   0.0000       3.430090        93.3375 
 271   0.0000       3.444872        93.7397 
 272   0.0000       3.453506        93.9747 
 273   0.0000       3.483985        94.8041 
 274   0.0000       3.611046        98.2616 
 275   0.0000       4.906482       133.5122 
 276   0.0000       4.973651       135.3399 
 277   0.0000       4.979851       135.5086 
 278   0.0000       4.992453       135.8516 
 279   0.0000       5.000891       136.0812 
 280   0.0000       5.012227       136.3896 
 281   0.0000       5.030394       136.8840 
 282   0.0000       5.075158       138.1021 
 283   0.0000       5.114938       139.1845 
 284   0.0000       5.156267       140.3092 
 285   0.0000       5.219687       142.0349 
 286   0.0000       5.257656       143.0681 
 287   0.0000       5.264198       143.2461 
 288   0.0000       5.324422       144.8849 
 289   0.0000       5.354020       145.6903 
 290   0.0000       5.366868       146.0399 
 291   0.0000       5.522618       150.2781 
 292   0.0000       5.613342       152.7468 
 293   0.0000       5.683472       154.6551 
 294   0.0000       5.715604       155.5295 
 295   0.0000       5.838865       158.8836 
 296   0.0000       7.326237       199.3570 
 297   0.0000       7.346594       199.9110 
 298   0.0000       8.905054       242.3188 
 299   0.0000       9.076509       246.9844 
 300   0.0000       9.096562       247.5300 
 301   0.0000       9.136776       248.6243 
 302   0.0000      29.516189       803.1763 
 303   0.0000      29.601101       805.4869 
 304   0.0000      29.692709       807.9797 
 305   0.0000      29.877633       813.0117 
 306   0.0000      29.980205       815.8029 
 307   0.0000      30.065307       818.1186 
 308   0.0000      30.097830       819.0036 
 309   0.0000      30.237157       822.7949 
 310   0.0000      36.541347       994.3406 
 311   0.0000      36.600474       995.9495 
 312   0.0000      36.608724       996.1740 
 313   0.0000      36.613014       996.2908 
 314   0.0000      36.618464       996.4391 
 315   0.0000      36.650587       997.3132 
 316   0.0000      36.673825       997.9455 
 317   0.0000      36.703065       998.7412 
 318   0.0000      36.759032      1000.2641 
 319   0.0000      36.857018      1002.9304 
 320   0.0000      36.891550      1003.8701 
 321   0.0000      36.902625      1004.1715 
 322   0.0000      36.941700      1005.2348 
 323   0.0000      41.277730      1123.2241 
 324   0.0000      41.289212      1123.5366 
 325   0.0000      53.453113      1454.5332 
 326   0.0000      53.617042      1458.9939 
 327   0.0000      53.634332      1459.4644 
 328   0.0000      53.672258      1460.4964 

                 SPIN DOWN ORBITALS
  NO   OCC          E(Eh)            E(eV) 
   0   1.0000     -19.195411      -522.3337 
   1   1.0000     -19.141546      -520.8679 
   2   1.0000     -19.121501      -520.3225 
   3   1.0000     -19.107102      -519.9307 
   4   1.0000     -14.381510      -391.3408 
   5   1.0000     -14.361210      -390.7884 
   6   1.0000     -10.331294      -281.1288 
   7   1.0000     -10.304289      -280.3939 
   8   1.0000     -10.293150      -280.0909 
   9   1.0000     -10.238885      -278.6142 
  10   1.0000     -10.219969      -278.0995 
  11   1.0000     -10.208029      -277.7746 
  12   1.0000     -10.207434      -277.7584 
  13   1.0000     -10.197348      -277.4840 
  14   1.0000      -1.119970       -30.4759 
  15   1.0000      -1.052740       -28.6465 
  16   1.0000      -1.037654       -28.2360 
  17   1.0000      -1.027078       -27.9482 
  18   1.0000      -0.945348       -25.7242 
  19   1.0000      -0.922707       -25.1081 
  20   1.0000      -0.808452       -21.9991 
  21   1.0000      -0.760629       -20.6978 
  22   1.0000      -0.730075       -19.8664 
  23   1.0000      -0.697830       -18.9889 
  24   1.0000      -0.663180       -18.0461 
  25   1.0000      -0.606687       -16.5088 
  26   1.0000      -0.597769       -16.2661 
  27   1.0000      -0.564877       -15.3711 
  28   1.0000      -0.551975       -15.0200 
  29   1.0000      -0.504461       -13.7271 
  30   1.0000      -0.490875       -13.3574 
  31   1.0000      -0.487923       -13.2771 
  32   1.0000      -0.482830       -13.1385 
  33   1.0000      -0.460363       -12.5271 
  34   1.0000      -0.458232       -12.4691 
  35   1.0000      -0.451053       -12.2738 
  36   1.0000      -0.443593       -12.0708 
  37   1.0000      -0.431845       -11.7511 
  38   1.0000      -0.415816       -11.3149 
  39   1.0000      -0.410809       -11.1787 
  40   1.0000      -0.406130       -11.0514 
  41   1.0000      -0.403194       -10.9715 
  42   1.0000      -0.398304       -10.8384 
  43   1.0000      -0.379194       -10.3184 
  44   1.0000      -0.376787       -10.2529 
  45   1.0000      -0.374655       -10.1949 
  46   1.0000      -0.359700        -9.7879 
  47   1.0000      -0.330701        -8.9988 
  48   1.0000      -0.305807        -8.3214 
  49   1.0000      -0.286643        -7.8000 
  50   1.0000      -0.264576        -7.1995 
  51   1.0000      -0.264096        -7.1864 
  52   1.0000      -0.254997        -6.9388 
  53   0.0000      -0.085990        -2.3399 
  54   0.0000       0.003331         0.0906 
  55   0.0000       0.008889         0.2419 
  56   0.0000       0.019469         0.5298 
  57   0.0000       0.022946         0.6244 
  58   0.0000       0.025066         0.6821 
  59   0.0000       0.043968         1.1964 
  60   0.0000       0.050147         1.3646 
  61   0.0000       0.060722         1.6523 
  62   0.0000       0.072769         1.9801 
  63   0.0000       0.088160         2.3990 
  64   0.0000       0.101812         2.7704 
  65   0.0000       0.104128         2.8335 
  66   0.0000       0.122366         3.3297 
  67   0.0000       0.136608         3.7173 
  68   0.0000       0.152492         4.1495 
  69   0.0000       0.158155         4.3036 
  70   0.0000       0.169603         4.6151 
  71   0.0000       0.175384         4.7724 
  72   0.0000       0.181067         4.9271 
  73   0.0000       0.186010         5.0616 
  74   0.0000       0.195049         5.3076 
  75   0.0000       0.198393         5.3986 
  76   0.0000       0.203266         5.5312 
  77   0.0000       0.212409         5.7799 
  78   0.0000       0.219185         5.9643 
  79   0.0000       0.229008         6.2316 
  80   0.0000       0.239220         6.5095 
  81   0.0000       0.243248         6.6191 
  82   0.0000       0.246805         6.7159 
  83   0.0000       0.252575         6.8729 
  84   0.0000       0.255791         6.9604 
  85   0.0000       0.264339         7.1930 
  86   0.0000       0.272579         7.4173 
  87   0.0000       0.279421         7.6034 
  88   0.0000       0.288694         7.8558 
  89   0.0000       0.290975         7.9178 
  90   0.0000       0.302309         8.2262 
  91   0.0000       0.304989         8.2992 
  92   0.0000       0.310852         8.4587 
  93   0.0000       0.315857         8.5949 
  94   0.0000       0.323022         8.7899 
  95   0.0000       0.327891         8.9224 
  96   0.0000       0.336500         9.1566 
  97   0.0000       0.352420         9.5898 
  98   0.0000       0.364426         9.9165 
  99   0.0000       0.371521        10.1096 
 100   0.0000       0.388979        10.5847 
 101   0.0000       0.390679        10.6309 
 102   0.0000       0.399014        10.8577 
 103   0.0000       0.408273        11.1097 
 104   0.0000       0.422861        11.5066 
 105   0.0000       0.426687        11.6107 
 106   0.0000       0.432079        11.7575 
 107   0.0000       0.446095        12.1389 
 108   0.0000       0.462031        12.5725 
 109   0.0000       0.475471        12.9382 
 110   0.0000       0.481312        13.0972 
 111   0.0000       0.509432        13.8624 
 112   0.0000       0.515619        14.0307 
 113   0.0000       0.522806        14.2263 
 114   0.0000       0.538272        14.6471 
 115   0.0000       0.548408        14.9229 
 116   0.0000       0.569034        15.4842 
 117   0.0000       0.587027        15.9738 
 118   0.0000       0.599323        16.3084 
 119   0.0000       0.615830        16.7576 
 120   0.0000       0.638626        17.3779 
 121   0.0000       0.645028        17.5521 
 122   0.0000       0.661885        18.0108 
 123   0.0000       0.687807        18.7162 
 124   0.0000       0.698988        19.0204 
 125   0.0000       0.709355        19.3025 
 126   0.0000       0.721321        19.6281 
 127   0.0000       0.760798        20.7024 
 128   0.0000       0.772483        21.0203 
 129   0.0000       0.783832        21.3292 
 130   0.0000       0.791440        21.5362 
 131   0.0000       0.811789        22.0899 
 132   0.0000       0.813408        22.1340 
 133   0.0000       0.819154        22.2903 
 134   0.0000       0.829086        22.5606 
 135   0.0000       0.831849        22.6358 
 136   0.0000       0.842819        22.9343 
 137   0.0000       0.849578        23.1182 
 138   0.0000       0.854793        23.2601 
 139   0.0000       0.865076        23.5399 
 140   0.0000       0.869384        23.6571 
 141   0.0000       0.876072        23.8391 
 142   0.0000       0.893992        24.3268 
 143   0.0000       0.903185        24.5769 
 144   0.0000       0.909934        24.7606 
 145   0.0000       0.915072        24.9004 
 146   0.0000       0.922815        25.1111 
 147   0.0000       0.933314        25.3968 
 148   0.0000       0.950664        25.8689 
 149   0.0000       0.957690        26.0601 
 150   0.0000       0.968299        26.3487 
 151   0.0000       0.973301        26.4849 
 152   0.0000       0.986693        26.8493 
 153   0.0000       0.990406        26.9503 
 154   0.0000       1.001372        27.2487 
 155   0.0000       1.020374        27.7658 
 156   0.0000       1.032248        28.0889 
 157   0.0000       1.042050        28.3556 
 158   0.0000       1.052512        28.6403 
 159   0.0000       1.073641        29.2153 
 160   0.0000       1.085794        29.5460 
 161   0.0000       1.107116        30.1262 
 162   0.0000       1.110342        30.2139 
 163   0.0000       1.120125        30.4801 
 164   0.0000       1.145412        31.1682 
 165   0.0000       1.169629        31.8272 
 166   0.0000       1.172246        31.8984 
 167   0.0000       1.190389        32.3921 
 168   0.0000       1.195969        32.5440 
 169   0.0000       1.236120        33.6365 
 170   0.0000       1.278207        34.7818 
 171   0.0000       1.309386        35.6302 
 172   0.0000       1.310354        35.6565 
 173   0.0000       1.342870        36.5414 
 174   0.0000       1.344303        36.5803 
 175   0.0000       1.374088        37.3908 
 176   0.0000       1.376778        37.4640 
 177   0.0000       1.400092        38.0984 
 178   0.0000       1.406557        38.2744 
 179   0.0000       1.408207        38.3193 
 180   0.0000       1.421305        38.6757 
 181   0.0000       1.427908        38.8554 
 182   0.0000       1.460553        39.7437 
 183   0.0000       1.473264        40.0896 
 184   0.0000       1.488533        40.5050 
 185   0.0000       1.489909        40.5425 
 186   0.0000       1.500831        40.8397 
 187   0.0000       1.519076        41.3362 
 188   0.0000       1.524681        41.4887 
 189   0.0000       1.540020        41.9061 
 190   0.0000       1.549267        42.1577 
 191   0.0000       1.577964        42.9386 
 192   0.0000       1.581757        43.0418 
 193   0.0000       1.586291        43.1652 
 194   0.0000       1.592828        43.3431 
 195   0.0000       1.605423        43.6858 
 196   0.0000       1.622354        44.1465 
 197   0.0000       1.645532        44.7772 
 198   0.0000       1.662456        45.2377 
 199   0.0000       1.676341        45.6156 
 200   0.0000       1.691643        46.0319 
 201   0.0000       1.701678        46.3050 
 202   0.0000       1.717221        46.7280 
 203   0.0000       1.726991        46.9938 
 204   0.0000       1.739309        47.3290 
 205   0.0000       1.752769        47.6953 
 206   0.0000       1.757046        47.8117 
 207   0.0000       1.768385        48.1202 
 208   0.0000       1.797990        48.9258 
 209   0.0000       1.815064        49.3904 
 210   0.0000       1.832546        49.8661 
 211   0.0000       1.854000        50.4499 
 212   0.0000       1.869564        50.8734 
 213   0.0000       1.887505        51.3616 
 214   0.0000       1.937599        52.7248 
 215   0.0000       1.954900        53.1955 
 216   0.0000       1.965905        53.4950 
 217   0.0000       1.973074        53.6901 
 218   0.0000       1.993262        54.2394 
 219   0.0000       2.003959        54.5305 
 220   0.0000       2.012251        54.7561 
 221   0.0000       2.020198        54.9724 
 222   0.0000       2.054769        55.9131 
 223   0.0000       2.091010        56.8993 
 224   0.0000       2.118289        57.6416 
 225   0.0000       2.136901        58.1480 
 226   0.0000       2.137346        58.1601 
 227   0.0000       2.179578        59.3093 
 228   0.0000       2.192882        59.6714 
 229   0.0000       2.209398        60.1208 
 230   0.0000       2.218278        60.3624 
 231   0.0000       2.228477        60.6399 
 232   0.0000       2.243935        61.0606 
 233   0.0000       2.269026        61.7433 
 234   0.0000       2.289471        62.2997 
 235   0.0000       2.307220        62.7827 
 236   0.0000       2.347739        63.8852 
 237   0.0000       2.364449        64.3399 
 238   0.0000       2.383758        64.8654 
 239   0.0000       2.400999        65.3345 
 240   0.0000       2.407690        65.5166 
 241   0.0000       2.432338        66.1873 
 242   0.0000       2.443783        66.4987 
 243   0.0000       2.479574        67.4726 
 244   0.0000       2.490576        67.7720 
 245   0.0000       2.496799        67.9414 
 246   0.0000       2.508854        68.2694 
 247   0.0000       2.530469        68.8576 
 248   0.0000       2.546235        69.2866 
 249   0.0000       2.620355        71.3035 
 250   0.0000       2.632427        71.6320 
 251   0.0000       2.682259        72.9880 
 252   0.0000       2.711607        73.7866 
 253   0.0000       2.733519        74.3828 
 254   0.0000       2.742300        74.6218 
 255   0.0000       2.748337        74.7861 
 256   0.0000       2.761910        75.1554 
 257   0.0000       2.816504        76.6410 
 258   0.0000       2.838899        77.2504 
 259   0.0000       2.884213        78.4834 
 260   0.0000       2.914032        79.2948 
 261   0.0000       3.012856        81.9840 
 262   0.0000       3.041995        82.7769 
 263   0.0000       3.085373        83.9573 
 264   0.0000       3.098704        84.3200 
 265   0.0000       3.107649        84.5634 
 266   0.0000       3.119318        84.8809 
 267   0.0000       3.144504        85.5663 
 268   0.0000       3.374812        91.8333 
 269   0.0000       3.389313        92.2279 
 270   0.0000       3.432938        93.4150 
 271   0.0000       3.445019        93.7437 
 272   0.0000       3.456155        94.0468 
 273   0.0000       3.485715        94.8511 
 274   0.0000       3.611222        98.2663 
 275   0.0000       4.909335       133.5898 
 276   0.0000       4.975130       135.3802 
 277   0.0000       4.980607       135.5292 
 278   0.0000       4.993714       135.8859 
 279   0.0000       5.001279       136.0917 
 280   0.0000       5.014652       136.4556 
 281   0.0000       5.031394       136.9112 
 282   0.0000       5.075941       138.1234 
 283   0.0000       5.116288       139.2213 
 284   0.0000       5.157254       140.3360 
 285   0.0000       5.221684       142.0892 
 286   0.0000       5.258792       143.0990 
 287   0.0000       5.264698       143.2597 
 288   0.0000       5.325187       144.9057 
 289   0.0000       5.354669       145.7079 
 290   0.0000       5.369692       146.1167 
 291   0.0000       5.523271       150.2958 
 292   0.0000       5.615854       152.8152 
 293   0.0000       5.687889       154.7753 
 294   0.0000       5.718469       155.6075 
 295   0.0000       5.842561       158.9842 
 296   0.0000       7.329607       199.4487 
 297   0.0000       7.351314       200.0394 
 298   0.0000       8.905145       242.3213 
 299   0.0000       9.082231       247.1401 
 300   0.0000       9.096721       247.5344 
 301   0.0000       9.142192       248.7717 
 302   0.0000      29.518681       803.2441 
 303   0.0000      29.601690       805.5029 
 304   0.0000      29.696198       808.0746 
 305   0.0000      29.878417       813.0331 
 306   0.0000      29.980376       815.8075 
 307   0.0000      30.066414       818.1487 
 308   0.0000      30.103400       819.1552 
 309   0.0000      30.238272       822.8252 
 310   0.0000      36.541713       994.3506 
 311   0.0000      36.601690       995.9826 
 312   0.0000      36.609267       996.1888 
 313   0.0000      36.615019       996.3453 
 314   0.0000      36.618957       996.4525 
 315   0.0000      36.652149       997.3557 
 316   0.0000      36.674767       997.9711 
 317   0.0000      36.703231       998.7457 
 318   0.0000      36.757846      1000.2318 
 319   0.0000      36.857678      1002.9484 
 320   0.0000      36.892839      1003.9052 
 321   0.0000      36.903491      1004.1951 
 322   0.0000      36.944719      1005.3169 
 323   0.0000      41.279649      1123.2764 
 324   0.0000      41.291409      1123.5964 
 325   0.0000      53.453175      1454.5348 
 326   0.0000      53.620089      1459.0768 
 327   0.0000      53.634407      1459.4664 
 328   0.0000      53.675145      1460.5750 

                    ********************************
                    * MULLIKEN POPULATION ANALYSIS *
                    ********************************

--------------------------------------------
MULLIKEN ATOMIC CHARGES AND SPIN POPULATIONS
--------------------------------------------
   0 N :   -0.012357    0.068532
   1 C :    0.132277    0.657634
   2 C :    0.019290   -0.011577
   3 O :   -0.367605    0.090614
   4 C :   -0.325456   -0.042614
   5 H :    0.128491    0.004367
   6 H :    0.195966    0.012722
   7 C :   -0.273263    0.025956
   8 H :    0.213364   -0.000684
   9 H :    0.174912   -0.000878
  10 C :    0.101044    0.005927
  11 O :   -0.260934    0.000483
  12 O :   -0.250559   -0.000053
  13 H :    0.251351   -0.004046
  14 C :    0.114804    0.034993
  15 N :   -0.105782    0.061659
  16 H :    0.287808    0.001247
  17 H :    0.227145   -0.002155
  18 O :   -0.288028    0.093879
  19 C :   -0.555536   -0.003967
  20 H :    0.187840    0.001007
  21 H :    0.184400    0.003487
  22 H :    0.161696    0.000512
  23 C :   -0.438478   -0.005983
  24 H :    0.178788    0.005162
[...]

----------------------------------------------------
LOEWDIN REDUCED ORBITAL CHARGES AND SPIN POPULATIONS
----------------------------------------------------
CHARGE
  0 N s       :     3.043494  s :     3.043494
      pz      :     1.411394  p :     3.736460
      px      :     1.172817
      py      :     1.152249
      dz2     :     0.006451  d :     0.091090
      dxz     :     0.004740
      dyz     :     0.019077
      dx2y2   :     0.033495
      dxy     :     0.027327
  1 C s       :     2.861261  s :     2.861261
      pz      :     0.979860  p :     2.928501
      px      :     1.012609
      py      :     0.936033
      dz2     :     0.021898  d :     0.254585
      dxz     :     0.031264
      dyz     :     0.045350
      dx2y2   :     0.065778
      dxy     :     0.090294
  2 C s       :     2.821079  s :     2.821079
      pz      :     0.857122  p :     2.797867
      px      :     0.970393
      py      :     0.970352
      dz2     :     0.041509  d :     0.491798
      dxz     :     0.083782
      dyz     :     0.068171
      dx2y2   :     0.110624
      dxy     :     0.187713
  3 O s       :     3.589711  s :     3.589711
      pz      :     1.469271  p :     4.604615
      px      :     1.420876
      py      :     1.714468
      dz2     :     0.003961  d :     0.030785
      dxz     :     0.008597
      dyz     :     0.000658
      dx2y2   :     0.011740
      dxy     :     0.005828
  4 C s       :     2.847742  s :     2.847742
      pz      :     1.016689  p :     3.019627
      px      :     0.971758
      py      :     1.031180
      dz2     :     0.023039  d :     0.173451
      dxz     :     0.051007
      dyz     :     0.032954
      dx2y2   :     0.047474
      dxy     :     0.018977
  5 H s       :     0.866466  s :     0.866466
      pz      :     0.024662  p :     0.084052
      px      :     0.018295
      py      :     0.041095
  6 H s       :     0.844279  s :     0.844279
      pz      :     0.032222  p :     0.084442
      px      :     0.015963
      py      :     0.036257
  7 C s       :     2.863489  s :     2.863489
      pz      :     1.014386  p :     3.012342
      px      :     0.962553
      py      :     1.035403
      dz2     :     0.028019  d :     0.155609
      dxz     :     0.036898
      dyz     :     0.027349
      dx2y2   :     0.042749
      dxy     :     0.020594
  8 H s       :     0.842885  s :     0.842885
      pz      :     0.019526  p :     0.085833
      px      :     0.015742
      py      :     0.050565
  9 H s       :     0.848549  s :     0.848549
      pz      :     0.037817  p :     0.082453
      px      :     0.017745
      py      :     0.026892
 10 C s       :     2.850321  s :     2.850321
      pz      :     0.886222  p :     2.710148
      px      :     0.977109
      py      :     0.846817
      dz2     :     0.112208  d :     0.524019
      dxz     :     0.146186
      dyz     :     0.079994
      dx2y2   :     0.076695
      dxy     :     0.108935
 11 O s       :     3.464370  s :     3.464370
      pz      :     1.614504  p :     4.492562
      px      :     1.227734
      py      :     1.650324
      dz2     :     0.003297  d :     0.025291
      dxz     :     0.008367
      dyz     :     0.003815
      dx2y2   :     0.003995
      dxy     :     0.005816
 12 O s       :     3.582080  s :     3.582080
      pz      :     1.431290  p :     4.534311
      px      :     1.695064
      py      :     1.407958
      dz2     :     0.007455  d :     0.033248
      dxz     :     0.005149
      dyz     :     0.013200
      dx2y2   :     0.003895
      dxy     :     0.003550
 13 H s       :     0.743127  s :     0.743127
      pz      :     0.042523  p :     0.153169
      px      :     0.081797
      py      :     0.028848
 14 C s       :     2.841759  s :     2.841759
      pz      :     0.822951  p :     2.776008
      px      :     1.000678
      py      :     0.952378
      dz2     :     0.034175  d :     0.479621
      dxz     :     0.072890
      dyz     :     0.061821
      dx2y2   :     0.137916
      dxy     :     0.172820
 15 N s       :     3.064967  s :     3.064967
      pz      :     1.494766  p :     3.820712
      px      :     1.180212
      py      :     1.145734
      dz2     :     0.005589  d :     0.079344
      dxz     :     0.007213
      dyz     :     0.012757
      dx2y2   :     0.027729
      dxy     :     0.026056
 16 H s       :     0.705870  s :     0.705870
      pz      :     0.051588  p :     0.192704
      px      :     0.086058
      py      :     0.055058
 17 H s       :     0.775822  s :     0.775822
      pz      :     0.056195  p :     0.150636
      px      :     0.072568
      py      :     0.021874
 18 O s       :     3.584551  s :     3.584551
      pz      :     1.405716  p :     4.553750
      px      :     1.448857
      py      :     1.699176
      dz2     :     0.004311  d :     0.032225
      dxz     :     0.007535
      dyz     :     0.001154
      dx2y2   :     0.010781
      dxy     :     0.008443
 19 C s       :     2.869204  s :     2.869204
      pz      :     1.043045  p :     3.062005
      px      :     1.000151
      py      :     1.018810
      dz2     :     0.017528  d :     0.106635
      dxz     :     0.011151
      dyz     :     0.026864
      dx2y2   :     0.016652
      dxy     :     0.034440
 20 H s       :     0.862125  s :     0.862125
      pz      :     0.035363  p :     0.081677
      px      :     0.018271
      py      :     0.028043
 21 H s       :     0.861600  s :     0.861600
      pz      :     0.037135  p :     0.081695
      px      :     0.015690
      py      :     0.028870
 22 H s       :     0.882726  s :     0.882726
      pz      :     0.018735  p :     0.081747
      px      :     0.042169
      py      :     0.020843
 23 C s       :     2.857294  s :     2.857294
      pz      :     1.055508  p :     2.972412
      px      :     1.005195
      py      :     0.911709
      dz2     :     0.021241  d :     0.161601
      dxz     :     0.035571
      dyz     :     0.030120
      dx2y2   :     0.023644
      dxy     :     0.051025
 24 H s       :     0.888305  s :     0.888305
      pz      :     0.039048  p :     0.079078
      px      :     0.024711
      py      :     0.015318
 25 H s       :     0.889536  s :     0.889536
      pz      :     0.020090  p :     0.078647
      px      :     0.026997
      py      :     0.031559
 26 H s       :     0.868464  s :     0.868464
      pz      :     0.035309  p :     0.082169
      px      :     0.031917
      py      :     0.014943

SPIN
  0 N s       :     0.000573  s :     0.000573
      pz      :     0.062444  p :     0.063877
      px      :     0.004381
      py      :    -0.002948
      dz2     :     0.000333  d :     0.012238
      dxz     :     0.001135
      dyz     :     0.009232
      dx2y2   :     0.000533
      dxy     :     0.001005
  1 C s       :     0.016981  s :     0.016981
      pz      :     0.446960  p :     0.511733
      px      :     0.056233
      py      :     0.008540
      dz2     :    -0.001476  d :     0.001673
      dxz     :    -0.000934
      dyz     :     0.005006
      dx2y2   :    -0.000656
      dxy     :    -0.000267
  2 C s       :    -0.003194  s :    -0.003194
      pz      :     0.011577  p :     0.003614
      px      :    -0.002235
      py      :    -0.005728
      dz2     :     0.004232  d :     0.030438
      dxz     :     0.008340
      dyz     :     0.013901
      dx2y2   :     0.001197
      dxy     :     0.002768
  3 O s       :     0.000928  s :     0.000928
      pz      :     0.081266  p :     0.089801
      px      :     0.008689
      py      :    -0.000154
      dz2     :     0.000000  d :    -0.000166
      dxz     :    -0.000042
      dyz     :    -0.000009
      dx2y2   :    -0.000050
      dxy     :    -0.000065
  4 C s       :    -0.002666  s :    -0.002666
      pz      :    -0.003174  p :    -0.015185
      px      :    -0.009943
      py      :    -0.002067
      dz2     :     0.001933  d :     0.024777
      dxz     :     0.017379
      dyz     :     0.000596
      dx2y2   :     0.004683
      dxy     :     0.000186
  5 H s       :     0.003917  s :     0.003917
      pz      :     0.000027  p :    -0.000512
      px      :    -0.000383
      py      :    -0.000155
  6 H s       :     0.010392  s :     0.010392
      pz      :    -0.000077  p :    -0.000558
      px      :    -0.000340
      py      :    -0.000141
  7 C s       :     0.009106  s :     0.009106
      pz      :     0.007858  p :     0.022383
      px      :     0.012823
      py      :     0.001702
      dz2     :    -0.000221  d :    -0.000232
      dxz     :    -0.000018
      dyz     :    -0.000115
      dx2y2   :     0.000133
      dxy     :    -0.000013
  8 H s       :    -0.000798  s :    -0.000798
      pz      :     0.000240  p :     0.000813
      px      :     0.000330
      py      :     0.000243
  9 H s       :    -0.000741  s :    -0.000741
      pz      :     0.000713  p :     0.000723
      px      :    -0.000022
      py      :     0.000032
 10 C s       :     0.001144  s :     0.001144
      pz      :     0.000554  p :     0.001460
      px      :     0.000674
      py      :     0.000231
      dz2     :     0.000043  d :     0.001034
      dxz     :     0.000563
      dyz     :     0.000005
      dx2y2   :     0.000247
      dxy     :     0.000175
 11 O s       :     0.000763  s :     0.000763
      pz      :     0.000052  p :     0.000709
      px      :     0.000549
      py      :     0.000108
      dz2     :     0.000016  d :     0.000053
      dxz     :     0.000001
      dyz     :     0.000001
      dx2y2   :     0.000034
      dxy     :     0.000001
 12 O s       :     0.000148  s :     0.000148
      pz      :    -0.000148  p :    -0.000050
      px      :     0.000225
      py      :    -0.000127
      dz2     :     0.000001  d :     0.000007
      dxz     :    -0.000002
      dyz     :     0.000003
      dx2y2   :     0.000003
      dxy     :     0.000001
 13 H s       :    -0.001998  s :    -0.001998
      pz      :     0.003662  p :     0.004167
      px      :     0.000620
      py      :    -0.000115
 14 C s       :     0.000340  s :     0.000340
      pz      :     0.031914  p :     0.031756
      px      :     0.001290
      py      :    -0.001448
      dz2     :     0.001428  d :     0.015678
      dxz     :     0.006543
      dyz     :     0.006729
      dx2y2   :     0.000571
      dxy     :     0.000406
 15 N s       :     0.001901  s :     0.001901
      pz      :     0.047654  p :     0.056670
      px      :     0.008189
      py      :     0.000827
      dz2     :    -0.000086  d :    -0.000372
      dxz     :    -0.000032
      dyz     :     0.000046
      dx2y2   :    -0.000181
      dxy     :    -0.000120
 16 H s       :     0.000546  s :     0.000546
      pz      :    -0.000001  p :     0.000091
      px      :     0.000094
      py      :    -0.000002
 17 H s       :    -0.001347  s :    -0.001347
      pz      :     0.001800  p :     0.002163
      px      :     0.000329
      py      :     0.000033
 18 O s       :     0.001157  s :     0.001157
      pz      :     0.084686  p :     0.090202
      px      :     0.004541
      py      :     0.000975
      dz2     :     0.000045  d :     0.000109
      dxz     :     0.000083
      dyz     :     0.000021
      dx2y2   :    -0.000019
      dxy     :    -0.000021
 19 C s       :    -0.000650  s :    -0.000650
      pz      :    -0.000002  p :    -0.001932
      px      :    -0.000665
      py      :    -0.001266
      dz2     :     0.000019  d :     0.002518
      dxz     :     0.000055
      dyz     :     0.002266
      dx2y2   :    -0.000065
      dxy     :     0.000243
 20 H s       :     0.003684  s :     0.003684
      pz      :    -0.000031  p :    -0.000118
      px      :    -0.000031
      py      :    -0.000056
 21 H s       :     0.003518  s :     0.003518
      pz      :    -0.000033  p :    -0.000133
      px      :    -0.000029
      py      :    -0.000071
 22 H s       :    -0.000060  s :    -0.000060
      pz      :    -0.000066  p :    -0.000131
      px      :    -0.000041
      py      :    -0.000024
 23 C s       :    -0.000469  s :    -0.000469
      pz      :    -0.000379  p :    -0.002695
      px      :    -0.000792
      py      :    -0.001524
      dz2     :     0.000053  d :     0.003445
      dxz     :     0.001044
      dyz     :     0.001663
      dx2y2   :     0.000100
      dxy     :     0.000585
 24 H s       :     0.005226  s :     0.005226
      pz      :    -0.000078  p :    -0.000134
      px      :    -0.000059
      py      :     0.000003
 25 H s       :     0.001063  s :     0.001063
      pz      :    -0.000014  p :    -0.000116
      px      :    -0.000040
      py      :    -0.000062
 26 H s       :     0.000876  s :     0.000876
      pz      :    -0.000052  p :    -0.000134
      px      :    -0.000035
      py      :    -0.000047


                      *****************************
                      * MAYER POPULATION ANALYSIS *
                      *****************************

  NA   - Mulliken gross atomic population
  ZA   - Total nuclear charge
  QA   - Mulliken gross atomic charge
  VA   - Mayer's total valence
  BVA  - Mayer's bonded valence
  FA   - Mayer's free valence

  ATOM       NA         ZA         QA         VA         BVA        FA
  0 N      7.0289     7.0000    -0.0289     3.4620     3.4548     0.0073
  1 C      5.8539     6.0000     0.1461     3.7469     3.4001     0.3468
  2 C      5.9828     6.0000     0.0172     4.0640     4.0623     0.0016
  3 O      8.3774     8.0000    -0.3774     2.0486     2.0397     0.0088
  4 C      6.3193     6.0000    -0.3193     4.0266     4.0253     0.0013
  5 H      0.8685     1.0000     0.1315     0.9766     0.9766     0.0000
  6 H      0.8060     1.0000     0.1940     0.9604     0.9602     0.0002
  7 C      6.2727     6.0000    -0.2727     3.8286     3.8276     0.0010
  8 H      0.7838     1.0000     0.2162     0.9609     0.9609     0.0000
  9 H      0.8218     1.0000     0.1782     0.9695     0.9695     0.0000
 10 C      5.8922     6.0000     0.1078     4.0353     4.0353     0.0000
 11 O      8.2670     8.0000    -0.2670     2.1145     2.1145     0.0000
 12 O      8.2595     8.0000    -0.2595     2.1209     2.1209     0.0000
 13 H      0.7479     1.0000     0.2521     0.9757     0.9757     0.0000
 14 C      5.8880     6.0000     0.1120     4.0145     4.0123     0.0022
 15 N      7.1144     7.0000    -0.1144     3.1855     3.1818     0.0036
 16 H      0.7121     1.0000     0.2879     0.9571     0.9571     0.0000
 17 H      0.7747     1.0000     0.2253     0.9720     0.9720     0.0000
 18 O      8.2889     8.0000    -0.2889     2.1377     2.1284     0.0093
 19 C      6.5417     6.0000    -0.5417     3.8440     3.8439     0.0000
 20 H      0.8115     1.0000     0.1885     0.9576     0.9575     0.0000
 21 H      0.8106     1.0000     0.1894     0.9578     0.9578     0.0000
 22 H      0.8477     1.0000     0.1523     0.9711     0.9711    -0.0000
 23 C      6.4432     6.0000    -0.4432     3.9261     3.9261     0.0000
 24 H      0.8293     1.0000     0.1707     0.9516     0.9515     0.0001
 25 H      0.8517     1.0000     0.1483     0.9649     0.9649     0.0000
 26 H      0.8046     1.0000     0.1954     0.9573     0.9573     0.0000

  Mayer bond orders larger than 0.100000
B(  0-N ,  1-C ) :   1.2438 B(  0-N , 13-H ) :   0.8693 B(  0-N , 14-C ) :   1.1599 
B(  1-C ,  2-C ) :   1.0683 B(  1-C ,  4-C ) :   0.9792 B(  2-C ,  3-O ) :   1.7358 
B(  2-C , 15-N ) :   1.1806 B(  4-C ,  5-H ) :   0.9710 B(  4-C ,  6-H ) :   0.9569 
B(  4-C ,  7-C ) :   0.9374 B(  7-C ,  8-H ) :   0.9506 B(  7-C ,  9-H ) :   0.9612 
B(  7-C , 10-C ) :   0.8937 B( 10-C , 11-O ) :   1.1435 B( 10-C , 12-O ) :   1.9582 
B( 11-O , 16-H ) :   0.8945 B( 14-C , 18-O ) :   1.8942 B( 14-C , 19-C ) :   0.8985 
B( 15-N , 17-H ) :   0.9257 B( 15-N , 23-C ) :   0.9730 B( 19-C , 20-H ) :   0.9544 
B( 19-C , 21-H ) :   0.9564 B( 19-C , 22-H ) :   0.9740 B( 23-C , 24-H ) :   0.9541 
B( 23-C , 25-H ) :   0.9668 B( 23-C , 26-H ) :   0.9461 

-------
TIMINGS
-------

Total SCF time: 0 days 0 hours 0 min 14 sec 

Total time                  ....      14.879 sec
Sum of individual times     ....      14.166 sec  ( 95.2%)

Fock matrix formation       ....      12.195 sec  ( 82.0%)
  Split-RI-J                ....       1.096 sec  (  9.0% of F)
  Chain of spheres X        ....       7.856 sec  ( 64.4% of F)
  XC integration            ....       2.928 sec  ( 24.0% of F)
    Basis function eval.    ....       0.274 sec  (  9.4% of XC)
    Density eval.           ....       0.383 sec  ( 13.1% of XC)
    XC-Functional eval.     ....       0.066 sec  (  2.2% of XC)
    XC-Potential eval.      ....       0.250 sec  (  8.6% of XC)
Diagonalization             ....       0.453 sec  (  3.0%)
Density matrix formation    ....       0.028 sec  (  0.2%)
Population analysis         ....       0.058 sec  (  0.4%)
Initial guess               ....       0.048 sec  (  0.3%)
Orbital Transformation      ....       0.000 sec  (  0.0%)
Orbital Orthonormalization  ....       0.030 sec  (  0.2%)
DIIS solution               ....       0.231 sec  (  1.6%)
Grid generation             ....       1.153 sec  (  7.7%)

Maximum memory used throughout the entire SCF-calculation: 77.4 MB

-------------------------   --------------------
FINAL SINGLE POINT ENERGY      -722.867925056218
-------------------------   --------------------

                                *** OPTIMIZATION RUN DONE ***

                            ***************************************
                            *     ORCA property calculations      *
                            ***************************************

                                    ---------------------
                                    Active property flags
                                    ---------------------
   (+) Dipole Moment


------------------------------------------------------------------------------
                       ORCA ELECTRIC PROPERTIES CALCULATION
------------------------------------------------------------------------------

Dipole Moment Calculation                       ... on
Quadrupole Moment Calculation                   ... off
Polarizability Calculation                      ... off
GBWName                                         ... opt.gbw
Electron density                                ... opt.scfp
The origin for moment calculation is the CENTER OF MASS  = (-0.042628, -0.001329  0.018002)

-------------
DIPOLE MOMENT
-------------
                                X             Y             Z
Electronic contribution:     -6.26452       1.66054       0.78459
Nuclear contribution   :      6.25596      -2.14450      -1.07956
                        -----------------------------------------
Total Dipole Moment    :     -0.00856      -0.48396      -0.29497
                        -----------------------------------------
Magnitude (a.u.)       :      0.56683
Magnitude (Debye)      :      1.44077



--------------------
Rotational spectrum 
--------------------
 
Rotational constants in cm-1:     0.020723     0.016376     0.009651 
Rotational constants in MHz :   621.273929   490.944382   289.341388 

 Dipole components along the rotational axes: 
x,y,z [a.u.] :     0.012280    -0.486235    -0.291071 
x,y,z [Debye]:     0.031214    -1.235912    -0.739844 

 

Timings for individual modules:

Sum of individual times         ...      567.119 sec (=   9.452 min)
GTO integral calculation        ...       53.469 sec (=   0.891 min)   9.4 %
SCF iterations                  ...      377.140 sec (=   6.286 min)  66.5 %
SCF Gradient evaluation         ...      135.811 sec (=   2.264 min)  23.9 %
Geometry relaxation             ...        0.699 sec (=   0.012 min)   0.1 %
                             ****ORCA TERMINATED NORMALLY****
TOTAL RUN TIME: 0 days 0 hours 10 minutes 14 seconds 769 msec
