
                                 *****************
                                 * O   R   C   A *
                                 *****************

                                            #,                                       
                                            ###                                      
                                            ####                                     
                                            #####                                    
                                            ######                                   
                                           ########,                                 
                                     ,,################,,,,,                         
                               ,,#################################,,                 
                          ,,##########################################,,             
                       ,#########################################, ''#####,          
                    ,#############################################,,   '####,        
                  ,##################################################,,,,####,       
                ,###########''''           ''''###############################       
              ,#####''   ,,,,##########,,,,          '''####'''          '####       
            ,##' ,,,,###########################,,,                        '##       
           ' ,,###''''                  '''############,,,                           
         ,,##''                                '''############,,,,        ,,,,,,###''
      ,#''                                            '''#######################'''  
     '                                                          ''''####''''         
             ,#######,   #######,   ,#######,      ##                                
            ,#'     '#,  ##    ##  ,#'     '#,    #''#        ######   ,####,        
            ##       ##  ##   ,#'  ##            #'  '#       #        #'  '#        
            ##       ##  #######   ##           ,######,      #####,   #    #        
            '#,     ,#'  ##    ##  '#,     ,#' ,#      #,         ##   #,  ,#        
             '#######'   ##     ##  '#######'  #'      '#     #####' # '####'        



                  #######################################################
                  #                        -***-                        #
                  #          Department of theory and spectroscopy      #
                  #    Directorship and core code : Frank Neese         #
                  #        Max Planck Institute fuer Kohlenforschung    #
                  #                Kaiser Wilhelm Platz 1               #
                  #                 D-45470 Muelheim/Ruhr               #
                  #                      Germany                        #
                  #                                                     #
                  #                  All rights reserved                #
                  #                        -***-                        #
                  #######################################################


                         Program Version 5.0.4 -  RELEASE  -


 With contributions from (in alphabetic order):
   Daniel Aravena         : Magnetic Suceptibility
   Michael Atanasov       : Ab Initio Ligand Field Theory (pilot matlab implementation)
   Alexander A. Auer      : GIAO ZORA, VPT2 properties, NMR spectrum
   Ute Becker             : Parallelization
   Giovanni Bistoni       : ED, misc. LED, open-shell LED, HFLD
   Martin Brehm           : Molecular dynamics
   Dmytro Bykov           : SCF Hessian
   Vijay G. Chilkuri      : MRCI spin determinant printing, contributions to CSF-ICE
   Dipayan Datta          : RHF DLPNO-CCSD density
   Achintya Kumar Dutta   : EOM-CC, STEOM-CC
   Dmitry Ganyushin       : Spin-Orbit,Spin-Spin,Magnetic field MRCI
   Miquel Garcia          : C-PCM and meta-GGA Hessian, CC/C-PCM, Gaussian charge scheme
   Yang Guo               : DLPNO-NEVPT2, F12-NEVPT2, CIM, IAO-localization
   Andreas Hansen         : Spin unrestricted coupled pair/coupled cluster methods
   Benjamin Helmich-Paris : MC-RPA, TRAH-SCF, COSX integrals
   Lee Huntington         : MR-EOM, pCC
   Robert Izsak           : Overlap fitted RIJCOSX, COSX-SCS-MP3, EOM
   Marcus Kettner         : VPT2
   Christian Kollmar      : KDIIS, OOCD, Brueckner-CCSD(T), CCSD density, CASPT2, CASPT2-K
   Simone Kossmann        : Meta GGA functionals, TD-DFT gradient, OOMP2, MP2 Hessian
   Martin Krupicka        : Initial AUTO-CI
   Lucas Lang             : DCDCAS
   Marvin Lechner         : AUTO-CI (C++ implementation), FIC-MRCC
   Dagmar Lenk            : GEPOL surface, SMD
   Dimitrios Liakos       : Extrapolation schemes; Compound Job, initial MDCI parallelization
   Dimitrios Manganas     : Further ROCIS development; embedding schemes
   Dimitrios Pantazis     : SARC Basis sets
   Anastasios Papadopoulos: AUTO-CI, single reference methods and gradients
   Taras Petrenko         : DFT Hessian,TD-DFT gradient, ASA, ECA, R-Raman, ABS, FL, XAS/XES, NRVS
   Peter Pinski           : DLPNO-MP2, DLPNO-MP2 Gradient
   Christoph Reimann      : Effective Core Potentials
   Marius Retegan         : Local ZFS, SOC
   Christoph Riplinger    : Optimizer, TS searches, QM/MM, DLPNO-CCSD(T), (RO)-DLPNO pert. Triples
   Tobias Risthaus        : Range-separated hybrids, TD-DFT gradient, RPA, STAB
   Michael Roemelt        : Original ROCIS implementation
   Masaaki Saitow         : Open-shell DLPNO-CCSD energy and density
   Barbara Sandhoefer     : DKH picture change effects
   Avijit Sen             : IP-ROCIS
   Kantharuban Sivalingam : CASSCF convergence, NEVPT2, FIC-MRCI
   Bernardo de Souza      : ESD, SOC TD-DFT
   Georgi Stoychev        : AutoAux, RI-MP2 NMR, DLPNO-MP2 response
   Willem Van den Heuvel  : Paramagnetic NMR
   Boris Wezisla          : Elementary symmetry handling
   Frank Wennmohs         : Technical directorship


 We gratefully acknowledge several colleagues who have allowed us to
 interface, adapt or use parts of their codes:
   Stefan Grimme, W. Hujo, H. Kruse, P. Pracht,  : VdW corrections, initial TS optimization,
                  C. Bannwarth, S. Ehlert          DFT functionals, gCP, sTDA/sTD-DF
   Ed Valeev, F. Pavosevic, A. Kumar             : LibInt (2-el integral package), F12 methods
   Garnet Chan, S. Sharma, J. Yang, R. Olivares  : DMRG
   Ulf Ekstrom                                   : XCFun DFT Library
   Mihaly Kallay                                 : mrcc  (arbitrary order and MRCC methods)
   Jiri Pittner, Ondrej Demel                    : Mk-CCSD
   Frank Weinhold                                : gennbo (NPA and NBO analysis)
   Christopher J. Cramer and Donald G. Truhlar   : smd solvation model
   Lars Goerigk                                  : TD-DFT with DH, B97 family of functionals
   V. Asgeirsson, H. Jonsson                     : NEB implementation
   FAccTs GmbH                                   : IRC, NEB, NEB-TS, DLPNO-Multilevel, CI-OPT
                                                   MM, QMMM, 2- and 3-layer-ONIOM, Crystal-QMMM,
                                                   LR-CPCM, SF, NACMEs, symmetry and pop. for TD-DFT,
                                                   nearIR, NL-DFT gradient (VV10), updates on ESD,
                                                   ML-optimized integration grids
   S Lehtola, MJT Oliveira, MAL Marques          : LibXC Library
   Liviu Ungur et al                             : ANISO software


 Your calculation uses the libint2 library for the computation of 2-el integrals
 For citations please refer to: http://libint.valeyev.net

 Your ORCA version has been built with support for libXC version: 5.1.0
 For citations please refer to: https://tddft.org/programs/libxc/

 This ORCA versions uses:
   CBLAS   interface :  Fast vector & matrix operations
   LAPACKE interface :  Fast linear algebra routines
   SCALAPACK package :  Parallel linear algebra routines
   Shared memory     :  Shared parallel matrices
   BLAS/LAPACK       :  OpenBLAS 0.3.15  USE64BITINT DYNAMIC_ARCH NO_AFFINITY Zen SINGLE_THREADED
        Core in use  :  Zen
   Copyright (c) 2011-2014, The OpenBLAS Project




***************************************
The coordinates will be read from file: opt.xyz
***************************************


XCFun DFT library Copyright 2009-2010 Ulf Ekstrom and contributors.
See http://admol.org/xcfun for more information.
This is free software; see the source code for copying conditions.
There is ABSOLUTELY NO WARRANTY; not even for MERCHANTABILITY or FITNESS FOR A PARTICULAR PURPOSE.
For details see the documentation.
Scientific users of this library should cite U. Ekstrom, L. Visscher, R. Bast, A. J. Thorvaldsen and K. Ruud;
J.Chem.Theor.Comp. 2010, DOI: 10.1021/ct100117s
XCFun Version 0.99 

================================================================================

----- Orbital basis set information -----
Your calculation utilizes the basis: def2-TZVP
   F. Weigend and R. Ahlrichs, Phys. Chem. Chem. Phys. 7, 3297 (2005).

----- AuxJ basis set information -----
Your calculation utilizes the auxiliary basis: def2/J
   F. Weigend, Phys. Chem. Chem. Phys. 8, 1057 (2006).

================================================================================
                                        WARNINGS
                       Please study these warnings very carefully!
================================================================================


WARNING: your system is open-shell and RHF/RKS was chosen
  ===> : WILL SWITCH to UHF/UKS


WARNING: Geometry Optimization
  ===> : Switching off AutoStart
         For restart on a previous wavefunction, please use MOREAD

WARNING: Minnesota functionals are quite sensitive to the integration grid.
         see SE Wheeler, KN Houk, JCTC 2010, 6, 395,
             N Mardirossian, M Head-Gordon, JCTC 2016, 12, 4303.
         DEFGRID3 seems to be a minimum grid for reliable results with these functionals!
  ===> : Please increase the integration grid!


INFO   : the flag for use of the SHARK integral package has been found!

================================================================================
                                       INPUT FILE
================================================================================
NAME = freq.inp
|  1> ! M062X def2-TZVP OPT FREQ
|  2> %pal nprocs 16 end
|  3> *XYZFile 0 2 opt.xyz
|  4> 
|  5>                          ****END OF INPUT****
================================================================================

                       *****************************
                       * Geometry Optimization Run *
                       *****************************

Geometry optimization settings:
Update method            Update   .... BFGS
Choice of coordinates    CoordSys .... Z-matrix Internals
Initial Hessian          InHess   .... Almoef's Model

Convergence Tolerances:
Energy Change            TolE     ....  5.0000e-06 Eh
Max. Gradient            TolMAXG  ....  3.0000e-04 Eh/bohr
RMS Gradient             TolRMSG  ....  1.0000e-04 Eh/bohr
Max. Displacement        TolMAXD  ....  4.0000e-03 bohr
RMS Displacement         TolRMSD  ....  2.0000e-03 bohr
Strict Convergence                ....  False
------------------------------------------------------------------------------
                        ORCA OPTIMIZATION COORDINATE SETUP
------------------------------------------------------------------------------

The optimization will be done in new redundant internal coordinates
Making redundant internal coordinates   ...  (new redundants) done
Evaluating the initial hessian          ...  (Almloef) done
Evaluating the coordinates              ...  done
Calculating the B-matrix                .... done
Calculating the G-matrix                .... done
Diagonalizing the G-matrix              .... done
Small eigenvalue found = 6.913e-03
Small eigenvalue found = 7.016e-03
Small eigenvalue found = 1.653e-02
The first mode is                       ....   45
The number of degrees of freedom        ....   75

    -----------------------------------------------------------------
                    Redundant Internal Coordinates


    -----------------------------------------------------------------
         Definition                    Initial Value    Approx d2E/dq
    -----------------------------------------------------------------
      1. B(C   1,N   0)                  1.3837         0.572771   
      2. B(C   2,C   1)                  1.4779         0.452322   
      3. B(O   3,C   2)                  1.2468         0.946981   
      4. B(C   4,C   1)                  1.5034         0.411967   
      5. B(H   5,C   4)                  1.0934         0.355670   
      6. B(H   6,C   4)                  1.0923         0.357099   
      7. B(C   7,C   4)                  1.5468         0.351227   
      8. B(H   8,C   7)                  1.0923         0.357015   
      9. B(H   9,C   7)                  1.0978         0.349959   
     10. B(C  10,C   7)                  1.5190         0.389023   
     11. B(O  11,C  10)                  1.3583         0.628703   
     12. B(O  12,C  10)                  1.2160         1.060234   
     13. B(H  13,N   0)                  1.0197         0.417547   
     14. B(C  14,N   0)                  1.3843         0.571380   
     15. B(N  15,C   2)                  1.3747         0.592000   
     16. B(H  16,O  11)                  0.9713         0.498793   
     17. B(H  17,N  15)                  1.0074         0.436879   
     18. B(O  18,C  14)                  1.2298         1.008059   
     19. B(C  19,C  14)                  1.5238         0.382211   
     20. B(H  20,C  19)                  1.0932         0.355942   
     21. B(H  21,C  19)                  1.0943         0.354479   
     22. B(H  22,C  19)                  1.0928         0.356467   
     23. B(C  23,N  15)                  1.4580         0.435923   
     24. B(H  24,C  23)                  1.0975         0.350290   
     25. B(H  25,C  23)                  1.0932         0.355895   
     26. B(H  26,C  23)                  1.0902         0.359843   
     27. A(H  13,N   0,C  14)          118.9770         0.351601   
     28. A(C   1,N   0,H  13)          110.6622         0.351746   
     29. A(C   1,N   0,C  14)          130.3537         0.416272   
     30. A(C   2,C   1,C   4)          125.9899         0.381904   
     31. A(N   0,C   1,C   4)          123.0892         0.395439   
     32. A(N   0,C   1,C   2)          110.9209         0.401989   
     33. A(C   1,C   2,N  15)          117.5887         0.404338   
     34. A(C   1,C   2,O   3)          120.1848         0.439714   
     35. A(O   3,C   2,N  15)          122.2093         0.458673   
     36. A(C   1,C   4,C   7)          113.6934         0.365605   
     37. A(C   1,C   4,H   6)          109.5224         0.329132   
     38. A(C   1,C   4,H   5)          110.0040         0.328914   
     39. A(H   6,C   4,C   7)          108.2917         0.320617   
     40. A(H   5,C   4,H   6)          106.4488         0.289894   
     41. A(H   5,C   4,C   7)          108.6130         0.320407   
     42. A(H   8,C   7,C  10)          109.2286         0.326025   
     43. A(C   4,C   7,C  10)          111.8795         0.362040   
     44. A(H   8,C   7,H   9)          107.1537         0.289149   
     45. A(C   4,C   7,H   9)          111.1246         0.319561   
     46. A(C   4,C   7,H   8)          110.5824         0.320605   
     47. A(H   9,C   7,C  10)          106.6830         0.324957   
     48. A(O  11,C  10,O  12)          122.2893         0.473445   
     49. A(C   7,C  10,O  12)          125.8014         0.436727   
     50. A(C   7,C  10,O  11)          111.8929         0.397937   
     51. A(C  10,O  11,H  16)          106.4076         0.368364   
     52. A(O  18,C  14,C  19)          121.9193         0.431406   
     53. A(N   0,C  14,C  19)          114.6688         0.390117   
     54. A(N   0,C  14,O  18)          123.4104         0.460943   
     55. A(C   2,N  15,H  17)          118.4743         0.356443   
     56. A(H  17,N  15,C  23)          118.0412         0.338544   
     57. A(C   2,N  15,C  23)          121.5255         0.399140   
     58. A(C  14,C  19,H  21)          108.3672         0.324698   
     59. A(C  14,C  19,H  20)          108.5581         0.324918   
     60. A(H  21,C  19,H  22)          109.0440         0.289661   
     61. A(H  20,C  19,H  22)          109.4436         0.289848   
     62. A(C  14,C  19,H  22)          113.7398         0.324997   
     63. A(H  20,C  19,H  21)          107.5018         0.289594   
     64. A(H  24,C  23,H  26)          108.2947         0.289549   
     65. A(N  15,C  23,H  26)          108.4964         0.330641   
     66. A(H  24,C  23,H  25)          109.0435         0.289049   
     67. A(N  15,C  23,H  25)          109.5535         0.330038   
     68. A(H  25,C  23,H  26)          109.4213         0.290271   
     69. A(N  15,C  23,H  24)          111.9926         0.329174   
     70. D(C   2,C   1,N   0,C  14)    176.9805         0.026271   
     71. D(C   4,C   1,N   0,H  13)    177.9008         0.026271   
     72. D(C   4,C   1,N   0,C  14)     -3.1020         0.026271   
     73. D(C   2,C   1,N   0,H  13)     -2.0167         0.026271   
     74. D(N  15,C   2,C   1,N   0)   -177.7146         0.013944   
     75. D(N  15,C   2,C   1,C   4)      2.3708         0.013944   
     76. D(O   3,C   2,C   1,C   4)   -179.1056         0.013944   
     77. D(O   3,C   2,C   1,N   0)      0.8089         0.013944   
     78. D(H   6,C   4,C   1,N   0)    -39.5784         0.012565   
     79. D(H   6,C   4,C   1,C   2)    140.3263         0.012565   
     80. D(C   7,C   4,C   1,C   2)    -98.3922         0.012565   
     81. D(C   7,C   4,C   1,N   0)     81.7030         0.012565   
     82. D(H   5,C   4,C   1,C   2)     23.6599         0.012565   
     83. D(H   5,C   4,C   1,N   0)   -156.2449         0.012565   
     84. D(H   8,C   7,C   4,C   1)    -72.0664         0.009933   
     85. D(C  10,C   7,C   4,H   5)     43.1157         0.009933   
     86. D(C  10,C   7,C   4,C   1)    165.9347         0.009933   
     87. D(H   9,C   7,C   4,H   6)    168.7701         0.009933   
     88. D(H   9,C   7,C   4,H   5)    -76.0149         0.009933   
     89. D(H   9,C   7,C   4,C   1)     46.8041         0.009933   
     90. D(H   8,C   7,C   4,H   6)     49.8996         0.009933   
     91. D(C  10,C   7,C   4,H   6)    -72.0993         0.009933   
     92. D(H   8,C   7,C   4,H   5)    165.1146         0.009933   
     93. D(O  12,C  10,C   7,H   9)    104.2091         0.011262   
     94. D(O  12,C  10,C   7,H   8)   -140.2841         0.011262   
     95. D(O  12,C  10,C   7,C   4)    -17.5123         0.011262   
     96. D(O  11,C  10,C   7,H   9)    -74.3359         0.011262   
     97. D(O  11,C  10,C   7,H   8)     41.1709         0.011262   
     98. D(O  11,C  10,C   7,C   4)    163.9428         0.011262   
     99. D(H  16,O  11,C  10,O  12)     -0.0685         0.029059   
    100. D(H  16,O  11,C  10,C   7)    178.5355         0.029059   
    101. D(C  19,C  14,N   0,H  13)     -3.5958         0.026136   
    102. D(C  19,C  14,N   0,C   1)    177.4767         0.026136   
    103. D(O  18,C  14,N   0,H  13)    176.8275         0.026136   
    104. D(O  18,C  14,N   0,C   1)     -2.0999         0.026136   
    105. D(C  23,N  15,C   2,O   3)      7.0653         0.028186   
    106. D(C  23,N  15,C   2,C   1)   -174.4431         0.028186   
    107. D(H  17,N  15,C   2,O   3)    170.8256         0.028186   
    108. D(H  17,N  15,C   2,C   1)    -10.6828         0.028186   
    109. D(H  22,C  19,C  14,O  18)   -175.2922         0.010893   
    110. D(H  22,C  19,C  14,N   0)      5.1241         0.010893   
    111. D(H  21,C  19,C  14,O  18)     63.2673         0.010893   
    112. D(H  21,C  19,C  14,N   0)   -116.3164         0.010893   
    113. D(H  20,C  19,C  14,O  18)    -53.2025         0.010893   
    114. D(H  20,C  19,C  14,N   0)    127.2138         0.010893   
    115. D(H  26,C  23,N  15,H  17)    165.2764         0.016202   
    116. D(H  26,C  23,N  15,C   2)    -30.8956         0.016202   
    117. D(H  25,C  23,N  15,H  17)     45.8769         0.016202   
    118. D(H  25,C  23,N  15,C   2)   -150.2951         0.016202   
    119. D(H  24,C  23,N  15,H  17)    -75.2458         0.016202   
    120. D(H  24,C  23,N  15,C   2)     88.5822         0.016202   
    -----------------------------------------------------------------

Number of atoms                         .... 27
Number of degrees of freedom            .... 120

         *************************************************************
         *                GEOMETRY OPTIMIZATION CYCLE   1            *
         *************************************************************
---------------------------------
CARTESIAN COORDINATES (ANGSTROEM)
---------------------------------
  N      1.485187    1.112645   -0.009513
  C      0.781677   -0.058903    0.207470
  C      1.626076   -1.240226   -0.067765
  O      2.810797   -1.093827   -0.427647
  C     -0.650314   -0.083706    0.664539
  H     -0.867696   -1.032662    1.162218
  H     -0.809460    0.699549    1.409022
  C     -1.671503    0.119113   -0.479402
  H     -1.659327    1.154983   -0.825865
  H     -1.429220   -0.513968   -1.342895
  C     -3.081693   -0.248591   -0.051120
  O     -4.015393    0.245546   -0.904947
  O     -3.378183   -0.924249    0.915501
  H      2.446871    0.909795   -0.281211
  C      1.074959    2.432391    0.070156
  N      1.046540   -2.480367    0.058426
  H     -4.877377   -0.053770   -0.572021
  H      0.136126   -2.543905    0.484971
  O     -0.078248    2.768295    0.334084
  C      2.173636    3.456515   -0.186711
  H      1.831469    4.146719   -0.962303
  H      2.323898    4.037820    0.728144
  H      3.126053    3.013692   -0.488262
  C      1.827801   -3.704100   -0.075096
  H      2.259330   -4.022757    0.882394
  H      1.191593   -4.503823   -0.463376
  H      2.644080   -3.518820   -0.773584

----------------------------
CARTESIAN COORDINATES (A.U.)
----------------------------
  NO LB      ZA    FRAG     MASS         X           Y           Z
   0 N     7.0000    0    14.007    2.806596    2.102594   -0.017976
   1 C     6.0000    0    12.011    1.477156   -0.111311    0.392062
   2 C     6.0000    0    12.011    3.072838   -2.343687   -0.128057
   3 O     8.0000    0    15.999    5.311636   -2.067034   -0.808137
   4 C     6.0000    0    12.011   -1.228915   -0.158182    1.255796
   5 H     1.0000    0     1.008   -1.639708   -1.951449    2.196273
   6 H     1.0000    0     1.008   -1.529658    1.321956    2.662665
   7 C     6.0000    0    12.011   -3.158682    0.225091   -0.905939
   8 H     1.0000    0     1.008   -3.135674    2.182602   -1.560660
   9 H     1.0000    0     1.008   -2.700835   -0.971258   -2.537703
  10 C     6.0000    0    12.011   -5.823556   -0.469770   -0.096603
  11 O     8.0000    0    15.999   -7.587994    0.464014   -1.710102
  12 O     8.0000    0    15.999   -6.383840   -1.746578    1.730047
  13 H     1.0000    0     1.008    4.623917    1.719263   -0.531411
  14 C     6.0000    0    12.011    2.031377    4.596553    0.132576
  15 N     7.0000    0    14.007    1.977673   -4.687215    0.110410
  16 H     1.0000    0     1.008   -9.216907   -0.101611   -1.080963
  17 H     1.0000    0     1.008    0.257240   -4.807284    0.916463
  18 O     8.0000    0    15.999   -0.147867    5.231319    0.631328
  19 C     6.0000    0    12.011    4.107576    6.531866   -0.352834
  20 H     1.0000    0     1.008    3.460974    7.836163   -1.818488
  21 H     1.0000    0     1.008    4.391530    7.630374    1.375993
  22 H     1.0000    0     1.008    5.907385    5.695052   -0.922682
  23 C     6.0000    0    12.011    3.454044   -6.999734   -0.141911
  24 H     1.0000    0     1.008    4.269514   -7.601910    1.667483
  25 H     1.0000    0     1.008    2.251784   -8.510992   -0.875654
  26 H     1.0000    0     1.008    4.996586   -6.649606   -1.461862

--------------------------------
INTERNAL COORDINATES (ANGSTROEM)
--------------------------------
 N      0   0   0     0.000000000000     0.00000000     0.00000000
 C      1   0   0     1.383666140699     0.00000000     0.00000000
 C      2   1   0     1.477932762874   110.92085876     0.00000000
 O      3   2   1     1.246800418891   120.18476710     0.80891691
 C      2   1   3     1.503371198064   123.08919093   179.91747732
 H      5   2   1     1.093369444030   110.00400239   203.75514592
 H      5   2   1     1.092278122392   109.52239003   320.42157528
 C      5   2   1     1.546791522916   113.69337598    81.70303912
 H      8   5   2     1.092342174138   110.58239591   287.93358365
 H      8   5   2     1.097775589571   111.12464916    46.80406425
 C      8   5   2     1.518969568295   111.87945274   165.93466869
 O     11   8   5     1.358303484150   111.89292821   163.94276693
 O     11   8   5     1.216049942732   125.80137215   342.48772913
 H      1   2   3     1.019708457374   110.66219068   357.98329956
 C      1   2   3     1.384328047587   130.35368520   176.98048315
 N      3   2   1     1.374677232447   117.58870781   182.28536543
 H     12  11   8     0.971311527487   106.40757020   178.53551379
 H     16   3   2     1.007388408013   118.47434740   349.31720078
 O     15   1   2     1.229786462553   123.41042721   357.90005400
 C     15   1   2     1.523778766801   114.66884806   177.47674738
 H     20  15   1     1.093161322322   108.55810034   127.21378912
 H     20  15   1     1.094282911112   108.36718771   243.68364627
 H     20  15   1     1.092759996057   113.73983250     5.12408055
 C     16   3   2     1.457985005835   121.52550217   185.55686653
 H     24  16   3     1.097518373376   111.99263094    88.58215890
 H     24  16   3     1.093197371335   109.55350770   209.70486083
 H     24  16   3     1.090194296013   108.49641784   329.10435521

---------------------------
INTERNAL COORDINATES (A.U.)
---------------------------
 N      0   0   0     0.000000000000     0.00000000     0.00000000
 C      1   0   0     2.614750066701     0.00000000     0.00000000
 C      2   1   0     2.792888166182   110.92085876     0.00000000
 O      3   2   1     2.356111335362   120.18476710     0.80891691
 C      2   1   3     2.840959841967   123.08919093   179.91747732
 H      5   2   1     2.066168812414   110.00400239   203.75514592
 H      5   2   1     2.064106513395   109.52239003   320.42157528
 C      5   2   1     2.923012364582   113.69337598    81.70303912
 H      8   5   2     2.064227553652   110.58239591   287.93358365
 H      8   5   2     2.074495220793   111.12464916    46.80406425
 C      8   5   2     2.870436489838   111.87945274   165.93466869
 O     11   8   5     2.566821591795   111.89292821   163.94276693
 O     11   8   5     2.298001356934   125.80137215   342.48772913
 H      1   2   3     1.926969720880   110.66219068   357.98329956
 C      1   2   3     2.616000889445   130.35368520   176.98048315
 N      3   2   1     2.597763491861   117.58870781   182.28536543
 H     12  11   8     1.835512777670   106.40757020   178.53551379
 H     16   3   2     1.903688201631   118.47434740   349.31720078
 O     15   1   2     2.323959617429   123.41042721   357.90005400
 C     15   1   2     2.879524557938   114.66884806   177.47674738
 H     20  15   1     2.065775519383   108.55810034   127.21378912
 H     20  15   1     2.067895015032   108.36718771   243.68364627
 H     20  15   1     2.065017122653   113.73983250     5.12408055
 C     16   3   2     2.755192368391   121.52550217   185.55686653
 H     24  16   3     2.074009152626   111.99263094    88.58215890
 H     24  16   3     2.065843642145   109.55350770   209.70486083
 H     24  16   3     2.060168652227   108.49641784   329.10435521

---------------------
BASIS SET INFORMATION
---------------------
There are 4 groups of distinct atoms

 Group   1 Type N   : 11s6p2d1f contracted to 5s3p2d1f pattern {62111/411/11/1}
 Group   2 Type C   : 11s6p2d1f contracted to 5s3p2d1f pattern {62111/411/11/1}
 Group   3 Type O   : 11s6p2d1f contracted to 5s3p2d1f pattern {62111/411/11/1}
 Group   4 Type H   : 5s1p contracted to 3s1p pattern {311/1}

Atom   0N    basis set group =>   1
Atom   1C    basis set group =>   2
Atom   2C    basis set group =>   2
Atom   3O    basis set group =>   3
Atom   4C    basis set group =>   2
Atom   5H    basis set group =>   4
Atom   6H    basis set group =>   4
Atom   7C    basis set group =>   2
Atom   8H    basis set group =>   4
Atom   9H    basis set group =>   4
Atom  10C    basis set group =>   2
Atom  11O    basis set group =>   3
Atom  12O    basis set group =>   3
Atom  13H    basis set group =>   4
Atom  14C    basis set group =>   2
Atom  15N    basis set group =>   1
Atom  16H    basis set group =>   4
Atom  17H    basis set group =>   4
Atom  18O    basis set group =>   3
Atom  19C    basis set group =>   2
Atom  20H    basis set group =>   4
Atom  21H    basis set group =>   4
Atom  22H    basis set group =>   4
Atom  23C    basis set group =>   2
Atom  24H    basis set group =>   4
Atom  25H    basis set group =>   4
Atom  26H    basis set group =>   4
---------------------------------
AUXILIARY/J BASIS SET INFORMATION
---------------------------------
There are 4 groups of distinct atoms

 Group   1 Type N   : 12s5p4d2f1g contracted to 6s4p3d1f1g pattern {711111/2111/211/2/1}
 Group   2 Type C   : 12s5p4d2f1g contracted to 6s4p3d1f1g pattern {711111/2111/211/2/1}
 Group   3 Type O   : 12s5p4d2f1g contracted to 6s4p3d1f1g pattern {711111/2111/211/2/1}
 Group   4 Type H   : 5s2p1d contracted to 3s1p1d pattern {311/2/1}

Atom   0N    basis set group =>   1
Atom   1C    basis set group =>   2
Atom   2C    basis set group =>   2
Atom   3O    basis set group =>   3
Atom   4C    basis set group =>   2
Atom   5H    basis set group =>   4
Atom   6H    basis set group =>   4
Atom   7C    basis set group =>   2
Atom   8H    basis set group =>   4
Atom   9H    basis set group =>   4
Atom  10C    basis set group =>   2
Atom  11O    basis set group =>   3
Atom  12O    basis set group =>   3
Atom  13H    basis set group =>   4
Atom  14C    basis set group =>   2
Atom  15N    basis set group =>   1
Atom  16H    basis set group =>   4
Atom  17H    basis set group =>   4
Atom  18O    basis set group =>   3
Atom  19C    basis set group =>   2
Atom  20H    basis set group =>   4
Atom  21H    basis set group =>   4
Atom  22H    basis set group =>   4
Atom  23C    basis set group =>   2
Atom  24H    basis set group =>   4
Atom  25H    basis set group =>   4
Atom  26H    basis set group =>   4


           ************************************************************
           *        Program running with 16 parallel MPI-processes    *
           *              working on a common directory               *
           ************************************************************
------------------------------------------------------------------------------
                           ORCA GTO INTEGRAL CALCULATION
                           -- RI-GTO INTEGRALS CHOSEN --
------------------------------------------------------------------------------
------------------------------------------------------------------------------
                   ___                                                        
                  /   \      - P O W E R E D   B Y -                         
                 /     \                                                     
                 |  |  |   _    _      __       _____    __    __             
                 |  |  |  | |  | |    /  \     |  _  \  |  |  /  |          
                  \  \/   | |  | |   /    \    | | | |  |  | /  /          
                 / \  \   | |__| |  /  /\  \   | |_| |  |  |/  /          
                |  |  |   |  __  | /  /__\  \  |    /   |      \           
                |  |  |   | |  | | |   __   |  |    \   |  |\   \          
                \     /   | |  | | |  |  |  |  | |\  \  |  | \   \       
                 \___/    |_|  |_| |__|  |__|  |_| \__\ |__|  \__/        
                                                                              
                      - O R C A' S   B I G   F R I E N D -                    
                                      &                                       
                       - I N T E G R A L  F E E D E R -                       
                                                                              
 v1 FN, 2020, v2 2021                                                         
------------------------------------------------------------------------------


Reading SHARK input file freq.SHARKINP.tmp ... ok
----------------------
SHARK INTEGRAL PACKAGE
----------------------

Number of atoms                             ...     27
Number of basis functions                   ...    512
Number of shells                            ...    206
Maximum angular momentum                    ...      3
Integral batch strategy                     ... SHARK/LIBINT Hybrid
RI-J (if used) integral strategy            ... SPLIT-RIJ (Revised 2003 algorithm where possible)
Printlevel                                  ...      1
Contraction scheme used                     ... SEGMENTED contraction
Coulomb Range Separation                    ... NOT USED
Exchange Range Separation                   ... NOT USED
Finite Nucleus Model                        ... NOT USED
Auxiliary Coulomb fitting basis             ... AVAILABLE
   # of basis functions in Aux-J            ...    829
   # of shells in Aux-J                     ...    275
   Maximum angular momentum in Aux-J        ...      4
Auxiliary J/K fitting basis                 ... NOT available
Auxiliary Correlation fitting basis         ... NOT available
Auxiliary 'external' fitting basis          ... NOT available
Integral threshold                          ...     2.500000e-11
Primitive cut-off                           ...     2.500000e-12
Primitive pair pre-selection threshold      ...     2.500000e-12

Calculating pre-screening integrals         ... done (  0.0 sec) Dimension = 206
Organizing shell pair data                  ... done (  0.1 sec)
Shell pair information
Total number of shell pairs                 ...     21321
Shell pairs after pre-screening             ...     16278
Total number of primitive shell pairs       ...     64608
Primitive shell pairs kept                  ...     34207
          la=0 lb=0:   4477 shell pairs
          la=1 lb=0:   4717 shell pairs
          la=1 lb=1:   1279 shell pairs
          la=2 lb=0:   2267 shell pairs
          la=2 lb=1:   1214 shell pairs
          la=2 lb=2:    307 shell pairs
          la=3 lb=0:   1084 shell pairs
          la=3 lb=1:    584 shell pairs
          la=3 lb=2:    276 shell pairs
          la=3 lb=3:     73 shell pairs

Calculating one electron integrals          ... done (  0.0 sec)
Calculating RI/J V-Matrix + Cholesky decomp.... done (  0.0 sec)
Calculating Nuclear repulsion               ... done (  0.0 sec) ENN=    905.599342112037 Eh

SHARK setup successfully completed in   0.3 seconds

Maximum memory used throughout the entire GTOINT-calculation: 28.5 MB


           ************************************************************
           *        Program running with 16 parallel MPI-processes    *
           *              working on a common directory               *
           ************************************************************
-------------------------------------------------------------------------------
                                 ORCA SCF
-------------------------------------------------------------------------------

------------
SCF SETTINGS
------------
Hamiltonian:
 Density Functional     Method          .... DFT(GTOs)
 Exchange Functional    Exchange        .... M062X
 Correlation Functional Correlation     .... M062X
 Gradients option       PostSCFGGA      .... off
 Hybrid DFT is turned on
   Fraction HF Exchange ScalHFX         ....  0.540000
   Scaling of DF-GGA-X  ScalDFX         ....  0.460000
   Scaling of DF-GGA-C  ScalDFC         ....  1.000000
   Scaling of DF-LDA-C  ScalLDAC        ....  1.000000
   Perturbative correction              ....  0.000000
   Density functional embedding theory  .... OFF
 RI-approximation to the Coulomb term is turned on
   Number of AuxJ basis functions       .... 829
   RIJ-COSX (HFX calculated with COS-X)).... on


General Settings:
 Integral files         IntName         .... freq
 Hartree-Fock type      HFTyp           .... UHF
 Total Charge           Charge          ....    0
 Multiplicity           Mult            ....    2
 Number of Electrons    NEL             ....  107
 Basis Dimension        Dim             ....  512
 Nuclear Repulsion      ENuc            ....    905.5993421120 Eh

Convergence Acceleration:
 DIIS                   CNVDIIS         .... on
   Start iteration      DIISMaxIt       ....    12
   Startup error        DIISStart       ....  0.200000
   # of expansion vecs  DIISMaxEq       ....     5
   Bias factor          DIISBfac        ....   1.050
   Max. coefficient     DIISMaxC        ....  10.000
 Trust-Rad. Augm. Hess. CNVTRAH         .... auto
   Auto Start mean grad. ratio tolernc. ....  1.125000
   Auto Start start iteration           ....    20
   Auto Start num. interpolation iter.  ....    10
   Max. Number of Micro iterations      ....    16
   Max. Number of Macro iterations      .... Maxiter - #DIIS iter
   Number of Davidson start vectors     ....     2
   Converg. threshold I  (grad. norm)   ....   1.000e-05
   Converg. threshold II (energy diff.) ....   1.000e-08
   Grad. Scal. Fac. for Micro threshold ....   0.100
   Minimum threshold for Micro iter.    ....   0.010
   NR start threshold (gradient norm)   ....   0.001
   Initial trust radius                 ....   0.400
   Minimum AH scaling param. (alpha)    ....   1.000
   Maximum AH scaling param. (alpha)    .... 1000.000
   Orbital update algorithm             .... Taylor
   White noise on init. David. guess    .... on
   Maximum white noise                  ....   0.010
   Quad. conv. algorithm                .... NR
 SOSCF                  CNVSOSCF        .... off
 Level Shifting         CNVShift        .... on
   Level shift para.    LevelShift      ....    0.2500
   Turn off err/grad.   ShiftErr        ....    0.0010
 Zerner damping         CNVZerner       .... off
 Static damping         CNVDamp         .... on
   Fraction old density DampFac         ....    0.7000
   Max. Damping (<1)    DampMax         ....    0.9800
   Min. Damping (>=0)   DampMin         ....    0.0000
   Turn off err/grad.   DampErr         ....    0.1000
 Fernandez-Rico         CNVRico         .... off

SCF Procedure:
 Maximum # iterations   MaxIter         ....   125
 SCF integral mode      SCFMode         .... Direct
   Integral package                     .... SHARK and LIBINT hybrid scheme
 Reset frequency        DirectResetFreq ....    20
 Integral Threshold     Thresh          ....  2.500e-11 Eh
 Primitive CutOff       TCut            ....  2.500e-12 Eh

Convergence Tolerance:
 Convergence Check Mode ConvCheckMode   .... Total+1el-Energy
 Convergence forced     ConvForced      .... 0
 Energy Change          TolE            ....  1.000e-08 Eh
 1-El. energy change                    ....  1.000e-05 Eh
 DIIS Error             TolErr          ....  5.000e-07


Diagonalization of the overlap matrix:
Smallest eigenvalue                        ... 5.336e-05
Time for diagonalization                   ...    0.039 sec
Threshold for overlap eigenvalues          ... 1.000e-08
Number of eigenvalues below threshold      ... 0
Time for construction of square roots      ...    0.022 sec
Total time needed                          ...    0.063 sec

Time for model grid setup =    0.093 sec

------------------------------
INITIAL GUESS: MODEL POTENTIAL
------------------------------
Loading Hartree-Fock densities                     ... done
Calculating cut-offs                               ... done
Initializing the effective Hamiltonian             ... done
Setting up the integral package (SHARK)            ... done
Starting the Coulomb interaction                   ... done (   0.1 sec)
Reading the grid                                   ... done
Mapping shells                                     ... done
Starting the XC term evaluation                    ... done (   0.1 sec)
  promolecular density results
     # of electrons  =    106.992643315
     EX              =    -90.429691634
     EC              =     -3.581683866
     EX+EC           =    -94.011375500
Transforming the Hamiltonian                       ... done (   0.0 sec)
Diagonalizing the Hamiltonian                      ... done (   0.0 sec)
Back transforming the eigenvectors                 ... done (   0.0 sec)
Now organizing SCF variables                       ... done
                      ------------------
                      INITIAL GUESS DONE (   0.4 sec)
                      ------------------
-------------------
DFT GRID GENERATION
-------------------

General Integration Accuracy     IntAcc      ... 4.388
Radial Grid Type                 RadialGrid  ... OptM3 with GC (2021)
Angular Grid (max. ang.)         AngularGrid ... 4 (Lebedev-302)
Angular grid pruning method      GridPruning ... 4 (adaptive)
Weight generation scheme         WeightScheme... Becke
Basis function cutoff            BFCut       ... 1.0000e-11
Integration weight cutoff        WCut        ... 1.0000e-14
Angular grids for H and He will be reduced by one unit
Partially contracted basis set               ... off
Rotationally invariant grid construction     ... off

Total number of grid points                  ...   125983
Total number of batches                      ...     1984
Average number of points per batch           ...       63
Average number of grid points per atom       ...     4666
Time for grid setup =    0.552 sec

--------------------
COSX GRID GENERATION
--------------------

GRIDX 1
-------
General Integration Accuracy     IntAcc      ... 3.816
Radial Grid Type                 RadialGrid  ... OptM3 with GC (2021)
Angular Grid (max. ang.)         AngularGrid ... 1 (Lebedev-50)
Angular grid pruning method      GridPruning ... 4 (adaptive)
Weight generation scheme         WeightScheme... Becke
Basis function cutoff            BFCut       ... 1.0000e-11
Integration weight cutoff        WCut        ... 1.0000e-14
Angular grids for H and He will be reduced by one unit
Partially contracted basis set               ... on
Rotationally invariant grid construction     ... off

Total number of grid points                  ...    16071
Total number of batches                      ...      265
Average number of points per batch           ...       60
Average number of grid points per atom       ...      595
UseSFitting                                  ... on

GRIDX 2
-------
General Integration Accuracy     IntAcc      ... 4.020
Radial Grid Type                 RadialGrid  ... OptM3 with GC (2021)
Angular Grid (max. ang.)         AngularGrid ... 2 (Lebedev-110)
Angular grid pruning method      GridPruning ... 4 (adaptive)
Weight generation scheme         WeightScheme... Becke
Basis function cutoff            BFCut       ... 1.0000e-11
Integration weight cutoff        WCut        ... 1.0000e-14
Angular grids for H and He will be reduced by one unit
Partially contracted basis set               ... on
Rotationally invariant grid construction     ... off

Total number of grid points                  ...    34811
Total number of batches                      ...      557
Average number of points per batch           ...       62
Average number of grid points per atom       ...     1289
UseSFitting                                  ... on

GRIDX 3
-------
General Integration Accuracy     IntAcc      ... 4.338
Radial Grid Type                 RadialGrid  ... OptM3 with GC (2021)
Angular Grid (max. ang.)         AngularGrid ... 3 (Lebedev-194)
Angular grid pruning method      GridPruning ... 4 (adaptive)
Weight generation scheme         WeightScheme... Becke
Basis function cutoff            BFCut       ... 1.0000e-11
Integration weight cutoff        WCut        ... 1.0000e-14
Angular grids for H and He will be reduced by one unit
Partially contracted basis set               ... on
Rotationally invariant grid construction     ... off

Total number of grid points                  ...    76233
Total number of batches                      ...     1206
Average number of points per batch           ...       63
Average number of grid points per atom       ...     2823
UseSFitting                                  ... on

Time for X-Grid setup             =    0.800 sec

--------------
SCF ITERATIONS
--------------
ITER       Energy         Delta-E        Max-DP      RMS-DP      [F,P]     Damp
               ***  Starting incremental Fock matrix formation  ***
  0   -722.5826551756   0.000000000000 0.05431278  0.00051177  0.1537486 0.7000
  1   -722.8102335977  -0.227578422058 0.05214214  0.00041358  0.0729149 0.7000
                               ***Turning on DIIS***
  2   -722.9064420079  -0.096208410277 0.08361263  0.00074501  0.0272377 0.0000
  3   -723.0645349953  -0.158092987385 0.04481769  0.00029570  0.0372751 0.0000
  4   -723.0926601762  -0.028125180900 0.01496721  0.00008623  0.0067879 0.0000
  5   -723.0940314630  -0.001371286832 0.00559471  0.00003862  0.0027405 0.0000
  6   -723.0942887240  -0.000257260924 0.00236864  0.00001899  0.0021478 0.0000
  7   -723.0943879858  -0.000099261819 0.00131776  0.00001364  0.0011117 0.0000
  8   -723.0944393815  -0.000051395726 0.00113487  0.00001375  0.0008310 0.0000
               *** Restarting incremental Fock matrix formation ***
                                   *** Resetting DIIS ***
  9   -723.0945449659  -0.000105584357 0.00035231  0.00000530  0.0002416 0.0000
 10   -723.0945471077  -0.000002141836 0.00015837  0.00000147  0.0002271 0.0000
 11   -723.0945481070  -0.000000999300 0.00013498  0.00000168  0.0001562 0.0000
 12   -723.0945487480  -0.000000640949 0.00012953  0.00000094  0.0000994 0.0000
 13   -723.0945489514  -0.000000203410 0.00004852  0.00000047  0.0000537 0.0000
 14   -723.0945489890  -0.000000037659 0.00001884  0.00000013  0.0000171 0.0000
 15   -723.0945489888   0.000000000256 0.00001179  0.00000009  0.0000094 0.0000
 16   -723.0945489863   0.000000002459 0.00000610  0.00000005  0.0000046 0.0000
 17   -723.0945489761   0.000000010201 0.00000502  0.00000004  0.0000045 0.0000
 18   -723.0945489836  -0.000000007461 0.00000274  0.00000002  0.0000016 0.0000
                            ***DIIS convergence achieved***

               *****************************************************
               *                     SUCCESS                       *
               *           SCF CONVERGED AFTER  19 CYCLES          *
               *****************************************************

Old exchange energy                            =    -49.792730257 Eh
New exchange energy                            =    -49.792745656 Eh
Exchange energy change after final integration =     -0.000015399 Eh
Total energy after final integration           =   -723.094564385 Eh
Final COS-X integration done in                =     4.047 sec

----------------
TOTAL SCF ENERGY
----------------

Total Energy       :         -723.09456438 Eh          -19676.40343 eV

Components:
Nuclear Repulsion  :          905.59934211 Eh           24642.61090 eV
Electronic Energy  :        -1628.69390650 Eh          -44319.01433 eV
One Electron Energy:        -2782.93840575 Eh          -75727.60394 eV
Two Electron Energy:         1154.24449925 Eh           31408.58961 eV
Max COSX asymmetry :            0.00000381 Eh               0.00010 eV

Virial components:
Potential Energy   :        -1442.41653182 Eh          -39250.14927 eV
Kinetic Energy     :          719.32196744 Eh           19573.74584 eV
Virial Ratio       :            2.00524466


DFT components:
N(Alpha)           :       53.999997574741 electrons
N(Beta)            :       52.999991466605 electrons
N(Total)           :      106.999989041346 electrons
E(XC)              :      -46.406722109210 Eh       
DFET-embed. en.    :        0.000000000000 Eh       

---------------
SCF CONVERGENCE
---------------

  Last Energy change         ...   -2.3970e-09  Tolerance :   1.0000e-08
  Last MAX-Density change    ...    0.0000e+00  Tolerance :   1.0000e-07
  Last RMS-Density change    ...    0.0000e+00  Tolerance :   5.0000e-09
  Last DIIS Error            ...    5.6620e-07  Tolerance :   5.0000e-07

             **** THE GBW FILE WAS UPDATED (freq.gbw) ****
             **** DENSITY freq.scfp WAS UPDATED ****
             **** ENERGY FILE WAS UPDATED (freq.en.tmp) ****
----------------------
UHF SPIN CONTAMINATION
----------------------

Warning: in a DFT calculation there is little theoretical justification to 
         calculate <S**2> as in Hartree-Fock theory. We will do it anyways
         but you should keep in mind that the values have only limited relevance

Expectation value of <S**2>     :     0.757554
Ideal value S*(S+1) for S=0.5   :     0.750000
Deviation                       :     0.007554

             **** THE GBW FILE WAS UPDATED (freq.gbw) ****
             **** DENSITY freq.scfp WAS UPDATED ****
----------------
ORBITAL ENERGIES
----------------
                 SPIN UP ORBITALS
  NO   OCC          E(Eh)            E(eV) 
   0   1.0000     -19.680687      -535.5387 
   1   1.0000     -19.628990      -534.1320 
   2   1.0000     -19.611423      -533.6540 
   3   1.0000     -19.598796      -533.3104 
   4   1.0000     -14.806100      -402.8945 
   5   1.0000     -14.782917      -402.2636 
   6   1.0000     -10.688764      -290.8561 
   7   1.0000     -10.664859      -290.2056 
   8   1.0000     -10.653994      -289.9099 
   9   1.0000     -10.610243      -288.7194 
  10   1.0000     -10.575049      -287.7617 
  11   1.0000     -10.564881      -287.4850 
  12   1.0000     -10.564456      -287.4735 
  13   1.0000     -10.553629      -287.1789 
  14   1.0000      -1.239842       -33.7378 
  15   1.0000      -1.176313       -32.0091 
  16   1.0000      -1.161038       -31.5935 
  17   1.0000      -1.145390       -31.1676 
  18   1.0000      -1.063966       -28.9520 
  19   1.0000      -1.037217       -28.2241 
  20   1.0000      -0.919004       -25.0074 
  21   1.0000      -0.866082       -23.5673 
  22   1.0000      -0.831676       -22.6311 
  23   1.0000      -0.794449       -21.6181 
  24   1.0000      -0.759968       -20.6798 
  25   1.0000      -0.691326       -18.8120 
  26   1.0000      -0.683356       -18.5951 
  27   1.0000      -0.651430       -17.7263 
  28   1.0000      -0.637461       -17.3462 
  29   1.0000      -0.591061       -16.0836 
  30   1.0000      -0.583342       -15.8735 
  31   1.0000      -0.570236       -15.5169 
  32   1.0000      -0.565681       -15.3930 
  33   1.0000      -0.551532       -15.0079 
  34   1.0000      -0.540266       -14.7014 
  35   1.0000      -0.534221       -14.5369 
  36   1.0000      -0.526908       -14.3379 
  37   1.0000      -0.510324       -13.8866 
  38   1.0000      -0.499132       -13.5821 
  39   1.0000      -0.494346       -13.4518 
  40   1.0000      -0.484946       -13.1961 
  41   1.0000      -0.477362       -12.9897 
  42   1.0000      -0.466693       -12.6993 
  43   1.0000      -0.457925       -12.4608 
  44   1.0000      -0.455010       -12.3814 
  45   1.0000      -0.449120       -12.2212 
  46   1.0000      -0.430858       -11.7242 
  47   1.0000      -0.406359       -11.0576 
  48   1.0000      -0.395918       -10.7735 
  49   1.0000      -0.369502       -10.0547 
  50   1.0000      -0.353355        -9.6153 
  51   1.0000      -0.348679        -9.4880 
  52   1.0000      -0.338280        -9.2051 
  53   1.0000      -0.238360        -6.4861 
  54   0.0000       0.034092         0.9277 
  55   0.0000       0.039824         1.0837 
  56   0.0000       0.049200         1.3388 
  57   0.0000       0.065784         1.7901 
  58   0.0000       0.068406         1.8614 
  59   0.0000       0.090631         2.4662 
  60   0.0000       0.095089         2.5875 
  61   0.0000       0.101600         2.7647 
  62   0.0000       0.108516         2.9529 
  63   0.0000       0.116999         3.1837 
  64   0.0000       0.125853         3.4246 
  65   0.0000       0.142080         3.8662 
  66   0.0000       0.146551         3.9878 
  67   0.0000       0.149726         4.0742 
  68   0.0000       0.153178         4.1682 
  69   0.0000       0.160935         4.3793 
  70   0.0000       0.165523         4.5041 
  71   0.0000       0.184856         5.0302 
  72   0.0000       0.191303         5.2056 
  73   0.0000       0.200654         5.4601 
  74   0.0000       0.209315         5.6957 
  75   0.0000       0.214357         5.8330 
  76   0.0000       0.222962         6.0671 
  77   0.0000       0.228937         6.2297 
  78   0.0000       0.234840         6.3903 
  79   0.0000       0.236642         6.4394 
  80   0.0000       0.242431         6.5969 
  81   0.0000       0.255226         6.9450 
  82   0.0000       0.260713         7.0944 
  83   0.0000       0.266120         7.2415 
  84   0.0000       0.275051         7.4845 
  85   0.0000       0.281172         7.6511 
  86   0.0000       0.284072         7.7300 
  87   0.0000       0.297573         8.0974 
  88   0.0000       0.313430         8.5289 
  89   0.0000       0.321433         8.7466 
  90   0.0000       0.326195         8.8762 
  91   0.0000       0.335645         9.1334 
  92   0.0000       0.350104         9.5268 
  93   0.0000       0.362411         9.8617 
  94   0.0000       0.366339         9.9686 
  95   0.0000       0.372514        10.1366 
  96   0.0000       0.382988        10.4216 
  97   0.0000       0.394709        10.7406 
  98   0.0000       0.400511        10.8985 
  99   0.0000       0.408104        11.1051 
 100   0.0000       0.413444        11.2504 
 101   0.0000       0.418059        11.3760 
 102   0.0000       0.422138        11.4870 
 103   0.0000       0.425409        11.5760 
 104   0.0000       0.439841        11.9687 
 105   0.0000       0.442144        12.0314 
 106   0.0000       0.447765        12.1843 
 107   0.0000       0.453060        12.3284 
 108   0.0000       0.467581        12.7235 
 109   0.0000       0.468805        12.7568 
 110   0.0000       0.470696        12.8083 
 111   0.0000       0.477709        12.9991 
 112   0.0000       0.483245        13.1498 
 113   0.0000       0.491393        13.3715 
 114   0.0000       0.493220        13.4212 
 115   0.0000       0.505139        13.7455 
 116   0.0000       0.509441        13.8626 
 117   0.0000       0.511051        13.9064 
 118   0.0000       0.526240        14.3197 
 119   0.0000       0.531604        14.4657 
 120   0.0000       0.535121        14.5614 
 121   0.0000       0.540912        14.7190 
 122   0.0000       0.546516        14.8715 
 123   0.0000       0.555169        15.1069 
 124   0.0000       0.572552        15.5799 
 125   0.0000       0.581671        15.8281 
 126   0.0000       0.591902        16.1065 
 127   0.0000       0.599853        16.3228 
 128   0.0000       0.604513        16.4496 
 129   0.0000       0.609796        16.5934 
 130   0.0000       0.612284        16.6611 
 131   0.0000       0.617972        16.8159 
 132   0.0000       0.625471        17.0199 
 133   0.0000       0.638492        17.3742 
 134   0.0000       0.641662        17.4605 
 135   0.0000       0.656249        17.8575 
 136   0.0000       0.664459        18.0808 
 137   0.0000       0.671324        18.2676 
 138   0.0000       0.676318        18.4035 
 139   0.0000       0.695070        18.9138 
 140   0.0000       0.698678        19.0120 
 141   0.0000       0.709020        19.2934 
 142   0.0000       0.717504        19.5243 
 143   0.0000       0.730888        19.8885 
 144   0.0000       0.742145        20.1948 
 145   0.0000       0.763494        20.7757 
 146   0.0000       0.774331        21.0706 
 147   0.0000       0.788380        21.4529 
 148   0.0000       0.802658        21.8414 
 149   0.0000       0.819887        22.3102 
 150   0.0000       0.823801        22.4168 
 151   0.0000       0.830941        22.6111 
 152   0.0000       0.859324        23.3834 
 153   0.0000       0.875505        23.8237 
 154   0.0000       0.883365        24.0376 
 155   0.0000       0.888322        24.1725 
 156   0.0000       0.888709        24.1830 
 157   0.0000       0.898568        24.4513 
 158   0.0000       0.911967        24.8159 
 159   0.0000       0.926107        25.2007 
 160   0.0000       0.943318        25.6690 
 161   0.0000       0.956025        26.0148 
 162   0.0000       0.964538        26.2464 
 163   0.0000       0.973855        26.4999 
 164   0.0000       0.988020        26.8854 
 165   0.0000       1.005456        27.3598 
 166   0.0000       1.010824        27.5059 
 167   0.0000       1.019499        27.7420 
 168   0.0000       1.042248        28.3610 
 169   0.0000       1.049709        28.5640 
 170   0.0000       1.056957        28.7613 
 171   0.0000       1.058876        28.8135 
 172   0.0000       1.069639        29.1064 
 173   0.0000       1.096883        29.8477 
 174   0.0000       1.105812        30.0907 
 175   0.0000       1.113372        30.2964 
 176   0.0000       1.136421        30.9236 
 177   0.0000       1.139600        31.0101 
 178   0.0000       1.164033        31.6750 
 179   0.0000       1.183711        32.2104 
 180   0.0000       1.225977        33.3605 
 181   0.0000       1.235520        33.6202 
 182   0.0000       1.243873        33.8475 
 183   0.0000       1.256503        34.1912 
 184   0.0000       1.283411        34.9234 
 185   0.0000       1.312944        35.7270 
 186   0.0000       1.323824        36.0231 
 187   0.0000       1.329538        36.1786 
 188   0.0000       1.355371        36.8815 
 189   0.0000       1.358750        36.9735 
 190   0.0000       1.382290        37.6140 
 191   0.0000       1.388160        37.7738 
 192   0.0000       1.399028        38.0695 
 193   0.0000       1.421340        38.6766 
 194   0.0000       1.428885        38.8819 
 195   0.0000       1.453243        39.5448 
 196   0.0000       1.471939        40.0535 
 197   0.0000       1.484757        40.4023 
 198   0.0000       1.494398        40.6646 
 199   0.0000       1.498494        40.7761 
 200   0.0000       1.505761        40.9739 
 201   0.0000       1.510780        41.1104 
 202   0.0000       1.532626        41.7049 
 203   0.0000       1.538627        41.8682 
 204   0.0000       1.552204        42.2376 
 205   0.0000       1.560135        42.4534 
 206   0.0000       1.564858        42.5820 
 207   0.0000       1.570459        42.7344 
 208   0.0000       1.573071        42.8054 
 209   0.0000       1.580243        43.0006 
 210   0.0000       1.591780        43.3145 
 211   0.0000       1.599259        43.5180 
 212   0.0000       1.610054        43.8118 
 213   0.0000       1.624056        44.1928 
 214   0.0000       1.629704        44.3465 
 215   0.0000       1.641462        44.6664 
 216   0.0000       1.649678        44.8900 
 217   0.0000       1.653496        44.9939 
 218   0.0000       1.662062        45.2270 
 219   0.0000       1.676780        45.6275 
 220   0.0000       1.693116        46.0720 
 221   0.0000       1.700966        46.2856 
 222   0.0000       1.727627        47.0111 
 223   0.0000       1.738488        47.3067 
 224   0.0000       1.753321        47.7103 
 225   0.0000       1.759744        47.8851 
 226   0.0000       1.784131        48.5487 
 227   0.0000       1.791731        48.7555 
 228   0.0000       1.803845        49.0851 
 229   0.0000       1.814897        49.3858 
 230   0.0000       1.823429        49.6180 
 231   0.0000       1.841843        50.1191 
 232   0.0000       1.863277        50.7023 
 233   0.0000       1.871121        50.9158 
 234   0.0000       1.889365        51.4122 
 235   0.0000       1.896340        51.6020 
 236   0.0000       1.907027        51.8929 
 237   0.0000       1.907890        51.9163 
 238   0.0000       1.921218        52.2790 
 239   0.0000       1.934011        52.6271 
 240   0.0000       1.952958        53.1427 
 241   0.0000       1.963093        53.4185 
 242   0.0000       1.972408        53.6720 
 243   0.0000       1.990010        54.1509 
 244   0.0000       2.002975        54.5037 
 245   0.0000       2.012729        54.7691 
 246   0.0000       2.024541        55.0906 
 247   0.0000       2.034133        55.3516 
 248   0.0000       2.045197        55.6526 
 249   0.0000       2.056741        55.9668 
 250   0.0000       2.063014        56.1375 
 251   0.0000       2.095008        57.0081 
 252   0.0000       2.103944        57.2512 
 253   0.0000       2.122134        57.7462 
 254   0.0000       2.142777        58.3079 
 255   0.0000       2.149613        58.4939 
 256   0.0000       2.164075        58.8875 
 257   0.0000       2.180159        59.3251 
 258   0.0000       2.187375        59.5215 
 259   0.0000       2.201185        59.8973 
 260   0.0000       2.214092        60.2485 
 261   0.0000       2.222836        60.4864 
 262   0.0000       2.234229        60.7965 
 263   0.0000       2.250780        61.2468 
 264   0.0000       2.258179        61.4482 
 265   0.0000       2.267513        61.7022 
 266   0.0000       2.276510        61.9470 
 267   0.0000       2.283509        62.1374 
 268   0.0000       2.288180        62.2646 
 269   0.0000       2.306654        62.7673 
 270   0.0000       2.329784        63.3966 
 271   0.0000       2.345841        63.8336 
 272   0.0000       2.350681        63.9653 
 273   0.0000       2.368175        64.4413 
 274   0.0000       2.373106        64.5755 
 275   0.0000       2.378930        64.7340 
 276   0.0000       2.386296        64.9344 
 277   0.0000       2.405777        65.4645 
 278   0.0000       2.427712        66.0614 
 279   0.0000       2.437732        66.3341 
 280   0.0000       2.452262        66.7294 
 281   0.0000       2.473852        67.3169 
 282   0.0000       2.484928        67.6183 
 283   0.0000       2.505480        68.1776 
 284   0.0000       2.531618        68.8888 
 285   0.0000       2.534689        68.9724 
 286   0.0000       2.548681        69.3531 
 287   0.0000       2.560857        69.6845 
 288   0.0000       2.565552        69.8122 
 289   0.0000       2.574414        70.0534 
 290   0.0000       2.582352        70.2694 
 291   0.0000       2.602125        70.8074 
 292   0.0000       2.604890        70.8827 
 293   0.0000       2.627372        71.4944 
 294   0.0000       2.637257        71.7634 
 295   0.0000       2.644262        71.9540 
 296   0.0000       2.666427        72.5572 
 297   0.0000       2.674198        72.7686 
 298   0.0000       2.686251        73.0966 
 299   0.0000       2.707595        73.6774 
 300   0.0000       2.727236        74.2119 
 301   0.0000       2.739277        74.5395 
 302   0.0000       2.743082        74.6431 
 303   0.0000       2.772171        75.4346 
 304   0.0000       2.780070        75.6495 
 305   0.0000       2.792232        75.9805 
 306   0.0000       2.811455        76.5036 
 307   0.0000       2.820079        76.7382 
 308   0.0000       2.830792        77.0298 
 309   0.0000       2.833395        77.1006 
 310   0.0000       2.863106        77.9091 
 311   0.0000       2.865954        77.9866 
 312   0.0000       2.871582        78.1397 
 313   0.0000       2.893269        78.7298 
 314   0.0000       2.899472        78.8986 
 315   0.0000       2.919353        79.4396 
 316   0.0000       2.928066        79.6767 
 317   0.0000       2.949972        80.2728 
 318   0.0000       2.964226        80.6607 
 319   0.0000       2.971627        80.8621 
 320   0.0000       2.986351        81.2627 
 321   0.0000       3.000868        81.6578 
 322   0.0000       3.004693        81.7618 
 323   0.0000       3.007481        81.8377 
 324   0.0000       3.019383        82.1616 
 325   0.0000       3.038574        82.6838 
 326   0.0000       3.057880        83.2091 
 327   0.0000       3.060054        83.2683 
 328   0.0000       3.069668        83.5299 
 329   0.0000       3.080874        83.8348 
 330   0.0000       3.096346        84.2558 
 331   0.0000       3.104112        84.4672 
 332   0.0000       3.116174        84.7954 
 333   0.0000       3.128696        85.1362 
 334   0.0000       3.134194        85.2858 
 335   0.0000       3.140820        85.4661 
 336   0.0000       3.148623        85.6784 
 337   0.0000       3.157363        85.9162 
 338   0.0000       3.170641        86.2775 
 339   0.0000       3.185811        86.6903 
 340   0.0000       3.194066        86.9149 
 341   0.0000       3.201168        87.1082 
 342   0.0000       3.217016        87.5395 
 343   0.0000       3.218576        87.5819 
 344   0.0000       3.224194        87.7348 
 345   0.0000       3.238267        88.1177 
 346   0.0000       3.246675        88.3465 
 347   0.0000       3.255213        88.5788 
 348   0.0000       3.272976        89.0622 
 349   0.0000       3.278843        89.2218 
 350   0.0000       3.285703        89.4085 
 351   0.0000       3.292051        89.5813 
 352   0.0000       3.301830        89.8474 
 353   0.0000       3.307944        90.0137 
 354   0.0000       3.330257        90.6209 
 355   0.0000       3.334752        90.7432 
 356   0.0000       3.343985        90.9945 
 357   0.0000       3.359275        91.4105 
 358   0.0000       3.368892        91.6722 
 359   0.0000       3.375817        91.8607 
 360   0.0000       3.392039        92.3021 
 361   0.0000       3.398596        92.4805 
 362   0.0000       3.404009        92.6278 
 363   0.0000       3.419655        93.0535 
 364   0.0000       3.423892        93.1688 
 365   0.0000       3.449082        93.8543 
 366   0.0000       3.464675        94.2786 
 367   0.0000       3.475561        94.5748 
 368   0.0000       3.479956        94.6944 
 369   0.0000       3.499366        95.2226 
 370   0.0000       3.516597        95.6915 
 371   0.0000       3.526823        95.9697 
 372   0.0000       3.545054        96.4658 
 373   0.0000       3.565610        97.0252 
 374   0.0000       3.581601        97.4603 
 375   0.0000       3.600034        97.9619 
 376   0.0000       3.618942        98.4764 
 377   0.0000       3.646995        99.2398 
 378   0.0000       3.666480        99.7700 
 379   0.0000       3.676001       100.0291 
 380   0.0000       3.708648       100.9174 
 381   0.0000       3.723129       101.3115 
 382   0.0000       3.747214       101.9669 
 383   0.0000       3.763103       102.3992 
 384   0.0000       3.774804       102.7176 
 385   0.0000       3.787621       103.0664 
 386   0.0000       3.815702       103.8305 
 387   0.0000       3.826676       104.1291 
 388   0.0000       3.845716       104.6473 
 389   0.0000       3.851237       104.7975 
 390   0.0000       3.862833       105.1130 
 391   0.0000       3.885987       105.7431 
 392   0.0000       3.896078       106.0177 
 393   0.0000       3.932005       106.9953 
 394   0.0000       3.965681       107.9117 
 395   0.0000       3.977912       108.2445 
 396   0.0000       4.014308       109.2349 
 397   0.0000       4.022026       109.4449 
 398   0.0000       4.047788       110.1459 
 399   0.0000       4.095577       111.4463 
 400   0.0000       4.110111       111.8418 
 401   0.0000       4.125361       112.2568 
 402   0.0000       4.146660       112.8364 
 403   0.0000       4.159840       113.1950 
 404   0.0000       4.174981       113.6070 
 405   0.0000       4.225333       114.9771 
 406   0.0000       4.235198       115.2456 
 407   0.0000       4.275311       116.3371 
 408   0.0000       4.331536       117.8671 
 409   0.0000       4.338073       118.0450 
 410   0.0000       4.350794       118.3911 
 411   0.0000       4.380347       119.1953 
 412   0.0000       4.389306       119.4391 
 413   0.0000       4.408461       119.9603 
 414   0.0000       4.446806       121.0037 
 415   0.0000       4.455868       121.2503 
 416   0.0000       4.480762       121.9277 
 417   0.0000       4.496363       122.3523 
 418   0.0000       4.522470       123.0627 
 419   0.0000       4.542728       123.6139 
 420   0.0000       4.577900       124.5710 
 421   0.0000       4.592422       124.9662 
 422   0.0000       4.660011       126.8054 
 423   0.0000       4.687958       127.5658 
 424   0.0000       4.710915       128.1905 
 425   0.0000       4.720275       128.4452 
 426   0.0000       4.734942       128.8443 
 427   0.0000       4.747400       129.1833 
 428   0.0000       4.787189       130.2660 
 429   0.0000       4.820649       131.1765 
 430   0.0000       4.846464       131.8790 
 431   0.0000       4.966839       135.1546 
 432   0.0000       4.997846       135.9983 
 433   0.0000       5.014868       136.4615 
 434   0.0000       5.044652       137.2719 
 435   0.0000       5.068299       137.9154 
 436   0.0000       5.090429       138.5176 
 437   0.0000       5.102661       138.8505 
 438   0.0000       5.128290       139.5479 
 439   0.0000       5.149257       140.1184 
 440   0.0000       5.163754       140.5129 
 441   0.0000       5.191170       141.2589 
 442   0.0000       5.210263       141.7785 
 443   0.0000       5.214888       141.9043 
 444   0.0000       5.232813       142.3921 
 445   0.0000       5.258564       143.0928 
 446   0.0000       5.272468       143.4711 
 447   0.0000       5.278081       143.6239 
 448   0.0000       5.303165       144.3065 
 449   0.0000       5.377570       146.3311 
 450   0.0000       5.381661       146.4424 
 451   0.0000       5.395520       146.8196 
 452   0.0000       5.403436       147.0350 
 453   0.0000       5.468498       148.8054 
 454   0.0000       5.493437       149.4840 
 455   0.0000       5.508177       149.8851 
 456   0.0000       5.557513       151.2276 
 457   0.0000       5.583250       151.9279 
 458   0.0000       5.611911       152.7079 
 459   0.0000       5.655067       153.8822 
 460   0.0000       5.669374       154.2715 
 461   0.0000       5.735281       156.0649 
 462   0.0000       5.782053       157.3377 
 463   0.0000       5.818880       158.3398 
 464   0.0000       5.839515       158.9013 
 465   0.0000       5.856687       159.3686 
 466   0.0000       5.881592       160.0462 
 467   0.0000       5.974245       162.5675 
 468   0.0000       6.043005       164.4385 
 469   0.0000       6.067497       165.1050 
 470   0.0000       6.129498       166.7921 
 471   0.0000       6.188053       168.3855 
 472   0.0000       6.274863       170.7477 
 473   0.0000       6.295709       171.3149 
 474   0.0000       6.317211       171.9000 
 475   0.0000       6.319704       171.9679 
 476   0.0000       6.393020       173.9629 
 477   0.0000       6.397569       174.0867 
 478   0.0000       6.434653       175.0958 
 479   0.0000       6.476990       176.2479 
 480   0.0000       6.548107       178.1831 
 481   0.0000       6.578470       179.0093 
 482   0.0000       6.631256       180.4456 
 483   0.0000       6.651343       180.9922 
 484   0.0000       6.681330       181.8082 
 485   0.0000       6.715000       182.7244 
 486   0.0000       6.726854       183.0470 
 487   0.0000       6.804191       185.1514 
 488   0.0000       6.808352       185.2647 
 489   0.0000       6.817733       185.5200 
 490   0.0000       6.879287       187.1949 
 491   0.0000       7.040903       191.5927 
 492   0.0000       7.057273       192.0382 
 493   0.0000       7.059783       192.1065 
 494   0.0000       7.064406       192.2323 
 495   0.0000       7.083521       192.7524 
 496   0.0000       7.137482       194.2208 
 497   0.0000       7.255817       197.4408 
 498   0.0000      22.398231       609.4868 
 499   0.0000      22.471495       611.4805 
 500   0.0000      22.550180       613.6216 
 501   0.0000      22.629620       615.7833 
 502   0.0000      22.981350       625.3543 
 503   0.0000      23.243420       632.4856 
 504   0.0000      23.338463       635.0719 
 505   0.0000      23.363822       635.7619 
 506   0.0000      32.518655       884.8776 
 507   0.0000      32.726863       890.5432 
 508   0.0000      43.916934      1195.0405 
 509   0.0000      43.988371      1196.9844 
 510   0.0000      44.051611      1198.7053 
 511   0.0000      44.125434      1200.7141 

                 SPIN DOWN ORBITALS
  NO   OCC          E(Eh)            E(eV) 
   0   1.0000     -19.680629      -535.5372 
   1   1.0000     -19.628987      -534.1319 
   2   1.0000     -19.609515      -533.6020 
   3   1.0000     -19.596878      -533.2581 
   4   1.0000     -14.805145      -402.8685 
   5   1.0000     -14.781873      -402.2352 
   6   1.0000     -10.688704      -290.8544 
   7   1.0000     -10.664881      -290.2062 
   8   1.0000     -10.654459      -289.9226 
   9   1.0000     -10.605303      -288.5850 
  10   1.0000     -10.575102      -287.7632 
  11   1.0000     -10.565045      -287.4895 
  12   1.0000     -10.564046      -287.4623 
  13   1.0000     -10.553690      -287.1805 
  14   1.0000      -1.239676       -33.7333 
  15   1.0000      -1.170985       -31.8641 
  16   1.0000      -1.156134       -31.4600 
  17   1.0000      -1.145302       -31.1652 
  18   1.0000      -1.055619       -28.7248 
  19   1.0000      -1.033050       -28.1107 
  20   1.0000      -0.912800       -24.8386 
  21   1.0000      -0.860510       -23.4157 
  22   1.0000      -0.828047       -22.5323 
  23   1.0000      -0.792121       -21.5547 
  24   1.0000      -0.753474       -20.5031 
  25   1.0000      -0.688417       -18.7328 
  26   1.0000      -0.681037       -18.5320 
  27   1.0000      -0.646667       -17.5967 
  28   1.0000      -0.633033       -17.2257 
  29   1.0000      -0.590104       -16.0576 
  30   1.0000      -0.581290       -15.8177 
  31   1.0000      -0.568371       -15.4662 
  32   1.0000      -0.564405       -15.3583 
  33   1.0000      -0.538870       -14.6634 
  34   1.0000      -0.537323       -14.6213 
  35   1.0000      -0.528062       -14.3693 
  36   1.0000      -0.521771       -14.1981 
  37   1.0000      -0.508817       -13.8456 
  38   1.0000      -0.494973       -13.4689 
  39   1.0000      -0.488733       -13.2991 
  40   1.0000      -0.476927       -12.9778 
  41   1.0000      -0.475585       -12.9413 
  42   1.0000      -0.465802       -12.6751 
  43   1.0000      -0.450847       -12.2682 
  44   1.0000      -0.447900       -12.1880 
  45   1.0000      -0.445011       -12.1094 
  46   1.0000      -0.428414       -11.6577 
  47   1.0000      -0.406313       -11.0563 
  48   1.0000      -0.372874       -10.1464 
  49   1.0000      -0.368559       -10.0290 
  50   1.0000      -0.348166        -9.4741 
  51   1.0000      -0.345069        -9.3898 
  52   1.0000      -0.321817        -8.7571 
  53   0.0000      -0.061853        -1.6831 
  54   0.0000       0.035452         0.9647 
  55   0.0000       0.048630         1.3233 
  56   0.0000       0.054701         1.4885 
  57   0.0000       0.065660         1.7867 
  58   0.0000       0.067882         1.8472 
  59   0.0000       0.091747         2.4966 
  60   0.0000       0.097981         2.6662 
  61   0.0000       0.107905         2.9363 
  62   0.0000       0.112864         3.0712 
  63   0.0000       0.120249         3.2721 
  64   0.0000       0.125420         3.4128 
  65   0.0000       0.142185         3.8690 
  66   0.0000       0.147335         4.0092 
  67   0.0000       0.150241         4.0883 
  68   0.0000       0.153436         4.1752 
  69   0.0000       0.161644         4.3985 
  70   0.0000       0.165450         4.5021 
  71   0.0000       0.185504         5.0478 
  72   0.0000       0.191170         5.2020 
  73   0.0000       0.201204         5.4750 
  74   0.0000       0.207892         5.6570 
  75   0.0000       0.215499         5.8640 
  76   0.0000       0.221078         6.0158 
  77   0.0000       0.228559         6.2194 
  78   0.0000       0.234743         6.3877 
  79   0.0000       0.236295         6.4299 
  80   0.0000       0.242604         6.6016 
  81   0.0000       0.256120         6.9694 
  82   0.0000       0.264384         7.1942 
  83   0.0000       0.266416         7.2495 
  84   0.0000       0.279818         7.6142 
  85   0.0000       0.283874         7.7246 
  86   0.0000       0.287104         7.8125 
  87   0.0000       0.298918         8.1340 
  88   0.0000       0.309670         8.4265 
  89   0.0000       0.322568         8.7775 
  90   0.0000       0.327396         8.9089 
  91   0.0000       0.339911         9.2495 
  92   0.0000       0.349553         9.5118 
  93   0.0000       0.363372         9.8879 
  94   0.0000       0.368450        10.0260 
  95   0.0000       0.372948        10.1484 
  96   0.0000       0.383119        10.4252 
  97   0.0000       0.394343        10.7306 
  98   0.0000       0.398760        10.8508 
  99   0.0000       0.408522        11.1164 
 100   0.0000       0.413749        11.2587 
 101   0.0000       0.418589        11.3904 
 102   0.0000       0.421591        11.4721 
 103   0.0000       0.426962        11.6182 
 104   0.0000       0.439986        11.9726 
 105   0.0000       0.441972        12.0267 
 106   0.0000       0.447897        12.1879 
 107   0.0000       0.453473        12.3396 
 108   0.0000       0.467831        12.7303 
 109   0.0000       0.469759        12.7828 
 110   0.0000       0.470684        12.8080 
 111   0.0000       0.477887        13.0040 
 112   0.0000       0.483784        13.1644 
 113   0.0000       0.490697        13.3525 
 114   0.0000       0.492648        13.4056 
 115   0.0000       0.506246        13.7757 
 116   0.0000       0.511173        13.9097 
 117   0.0000       0.512148        13.9363 
 118   0.0000       0.525920        14.3110 
 119   0.0000       0.532666        14.4946 
 120   0.0000       0.534868        14.5545 
 121   0.0000       0.538823        14.6621 
 122   0.0000       0.545705        14.8494 
 123   0.0000       0.555452        15.1146 
 124   0.0000       0.571956        15.5637 
 125   0.0000       0.581546        15.8247 
 126   0.0000       0.591991        16.1089 
 127   0.0000       0.599277        16.3072 
 128   0.0000       0.604252        16.4425 
 129   0.0000       0.608861        16.5679 
 130   0.0000       0.613277        16.6881 
 131   0.0000       0.618320        16.8253 
 132   0.0000       0.626353        17.0439 
 133   0.0000       0.640236        17.4217 
 134   0.0000       0.645153        17.5555 
 135   0.0000       0.653131        17.7726 
 136   0.0000       0.664789        18.0898 
 137   0.0000       0.672454        18.2984 
 138   0.0000       0.676621        18.4118 
 139   0.0000       0.697877        18.9902 
 140   0.0000       0.703253        19.1365 
 141   0.0000       0.711665        19.3654 
 142   0.0000       0.717207        19.5162 
 143   0.0000       0.732734        19.9387 
 144   0.0000       0.743085        20.2204 
 145   0.0000       0.763863        20.7858 
 146   0.0000       0.777534        21.1578 
 147   0.0000       0.790664        21.5151 
 148   0.0000       0.801519        21.8105 
 149   0.0000       0.820637        22.3307 
 150   0.0000       0.824001        22.4222 
 151   0.0000       0.831404        22.6237 
 152   0.0000       0.859780        23.3958 
 153   0.0000       0.874687        23.8015 
[...]
     71      -0.089982   0.000497  -0.000443  -0.000003  -0.005066   0.020591
     72       0.455735  -0.002313   0.000066  -0.000121  -0.031547   0.129018
     73      -0.072905   0.000332   0.000173   0.000003   0.008304  -0.033788
     74       0.429871  -0.002214   0.000098  -0.000136  -0.036255   0.148175
     75       0.133713  -0.000635  -0.000441  -0.000064  -0.130333   0.532223
     76       0.171632  -0.000808  -0.000478  -0.000085  -0.161920   0.661127
     77      -0.018770   0.000105  -0.000070  -0.000045   0.003583  -0.014664
     78      -0.332695   0.001859  -0.002919   0.000092  -0.041605   0.169530
     79      -0.051329   0.000274  -0.000214   0.000031  -0.004854   0.019849
     80       0.657657  -0.003684   0.005612  -0.000181   0.093617  -0.381478
                 78         79         80    
      0      -0.069426   0.000147   0.000047
      1       0.012764  -0.000197  -0.000006
      2       0.016087  -0.000046  -0.000015
      3      -0.001417   0.000363  -0.000050
      4      -0.001036   0.000191   0.000006
      5       0.000441  -0.000091   0.000001
      6       0.001323   0.000240  -0.000039
      7      -0.000326  -0.000962   0.000010
      8      -0.000398  -0.000261   0.000003
      9      -0.001112  -0.000977   0.000029
     10       0.000075  -0.000351  -0.000005
     11       0.000282   0.000226  -0.000006
     12       0.000520   0.000065   0.000060
     13       0.000364   0.000088  -0.000000
     14      -0.000152  -0.000161   0.000111
     15       0.001076   0.000293  -0.000248
     16       0.000608  -0.011614   0.000272
     17      -0.000632  -0.000035  -0.000255
     18      -0.000936   0.000765  -0.000023
     19       0.000471   0.000194  -0.000265
     20       0.000798  -0.000653  -0.000231
     21      -0.000010   0.000058   0.000655
     22       0.000059   0.000045   0.000136
     23      -0.000071  -0.000098  -0.000553
     24      -0.000429  -0.000273   0.000881
     25      -0.000932   0.000060  -0.001805
     26       0.000111  -0.000090   0.001234
     27       0.000031  -0.000548   0.000312
     28       0.000062   0.000356   0.001287
     29       0.000135   0.000701   0.002092
     30      -0.000105  -0.000024  -0.003044
     31      -0.000027  -0.000122  -0.000186
     32       0.000016   0.000206  -0.000349
     33      -0.000002   0.000087  -0.056551
     34      -0.000006   0.000047  -0.012109
     35       0.000024  -0.000085   0.020241
     36       0.000034   0.000008   0.000215
     37       0.000014   0.000103  -0.000285
     38      -0.000022  -0.000089   0.000877
     39       0.961535  -0.002245  -0.000482
     40      -0.139622   0.000815   0.000107
     41      -0.224958   0.000460   0.000080
     42      -0.000142  -0.000218  -0.000055
     43      -0.000407   0.000195  -0.000017
     44      -0.000068   0.000031   0.000004
     45      -0.000225   0.069533   0.000127
     46      -0.000167   0.005636  -0.000006
     47       0.000026  -0.023197  -0.000035
     48       0.000478  -0.001531   0.921600
     49       0.000058  -0.000464   0.197492
     50      -0.000222   0.000714  -0.328435
     51      -0.002558  -0.941137  -0.001671
     52      -0.001481  -0.072197   0.000019
     53       0.000828   0.321424   0.000465
     54       0.001437   0.000139   0.000027
     55      -0.000951  -0.000030   0.000012
     56      -0.000076  -0.000022  -0.000000
     57      -0.000446   0.000006  -0.000003
     58       0.000237  -0.000003   0.000008
     59      -0.000016  -0.000002  -0.000003
     60      -0.000003   0.000007  -0.000003
     61      -0.001161  -0.000099  -0.000008
     62       0.001078   0.000091  -0.000006
     63      -0.000436  -0.000033   0.000003
     64      -0.000914  -0.000086  -0.000000
     65      -0.000317  -0.000051   0.000000
     66       0.006657   0.000052   0.000046
     67      -0.005805   0.000026  -0.000006
     68      -0.001076  -0.000014  -0.000012
     69       0.000019  -0.000372  -0.000010
     70       0.000071   0.001672   0.000025
     71      -0.000012  -0.000003   0.000003
     72       0.000127  -0.004169   0.000091
     73       0.000204   0.002857  -0.000034
     74      -0.000146  -0.003017   0.000053
     75      -0.000416  -0.004448  -0.000046
     76      -0.000236  -0.007022  -0.000057
     77       0.000076   0.000447   0.000002
     78       0.000137  -0.004619   0.000038
     79       0.000172   0.002115  -0.000014
     80       0.000207   0.007043  -0.000044


-----------
IR SPECTRUM
-----------

 Mode   freq       eps      Int      T**2         TX        TY        TZ
       cm**-1   L/(mol*cm) km/mol    a.u.
----------------------------------------------------------------------------
  6:     31.50   0.000194    0.98  0.001923  (-0.015487  0.030871  0.027020)
  7:     34.15   0.000214    1.08  0.001953  ( 0.012690 -0.042278  0.002078)
  8:     56.13   0.000107    0.54  0.000593  (-0.007343  0.014211  0.018365)
  9:     76.98   0.000934    4.72  0.003785  (-0.006158  0.000248 -0.061214)
 10:     88.05   0.003329   16.82  0.011797  ( 0.036909  0.014747  0.101078)
 11:    123.40   0.001057    5.34  0.002672  (-0.021583  0.043210 -0.018407)
 12:    130.56   0.000839    4.24  0.002005  ( 0.021758 -0.017827  0.034836)
 13:    137.06   0.000306    1.55  0.000697  ( 0.012023 -0.016084  0.017137)
 14:    143.92   0.001491    7.54  0.003233  (-0.023237 -0.034936 -0.038375)
 15:    152.65   0.000523    2.65  0.001070  ( 0.017474  0.000704  0.027645)
 16:    181.92   0.000416    2.10  0.000714  (-0.015288 -0.002812  0.021740)
 17:    227.31   0.000342    1.73  0.000470  ( 0.003868  0.019083 -0.009520)
 18:    262.40   0.002597   13.12  0.003088  ( 0.025293  0.049169  0.005536)
 19:    310.84   0.000967    4.89  0.000971  (-0.009560  0.017340 -0.024063)
 20:    319.34   0.008074   40.80  0.007890  (-0.038490  0.000587 -0.080049)
 21:    359.45   0.002337   11.81  0.002029  (-0.004419 -0.036922 -0.025425)
 22:    379.01   0.001104    5.58  0.000909  ( 0.007850  0.025436  0.014154)
 23:    404.91   0.001060    5.36  0.000817  ( 0.004394 -0.027447  0.006636)
 24:    484.16   0.003183   16.08  0.002051  (-0.030277  0.009356 -0.032359)
 25:    528.24   0.009526   48.14  0.005627  (-0.043484 -0.059021 -0.015906)
 26:    532.54   0.002322   11.74  0.001361  (-0.023692  0.018109  0.021718)
 27:    591.81   0.006431   32.50  0.003391  ( 0.046010 -0.035570  0.002947)
 28:    618.36   0.001759    8.89  0.000888  (-0.015225 -0.001793 -0.025544)
 29:    657.60   0.011700   59.13  0.005552  (-0.022471  0.066245  0.025667)
 30:    663.57   0.005974   30.19  0.002809  ( 0.034389  0.038620  0.011627)
 31:    714.11   0.002280   11.52  0.000996  ( 0.002118  0.030837  0.006407)
 32:    746.86   0.003219   16.27  0.001345  ( 0.018969 -0.003115  0.031232)
 33:    757.56   0.008833   44.64  0.003639  (-0.021593  0.006326 -0.055969)
 34:    804.85   0.003709   18.74  0.001438  ( 0.010543  0.034766  0.010869)
 35:    866.74   0.000277    1.40  0.000100  ( 0.005716 -0.007837 -0.002380)
 36:    919.27   0.000835    4.22  0.000283  (-0.016160  0.004696 -0.000492)
 37:    944.44   0.002965   14.99  0.000980  ( 0.029542  0.010095 -0.002288)
 38:   1017.92   0.001689    8.54  0.000518  (-0.002289  0.021262 -0.007780)
 39:   1039.34   0.000886    4.48  0.000266  (-0.002436 -0.014833 -0.006329)
 40:   1060.27   0.001487    7.52  0.000438  ( 0.004269  0.006409  0.019452)
 41:   1064.46   0.001733    8.76  0.000508  ( 0.018736 -0.008917  0.008801)
 42:   1080.95   0.000070    0.35  0.000020  (-0.004447 -0.000248 -0.000569)
 43:   1162.43   0.000172    0.87  0.000046  (-0.002170 -0.006243  0.001596)
 44:   1167.43   0.002812   14.21  0.000752  (-0.023252  0.001867 -0.014403)
 45:   1183.79   0.045933  232.13  0.012109  ( 0.085775 -0.011249  0.068005)
 46:   1186.18   0.004100   20.72  0.001079  (-0.019567  0.025878 -0.005120)
 47:   1228.87   0.008678   43.85  0.002204  (-0.014350  0.044194  0.006683)
 48:   1262.40   0.001011    5.11  0.000250  ( 0.009758  0.007196 -0.010145)
 49:   1280.55   0.006574   33.22  0.001602  ( 0.031977 -0.016465  0.017561)
 50:   1309.39   0.007759   39.21  0.001849  ( 0.013303 -0.040889 -0.000658)
 51:   1343.16   0.016912   85.47  0.003929  ( 0.029768 -0.053567  0.013181)
 52:   1353.30   0.042659  215.58  0.009837  ( 0.003270  0.098937  0.006132)
 53:   1411.10   0.008960   45.28  0.001982  (-0.006760 -0.043756  0.004611)
 54:   1424.12   0.020747  104.85  0.004546  ( 0.060420  0.015110  0.025835)
 55:   1432.83   0.009448   47.74  0.002058  ( 0.032197 -0.025681  0.019013)
 56:   1455.69   0.002794   14.12  0.000599  ( 0.008579  0.022229 -0.005596)
 57:   1465.34   0.003244   16.39  0.000691  ( 0.024549  0.006211 -0.007047)
 58:   1477.74   0.001589    8.03  0.000335  (-0.006902  0.003478 -0.016605)
 59:   1483.36   0.005408   27.33  0.001138  (-0.001371  0.025577  0.021948)
 60:   1493.73   0.011231   56.75  0.002346  ( 0.028535 -0.033695 -0.019915)
 61:   1495.57   0.004739   23.95  0.000989  (-0.026538  0.015003  0.007719)
 62:   1519.64   0.010034   50.71  0.002060  ( 0.007278 -0.044804  0.000222)
 63:   1553.17   0.144249  728.98  0.028983  (-0.003949 -0.170124  0.004978)
 64:   1598.31   0.002222   11.23  0.000434  (-0.017493 -0.009836  0.005573)
 65:   1702.90   0.066851  337.84  0.012251  (-0.108205  0.006432  0.022385)
 66:   1783.12   0.043878  221.74  0.007679  (-0.068592  0.054119  0.006733)
 67:   1861.15   0.062532  316.01  0.010485  (-0.020165 -0.032819  0.094875)
 68:   3076.62   0.007892   39.89  0.000801  ( 0.010805 -0.026139  0.000743)
 69:   3080.24   0.001344    6.79  0.000136  (-0.007871 -0.006530 -0.005615)
 70:   3089.07   0.000428    2.16  0.000043  ( 0.005846  0.002856 -0.000939)
 71:   3105.39   0.002032   10.27  0.000204  ( 0.000136 -0.012206  0.007432)
 72:   3143.39   0.002170   10.97  0.000215  (-0.004628 -0.002258 -0.013746)
 73:   3144.77   0.000586    2.96  0.000058  ( 0.006828  0.003151  0.001284)
 74:   3162.26   0.000092    0.47  0.000009  (-0.002703  0.001318 -0.000228)
 75:   3169.92   0.000127    0.64  0.000012  (-0.000956  0.000026  0.003397)
 76:   3183.18   0.000980    4.95  0.000096  (-0.007616  0.006143  0.000549)
 77:   3183.26   0.001813    9.16  0.000178  (-0.010666 -0.007617  0.002428)
 78:   3533.52   0.019903  100.58  0.001758  ( 0.035083 -0.021767 -0.007293)
 79:   3696.74   0.008738   44.16  0.000738  (-0.024009 -0.010738  0.006773)
 80:   3798.64   0.018927   95.65  0.001555  ( 0.039203  0.003981 -0.001480)

* The epsilon (eps) is given for a Dirac delta lineshape.
** The dipole moment derivative (T) already includes vibrational overlap.

The first frequency considered to be a vibration is 6
The total number of vibrations considered is 75


--------------------------
THERMOCHEMISTRY AT 298.15K
--------------------------

Temperature         ... 298.15 K
Pressure            ... 1.00 atm
Total Mass          ... 201.20 AMU

Throughout the following assumptions are being made:
  (1) The electronic state is orbitally nondegenerate
      but the spin degeneracy is treated
  (2) There are no thermally accessible electronically excited states
  (3) Hindered rotations indicated by low frequency modes are not
      treated as such but are treated as vibrations and this may
      cause some error
  (4) All equations used are the standard statistical mechanics
      equations for an ideal gas
  (5) All vibrations are strictly harmonic

freq.      31.50  E(vib)   ...       0.55 
freq.      34.15  E(vib)   ...       0.55 
freq.      56.13  E(vib)   ...       0.52 
freq.      76.98  E(vib)   ...       0.49 
freq.      88.05  E(vib)   ...       0.48 
freq.     123.40  E(vib)   ...       0.43 
freq.     130.56  E(vib)   ...       0.43 
freq.     137.06  E(vib)   ...       0.42 
freq.     143.92  E(vib)   ...       0.41 
freq.     152.65  E(vib)   ...       0.40 
freq.     181.92  E(vib)   ...       0.37 
freq.     227.31  E(vib)   ...       0.33 
freq.     262.40  E(vib)   ...       0.29 
freq.     310.84  E(vib)   ...       0.26 
freq.     319.34  E(vib)   ...       0.25 
freq.     359.45  E(vib)   ...       0.22 
freq.     379.01  E(vib)   ...       0.21 
freq.     404.91  E(vib)   ...       0.19 
freq.     484.16  E(vib)   ...       0.15 
freq.     528.24  E(vib)   ...       0.13 
freq.     532.54  E(vib)   ...       0.13 
freq.     591.81  E(vib)   ...       0.10 
freq.     618.36  E(vib)   ...       0.09 
freq.     657.60  E(vib)   ...       0.08 
freq.     663.57  E(vib)   ...       0.08 
freq.     714.11  E(vib)   ...       0.07 
freq.     746.86  E(vib)   ...       0.06 
freq.     757.56  E(vib)   ...       0.06 
freq.     804.85  E(vib)   ...       0.05 
freq.     866.74  E(vib)   ...       0.04 
freq.     919.27  E(vib)   ...       0.03 
freq.     944.44  E(vib)   ...       0.03 
freq.    1017.92  E(vib)   ...       0.02 
freq.    1039.34  E(vib)   ...       0.02 
freq.    1060.27  E(vib)   ...       0.02 
freq.    1064.46  E(vib)   ...       0.02 
freq.    1080.95  E(vib)   ...       0.02 
freq.    1162.43  E(vib)   ...       0.01 
freq.    1167.43  E(vib)   ...       0.01 
freq.    1183.79  E(vib)   ...       0.01 
freq.    1186.18  E(vib)   ...       0.01 
freq.    1228.87  E(vib)   ...       0.01 
freq.    1262.40  E(vib)   ...       0.01 
freq.    1280.55  E(vib)   ...       0.01 
freq.    1309.39  E(vib)   ...       0.01 
freq.    1343.16  E(vib)   ...       0.01 
freq.    1353.30  E(vib)   ...       0.01 
freq.    1411.10  E(vib)   ...       0.00 
freq.    1424.12  E(vib)   ...       0.00 
freq.    1432.83  E(vib)   ...       0.00 
freq.    1455.69  E(vib)   ...       0.00 
freq.    1465.34  E(vib)   ...       0.00 
freq.    1477.74  E(vib)   ...       0.00 
freq.    1483.36  E(vib)   ...       0.00 
freq.    1493.73  E(vib)   ...       0.00 
freq.    1495.57  E(vib)   ...       0.00 
freq.    1519.64  E(vib)   ...       0.00 
freq.    1553.17  E(vib)   ...       0.00 
freq.    1598.31  E(vib)   ...       0.00 
freq.    1702.90  E(vib)   ...       0.00 
freq.    1783.12  E(vib)   ...       0.00 
freq.    1861.15  E(vib)   ...       0.00 
freq.    3076.62  E(vib)   ...       0.00 
freq.    3080.24  E(vib)   ...       0.00 
freq.    3089.07  E(vib)   ...       0.00 
freq.    3105.39  E(vib)   ...       0.00 
freq.    3143.39  E(vib)   ...       0.00 
freq.    3144.77  E(vib)   ...       0.00 
freq.    3162.26  E(vib)   ...       0.00 
freq.    3169.92  E(vib)   ...       0.00 
freq.    3183.18  E(vib)   ...       0.00 
freq.    3183.26  E(vib)   ...       0.00 
freq.    3533.52  E(vib)   ...       0.00 
freq.    3696.74  E(vib)   ...       0.00 
freq.    3798.64  E(vib)   ...       0.00 

------------
INNER ENERGY
------------

The inner energy is: U= E(el) + E(ZPE) + E(vib) + E(rot) + E(trans)
    E(el)   - is the total energy from the electronic structure calculation
              = E(kin-el) + E(nuc-el) + E(el-el) + E(nuc-nuc)
    E(ZPE)  - the the zero temperature vibrational energy from the frequency calculation
    E(vib)  - the the finite temperature correction to E(ZPE) due to population
              of excited vibrational states
    E(rot)  - is the rotational thermal energy
    E(trans)- is the translational thermal energy

Summary of contributions to the inner energy U:
Electronic energy                ...   -723.09816940 Eh
Zero point energy                ...      0.21987713 Eh     137.97 kcal/mol
Thermal vibrational correction   ...      0.01290347 Eh       8.10 kcal/mol
Thermal rotational correction    ...      0.00141627 Eh       0.89 kcal/mol
Thermal translational correction ...      0.00141627 Eh       0.89 kcal/mol
-----------------------------------------------------------------------
Total thermal energy                   -722.86255625 Eh


Summary of corrections to the electronic energy:
(perhaps to be used in another calculation)
Total thermal correction                  0.01573602 Eh       9.87 kcal/mol
Non-thermal (ZPE) correction              0.21987713 Eh     137.97 kcal/mol
-----------------------------------------------------------------------
Total correction                          0.23561315 Eh     147.85 kcal/mol


--------
ENTHALPY
--------

The enthalpy is H = U + kB*T
                kB is Boltzmann's constant
Total free energy                 ...   -722.86255625 Eh 
Thermal Enthalpy correction       ...      0.00094421 Eh       0.59 kcal/mol
-----------------------------------------------------------------------
Total Enthalpy                    ...   -722.86161204 Eh


Note: Only C1 symmetry has been detected, increase convergence thresholds 
      if your molecule has a higher symmetry. Symmetry factor of 1.0 is   
      used for the rotational entropy correction. 
 

Note: Rotational entropy computed according to Herzberg 
Infrared and Raman Spectra, Chapter V,1, Van Nostrand Reinhold, 1945 
Point Group:  C1, Symmetry Number:   1  
Rotational constants in cm-1:     0.021250     0.016766     0.010007 

Vibrational entropy computed according to the QRRHO of S. Grimme
Chem.Eur.J. 2012 18 9955


-------
ENTROPY
-------

The entropy contributions are T*S = T*(S(el)+S(vib)+S(rot)+S(trans))
     S(el)   - electronic entropy
     S(vib)  - vibrational entropy
     S(rot)  - rotational entropy
     S(trans)- translational entropy
The entropies will be listed as multiplied by the temperature to get
units of energy

Electronic entropy                ...      0.00065446 Eh      0.41 kcal/mol
Vibrational entropy               ...      0.02346135 Eh     14.72 kcal/mol
Rotational entropy                ...      0.01543285 Eh      9.68 kcal/mol
Translational entropy             ...      0.01986141 Eh     12.46 kcal/mol
-----------------------------------------------------------------------
Final entropy term                ...      0.05941007 Eh     37.28 kcal/mol

In case the symmetry of your molecule has not been determined correctly
or in case you have a reason to use a different symmetry number we print 
out the resulting rotational entropy values for sn=1,12 :
 --------------------------------------------------------
|  sn= 1 | S(rot)=       0.01543285 Eh      9.68 kcal/mol|
|  sn= 2 | S(rot)=       0.01477839 Eh      9.27 kcal/mol|
|  sn= 3 | S(rot)=       0.01439556 Eh      9.03 kcal/mol|
|  sn= 4 | S(rot)=       0.01412394 Eh      8.86 kcal/mol|
|  sn= 5 | S(rot)=       0.01391325 Eh      8.73 kcal/mol|
|  sn= 6 | S(rot)=       0.01374111 Eh      8.62 kcal/mol|
|  sn= 7 | S(rot)=       0.01359556 Eh      8.53 kcal/mol|
|  sn= 8 | S(rot)=       0.01346948 Eh      8.45 kcal/mol|
|  sn= 9 | S(rot)=       0.01335827 Eh      8.38 kcal/mol|
|  sn=10 | S(rot)=       0.01325879 Eh      8.32 kcal/mol|
|  sn=11 | S(rot)=       0.01316880 Eh      8.26 kcal/mol|
|  sn=12 | S(rot)=       0.01308665 Eh      8.21 kcal/mol|
 --------------------------------------------------------


-------------------
GIBBS FREE ENERGY
-------------------

The Gibbs free energy is G = H - T*S

Total enthalpy                    ...   -722.86161204 Eh 
Total entropy correction          ...     -0.05941007 Eh    -37.28 kcal/mol
-----------------------------------------------------------------------
Final Gibbs free energy         ...   -722.92102211 Eh

For completeness - the Gibbs free energy minus the electronic energy
G-E(el)                           ...      0.17714728 Eh    111.16 kcal/mol


Timings for individual modules:

Sum of individual times         ...     1805.458 sec (=  30.091 min)
GTO integral calculation        ...       63.696 sec (=   1.062 min)   3.5 %
SCF iterations                  ...      858.390 sec (=  14.307 min)  47.5 %
SCF Gradient evaluation         ...      248.282 sec (=   4.138 min)  13.8 %
Geometry relaxation             ...        0.782 sec (=   0.013 min)   0.0 %
Analytical frequency calculation...      634.307 sec (=  10.572 min)  35.1 %
                             ****ORCA TERMINATED NORMALLY****
TOTAL RUN TIME: 0 days 0 hours 31 minutes 0 seconds 812 msec
