
                                 *****************
                                 * O   R   C   A *
                                 *****************

                                            #,                                       
                                            ###                                      
                                            ####                                     
                                            #####                                    
                                            ######                                   
                                           ########,                                 
                                     ,,################,,,,,                         
                               ,,#################################,,                 
                          ,,##########################################,,             
                       ,#########################################, ''#####,          
                    ,#############################################,,   '####,        
                  ,##################################################,,,,####,       
                ,###########''''           ''''###############################       
              ,#####''   ,,,,##########,,,,          '''####'''          '####       
            ,##' ,,,,###########################,,,                        '##       
           ' ,,###''''                  '''############,,,                           
         ,,##''                                '''############,,,,        ,,,,,,###''
      ,#''                                            '''#######################'''  
     '                                                          ''''####''''         
             ,#######,   #######,   ,#######,      ##                                
            ,#'     '#,  ##    ##  ,#'     '#,    #''#        ######   ,####,        
            ##       ##  ##   ,#'  ##            #'  '#       #        #'  '#        
            ##       ##  #######   ##           ,######,      #####,   #    #        
            '#,     ,#'  ##    ##  '#,     ,#' ,#      #,         ##   #,  ,#        
             '#######'   ##     ##  '#######'  #'      '#     #####' # '####'        



                  #######################################################
                  #                        -***-                        #
                  #          Department of theory and spectroscopy      #
                  #    Directorship and core code : Frank Neese         #
                  #        Max Planck Institute fuer Kohlenforschung    #
                  #                Kaiser Wilhelm Platz 1               #
                  #                 D-45470 Muelheim/Ruhr               #
                  #                      Germany                        #
                  #                                                     #
                  #                  All rights reserved                #
                  #                        -***-                        #
                  #######################################################


                         Program Version 5.0.4 -  RELEASE  -


 With contributions from (in alphabetic order):
   Daniel Aravena         : Magnetic Suceptibility
   Michael Atanasov       : Ab Initio Ligand Field Theory (pilot matlab implementation)
   Alexander A. Auer      : GIAO ZORA, VPT2 properties, NMR spectrum
   Ute Becker             : Parallelization
   Giovanni Bistoni       : ED, misc. LED, open-shell LED, HFLD
   Martin Brehm           : Molecular dynamics
   Dmytro Bykov           : SCF Hessian
   Vijay G. Chilkuri      : MRCI spin determinant printing, contributions to CSF-ICE
   Dipayan Datta          : RHF DLPNO-CCSD density
   Achintya Kumar Dutta   : EOM-CC, STEOM-CC
   Dmitry Ganyushin       : Spin-Orbit,Spin-Spin,Magnetic field MRCI
   Miquel Garcia          : C-PCM and meta-GGA Hessian, CC/C-PCM, Gaussian charge scheme
   Yang Guo               : DLPNO-NEVPT2, F12-NEVPT2, CIM, IAO-localization
   Andreas Hansen         : Spin unrestricted coupled pair/coupled cluster methods
   Benjamin Helmich-Paris : MC-RPA, TRAH-SCF, COSX integrals
   Lee Huntington         : MR-EOM, pCC
   Robert Izsak           : Overlap fitted RIJCOSX, COSX-SCS-MP3, EOM
   Marcus Kettner         : VPT2
   Christian Kollmar      : KDIIS, OOCD, Brueckner-CCSD(T), CCSD density, CASPT2, CASPT2-K
   Simone Kossmann        : Meta GGA functionals, TD-DFT gradient, OOMP2, MP2 Hessian
   Martin Krupicka        : Initial AUTO-CI
   Lucas Lang             : DCDCAS
   Marvin Lechner         : AUTO-CI (C++ implementation), FIC-MRCC
   Dagmar Lenk            : GEPOL surface, SMD
   Dimitrios Liakos       : Extrapolation schemes; Compound Job, initial MDCI parallelization
   Dimitrios Manganas     : Further ROCIS development; embedding schemes
   Dimitrios Pantazis     : SARC Basis sets
   Anastasios Papadopoulos: AUTO-CI, single reference methods and gradients
   Taras Petrenko         : DFT Hessian,TD-DFT gradient, ASA, ECA, R-Raman, ABS, FL, XAS/XES, NRVS
   Peter Pinski           : DLPNO-MP2, DLPNO-MP2 Gradient
   Christoph Reimann      : Effective Core Potentials
   Marius Retegan         : Local ZFS, SOC
   Christoph Riplinger    : Optimizer, TS searches, QM/MM, DLPNO-CCSD(T), (RO)-DLPNO pert. Triples
   Tobias Risthaus        : Range-separated hybrids, TD-DFT gradient, RPA, STAB
   Michael Roemelt        : Original ROCIS implementation
   Masaaki Saitow         : Open-shell DLPNO-CCSD energy and density
   Barbara Sandhoefer     : DKH picture change effects
   Avijit Sen             : IP-ROCIS
   Kantharuban Sivalingam : CASSCF convergence, NEVPT2, FIC-MRCI
   Bernardo de Souza      : ESD, SOC TD-DFT
   Georgi Stoychev        : AutoAux, RI-MP2 NMR, DLPNO-MP2 response
   Willem Van den Heuvel  : Paramagnetic NMR
   Boris Wezisla          : Elementary symmetry handling
   Frank Wennmohs         : Technical directorship


 We gratefully acknowledge several colleagues who have allowed us to
 interface, adapt or use parts of their codes:
   Stefan Grimme, W. Hujo, H. Kruse, P. Pracht,  : VdW corrections, initial TS optimization,
                  C. Bannwarth, S. Ehlert          DFT functionals, gCP, sTDA/sTD-DF
   Ed Valeev, F. Pavosevic, A. Kumar             : LibInt (2-el integral package), F12 methods
   Garnet Chan, S. Sharma, J. Yang, R. Olivares  : DMRG
   Ulf Ekstrom                                   : XCFun DFT Library
   Mihaly Kallay                                 : mrcc  (arbitrary order and MRCC methods)
   Jiri Pittner, Ondrej Demel                    : Mk-CCSD
   Frank Weinhold                                : gennbo (NPA and NBO analysis)
   Christopher J. Cramer and Donald G. Truhlar   : smd solvation model
   Lars Goerigk                                  : TD-DFT with DH, B97 family of functionals
   V. Asgeirsson, H. Jonsson                     : NEB implementation
   FAccTs GmbH                                   : IRC, NEB, NEB-TS, DLPNO-Multilevel, CI-OPT
                                                   MM, QMMM, 2- and 3-layer-ONIOM, Crystal-QMMM,
                                                   LR-CPCM, SF, NACMEs, symmetry and pop. for TD-DFT,
                                                   nearIR, NL-DFT gradient (VV10), updates on ESD,
                                                   ML-optimized integration grids
   S Lehtola, MJT Oliveira, MAL Marques          : LibXC Library
   Liviu Ungur et al                             : ANISO software


 Your calculation uses the libint2 library for the computation of 2-el integrals
 For citations please refer to: http://libint.valeyev.net

 Your ORCA version has been built with support for libXC version: 5.1.0
 For citations please refer to: https://tddft.org/programs/libxc/

 This ORCA versions uses:
   CBLAS   interface :  Fast vector & matrix operations
   LAPACKE interface :  Fast linear algebra routines
   SCALAPACK package :  Parallel linear algebra routines
   Shared memory     :  Shared parallel matrices
   BLAS/LAPACK       :  OpenBLAS 0.3.15  USE64BITINT DYNAMIC_ARCH NO_AFFINITY Zen SINGLE_THREADED
        Core in use  :  Zen
   Copyright (c) 2011-2014, The OpenBLAS Project




***************************************
The coordinates will be read from file: model.xyz
***************************************


================================================================================

----- Orbital basis set information -----
Your calculation utilizes the basis: EPR-II
   V. Barone, in Recent Advances in Density Functional Methods, Part 1 (ed. D. P. Chong), World Scientific, Singapore, 1995, p. 287.

----- AuxJ basis set information -----
Your calculation utilizes the auxiliary basis: def2/J
   F. Weigend, Phys. Chem. Chem. Phys. 8, 1057 (2006).

================================================================================
                                        WARNINGS
                       Please study these warnings very carefully!
================================================================================


WARNING: your system is open-shell and RHF/RKS was chosen
  ===> : WILL SWITCH to UHF/UKS


WARNING: Geometry Optimization
  ===> : Switching off AutoStart
         For restart on a previous wavefunction, please use MOREAD

INFO   : the flag for use of the SHARK integral package has been found!

================================================================================
                                       INPUT FILE
================================================================================
NAME = opt.inp
|  1> ! B3LYP EPR-II OPT
|  2> %pal nprocs 16 end
|  3> *XYZFile 0 2 model.xyz
|  4> 
|  5>                          ****END OF INPUT****
================================================================================

                       *****************************
                       * Geometry Optimization Run *
                       *****************************

Geometry optimization settings:
Update method            Update   .... BFGS
Choice of coordinates    CoordSys .... Z-matrix Internals
Initial Hessian          InHess   .... Almoef's Model

Convergence Tolerances:
Energy Change            TolE     ....  5.0000e-06 Eh
Max. Gradient            TolMAXG  ....  3.0000e-04 Eh/bohr
RMS Gradient             TolRMSG  ....  1.0000e-04 Eh/bohr
Max. Displacement        TolMAXD  ....  4.0000e-03 bohr
RMS Displacement         TolRMSD  ....  2.0000e-03 bohr
Strict Convergence                ....  False
------------------------------------------------------------------------------
                        ORCA OPTIMIZATION COORDINATE SETUP
------------------------------------------------------------------------------

The optimization will be done in new redundant internal coordinates
Making redundant internal coordinates   ...  (new redundants) done
Evaluating the initial hessian          ...  (Almloef) done
Evaluating the coordinates              ...  done
Calculating the B-matrix                .... done
Calculating the G-matrix                .... done
Diagonalizing the G-matrix              .... done
Small eigenvalue found = 6.930e-03
Small eigenvalue found = 7.198e-03
Small eigenvalue found = 1.623e-02
The first mode is                       ....   45
The number of degrees of freedom        ....   75

    -----------------------------------------------------------------
                    Redundant Internal Coordinates


    -----------------------------------------------------------------
         Definition                    Initial Value    Approx d2E/dq
    -----------------------------------------------------------------
      1. B(C   1,N   0)                  1.3727         0.596271   
      2. B(C   2,C   1)                  1.4752         0.456874   
      3. B(O   3,C   2)                  1.2304         1.005707   
      4. B(C   4,C   1)                  1.5003         0.416595   
      5. B(H   5,C   4)                  1.0953         0.353139   
      6. B(H   6,C   4)                  1.0941         0.354664   
      7. B(C   7,C   4)                  1.5443         0.354455   
      8. B(H   8,C   7)                  1.0956         0.352734   
      9. B(H   9,C   7)                  1.1000         0.347130   
     10. B(C  10,C   7)                  1.5159         0.393407   
     11. B(O  11,C  10)                  1.3388         0.675365   
     12. B(O  12,C  10)                  1.2014         1.119033   
     13. B(H  13,N   0)                  1.0176         0.420746   
     14. B(C  14,N   0)                  1.3754         0.590462   
     15. B(N  15,C   2)                  1.3597         0.625520   
     16. B(H  16,O  11)                  0.9658         0.509007   
     17. B(H  17,N  15)                  1.0052         0.440340   
     18. B(O  18,C  14)                  1.2138         1.069147   
     19. B(C  19,C  14)                  1.5214         0.385534   
     20. B(H  20,C  19)                  1.0957         0.352601   
     21. B(H  21,C  19)                  1.0964         0.351701   
     22. B(H  22,C  19)                  1.0944         0.354314   
     23. B(C  23,N  15)                  1.4491         0.450402   
     24. B(H  24,C  23)                  1.0975         0.350375   
     25. B(H  25,C  23)                  1.0938         0.355111   
     26. B(H  26,C  23)                  1.0966         0.351491   
     27. A(H  13,N   0,C  14)          118.6063         0.354019   
     28. A(C   1,N   0,H  13)          111.3978         0.354607   
     29. A(C   1,N   0,C  14)          129.9817         0.421729   
     30. A(C   2,C   1,C   4)          125.4967         0.383312   
     31. A(N   0,C   1,C   4)          123.1704         0.399023   
     32. A(N   0,C   1,C   2)          111.3190         0.405568   
     33. A(C   1,C   2,N  15)          118.0587         0.409018   
     34. A(C   1,C   2,O   3)          120.6059         0.445329   
     35. A(O   3,C   2,N  15)          121.3329         0.468442   
     36. A(C   1,C   4,C   7)          112.8955         0.366880   
     37. A(C   1,C   4,H   6)          109.8792         0.329367   
     38. A(C   1,C   4,H   5)          109.9900         0.329133   
     39. A(H   6,C   4,C   7)          108.3111         0.320738   
     40. A(H   5,C   4,H   6)          106.6474         0.289259   
     41. A(H   5,C   4,C   7)          108.9094         0.320512   
     42. A(H   8,C   7,C  10)          108.9473         0.325979   
     43. A(C   4,C   7,C  10)          111.6118         0.363301   
     44. A(H   8,C   7,H   9)          107.1735         0.288236   
     45. A(C   4,C   7,H   9)          111.3762         0.319615   
     46. A(C   4,C   7,H   8)          110.5932         0.320452   
     47. A(H   9,C   7,C  10)          106.9601         0.325121   
     48. A(O  11,C  10,O  12)          122.5209         0.484528   
     49. A(C   7,C  10,O  12)          125.6878         0.441895   
     50. A(C   7,C  10,O  11)          111.7784         0.403781   
     51. A(C  10,O  11,H  16)          107.8527         0.374234   
     52. A(O  18,C  14,C  19)          121.8529         0.436677   
     53. A(N   0,C  14,C  19)          114.8728         0.392959   
     54. A(N   0,C  14,O  18)          123.2742         0.468742   
     55. A(C   2,N  15,H  17)          120.2035         0.360282   
     56. A(H  17,N  15,C  23)          119.1677         0.340846   
     57. A(C   2,N  15,C  23)          120.4901         0.405361   
     58. A(C  14,C  19,H  21)          108.2813         0.324741   
     59. A(C  14,C  19,H  20)          108.2314         0.324877   
     60. A(H  21,C  19,H  22)          109.2683         0.289029   
     61. A(H  20,C  19,H  22)          109.5860         0.289145   
     62. A(C  14,C  19,H  22)          113.6698         0.325136   
     63. A(H  20,C  19,H  21)          107.6240         0.288810   
     64. A(H  24,C  23,H  26)          107.9523         0.288497   
     65. A(N  15,C  23,H  26)          110.4476         0.331144   
     66. A(H  24,C  23,H  25)          109.3777         0.288960   
     67. A(N  15,C  23,H  25)          108.7073         0.331706   
     68. A(H  25,C  23,H  26)          109.2984         0.289104   
     69. A(N  15,C  23,H  24)          111.0346         0.330970   
     70. D(C   2,C   1,N   0,C  14)    175.8460         0.028623   
     71. D(C   4,C   1,N   0,H  13)    178.5511         0.028623   
     72. D(C   4,C   1,N   0,C  14)     -2.8604         0.028623   
     73. D(C   2,C   1,N   0,H  13)     -2.7424         0.028623   
     74. D(N  15,C   2,C   1,N   0)   -178.4575         0.014222   
     75. D(N  15,C   2,C   1,C   4)      0.2126         0.014222   
     76. D(O   3,C   2,C   1,C   4)    179.6493         0.014222   
     77. D(O   3,C   2,C   1,N   0)      0.9792         0.014222   
     78. D(H   6,C   4,C   1,N   0)    -39.0807         0.012840   
     79. D(H   6,C   4,C   1,C   2)    142.3994         0.012840   
     80. D(C   7,C   4,C   1,C   2)    -96.5791         0.012840   
     81. D(C   7,C   4,C   1,N   0)     81.9408         0.012840   
     82. D(H   5,C   4,C   1,C   2)     25.2894         0.012840   
     83. D(H   5,C   4,C   1,N   0)   -156.1907         0.012840   
     84. D(H   8,C   7,C   4,C   1)    -70.6902         0.010103   
     85. D(C  10,C   7,C   4,H   5)     45.3718         0.010103   
     86. D(C  10,C   7,C   4,C   1)    167.8469         0.010103   
     87. D(H   9,C   7,C   4,H   6)    170.2829         0.010103   
     88. D(H   9,C   7,C   4,H   5)    -74.1009         0.010103   
     89. D(H   9,C   7,C   4,C   1)     48.3742         0.010103   
     90. D(H   8,C   7,C   4,H   6)     51.2185         0.010103   
     91. D(C  10,C   7,C   4,H   6)    -70.2444         0.010103   
     92. D(H   8,C   7,C   4,H   5)    166.8347         0.010103   
     93. D(O  12,C  10,C   7,H   9)    109.4749         0.011504   
     94. D(O  12,C  10,C   7,H   8)   -134.9896         0.011504   
     95. D(O  12,C  10,C   7,C   4)    -12.5776         0.011504   
     96. D(O  11,C  10,C   7,H   9)    -69.2389         0.011504   
     97. D(O  11,C  10,C   7,H   8)     46.2967         0.011504   
     98. D(O  11,C  10,C   7,C   4)    168.7086         0.011504   
     99. D(H  16,O  11,C  10,O  12)      0.1490         0.033931   
    100. D(H  16,O  11,C  10,C   7)    178.9100         0.033931   
    101. D(C  19,C  14,N   0,H  13)     -3.4315         0.028030   
    102. D(C  19,C  14,N   0,C   1)    178.0655         0.028030   
    103. D(O  18,C  14,N   0,H  13)    176.5517         0.028030   
    104. D(O  18,C  14,N   0,C   1)     -1.9513         0.028030   
    105. D(C  23,N  15,C   2,O   3)      1.3703         0.031728   
    106. D(C  23,N  15,C   2,C   1)   -179.1972         0.031728   
    107. D(H  17,N  15,C   2,O   3)    177.0538         0.031728   
    108. D(H  17,N  15,C   2,C   1)     -3.5137         0.031728   
    109. D(H  22,C  19,C  14,O  18)   -176.2431         0.011072   
    110. D(H  22,C  19,C  14,N   0)      3.7404         0.011072   
    111. D(H  21,C  19,C  14,O  18)     62.1383         0.011072   
    112. D(H  21,C  19,C  14,N   0)   -117.8782         0.011072   
    113. D(H  20,C  19,C  14,O  18)    -54.2551         0.011072   
    114. D(H  20,C  19,C  14,N   0)    125.7284         0.011072   
    115. D(H  26,C  23,N  15,H  17)    125.4897         0.017306   
    116. D(H  26,C  23,N  15,C   2)    -58.7825         0.017306   
    117. D(H  25,C  23,N  15,H  17)      5.5797         0.017306   
    118. D(H  25,C  23,N  15,C   2)   -178.6924         0.017306   
    119. D(H  24,C  23,N  15,H  17)   -114.7869         0.017306   
    120. D(H  24,C  23,N  15,C   2)     60.9410         0.017306   
    -----------------------------------------------------------------

Number of atoms                         .... 27
Number of degrees of freedom            .... 120

         *************************************************************
         *                GEOMETRY OPTIMIZATION CYCLE   1            *
         *************************************************************
---------------------------------
CARTESIAN COORDINATES (ANGSTROEM)
---------------------------------
  N      1.484752    1.102836    0.038732
  C      0.784314   -0.057533    0.256201
  C      1.614376   -1.245066   -0.021284
  O      2.784919   -1.121331   -0.379694
  C     -0.651628   -0.080474    0.690407
  H     -0.874686   -1.025839    1.196610
  H     -0.832791    0.715522    1.418908
  C     -1.637448    0.103111   -0.484038
  H     -1.598600    1.130458   -0.862779
  H     -1.388848   -0.562294   -1.323920
  C     -3.061175   -0.216487   -0.073100
  O     -3.944739    0.168842   -1.002218
  O     -3.390544   -0.768348    0.941900
  H      2.448233    0.910746   -0.226558
  C      1.068009    2.411973    0.103315
  N      1.043943   -2.471227    0.119708
  H     -4.826078   -0.075945   -0.692254
  H      0.100238   -2.554320    0.455901
  O     -0.075409    2.735408    0.350752
  C      2.154843    3.443294   -0.161062
  H      1.811827    4.104482   -0.964674
  H      2.276786    4.053560    0.741629
  H      3.119789    3.004713   -0.433566
  C      1.815826   -3.673484   -0.122444
  H      2.669891   -3.738132    0.563701
  H      1.167092   -4.542078    0.022751
  H      2.204784   -3.679002   -1.147717

----------------------------
CARTESIAN COORDINATES (A.U.)
----------------------------
  NO LB      ZA    FRAG     MASS         X           Y           Z
   0 N     7.0000    0    14.007    2.805775    2.084058    0.073193
   1 C     6.0000    0    12.011    1.482139   -0.108722    0.484150
   2 C     6.0000    0    12.011    3.050729   -2.352834   -0.040221
   3 O     8.0000    0    15.999    5.262734   -2.119008   -0.717518
   4 C     6.0000    0    12.011   -1.231398   -0.152074    1.304680
   5 H     1.0000    0     1.008   -1.652917   -1.938555    2.261265
   6 H     1.0000    0     1.008   -1.573747    1.352141    2.681348
   7 C     6.0000    0    12.011   -3.094328    0.194852   -0.914699
   8 H     1.0000    0     1.008   -3.020916    2.136256   -1.630416
   9 H     1.0000    0     1.008   -2.624542   -1.062582   -2.501846
  10 C     6.0000    0    12.011   -5.784782   -0.409101   -0.138139
  11 O     8.0000    0    15.999   -7.454476    0.319065   -1.893918
  12 O     8.0000    0    15.999   -6.407200   -1.451967    1.779933
  13 H     1.0000    0     1.008    4.626490    1.721061   -0.428133
  14 C     6.0000    0    12.011    2.018245    4.557968    0.195237
  15 N     7.0000    0    14.007    1.972766   -4.669942    0.226215
  16 H     1.0000    0     1.008   -9.119966   -0.143515   -1.308170
  17 H     1.0000    0     1.008    0.189422   -4.826965    0.861528
  18 O     8.0000    0    15.999   -0.142502    5.169172    0.662825
  19 C     6.0000    0    12.011    4.072063    6.506883   -0.304363
  20 H     1.0000    0     1.008    3.423857    7.756347   -1.822970
  21 H     1.0000    0     1.008    4.302502    7.660118    1.401476
  22 H     1.0000    0     1.008    5.895547    5.678085   -0.819321
  23 C     6.0000    0    12.011    3.431414   -6.941879   -0.231386
  24 H     1.0000    0     1.008    5.045363   -7.064046    1.065241
  25 H     1.0000    0     1.008    2.205484   -8.583283    0.042993
  26 H     1.0000    0     1.008    4.166438   -6.952306   -2.168871

--------------------------------
INTERNAL COORDINATES (ANGSTROEM)
--------------------------------
 N      0   0   0     0.000000000000     0.00000000     0.00000000
 C      1   0   0     1.372720792429     0.00000000     0.00000000
 C      2   1   0     1.475206926217   111.31895788     0.00000000
 O      3   2   1     1.230422282460   120.60594878     0.97924083
 C      2   1   3     1.500330152760   123.17039601   181.29351525
 H      5   2   1     1.095313348681   109.98997594   203.80931320
 H      5   2   1     1.094140471597   109.87923683   320.91925298
 C      5   2   1     1.544301001311   112.89550354    81.94083462
 H      8   5   2     1.095625743853   110.59317135   289.30975124
 H      8   5   2     1.099985248969   111.37619222    48.37420466
 C      8   5   2     1.515919355367   111.61180174   167.84685677
 O     11   8   5     1.338814415168   111.77840617   168.70862748
 O     11   8   5     1.201357357942   125.68779198   347.42240537
 H      1   2   3     1.017631067510   111.39783629   357.25761826
 C      1   2   3     1.375385537479   129.98171947   175.84603593
 N      3   2   1     1.359685018478   118.05872784   181.54245914
 H     12  11   8     0.965793347247   107.85274649   178.91000755
 H     16   3   2     1.005240919841   120.20354985   356.48627795
 O     15   1   2     1.213770979600   123.27421718   358.04873355
 C     15   1   2     1.521422474767   114.87284792   178.06552100
 H     20  15   1     1.095728887154   108.23144440   125.72840990
 H     20  15   1     1.096424063712   108.28128962   242.12177304
 H     20  15   1     1.094409661184   113.66975793     3.74039150
 C     16   3   2     1.449090352891   120.49006154   180.80278457
 H     24  16   3     1.097452208141   111.03455004    60.94098428
 H     24  16   3     1.093797480166   108.70732646   181.30755742
 H     24  16   3     1.096587205204   110.44756474   301.21749059

---------------------------
INTERNAL COORDINATES (A.U.)
---------------------------
 N      0   0   0     0.000000000000     0.00000000     0.00000000
 C      1   0   0     2.594066356030     0.00000000     0.00000000
 C      2   1   0     2.787737081414   111.31895788     0.00000000
 O      3   2   1     2.325161142924   120.60594878     0.97924083
 C      2   1   3     2.835213099181   123.17039601   181.29351525
 H      5   2   1     2.069842259835   109.98997594   203.80931320
 H      5   2   1     2.067625843357   109.87923683   320.91925298
 C      5   2   1     2.918305960818   112.89550354    81.94083462
 H      8   5   2     2.070432601156   110.59317135   289.30975124
 H      8   5   2     2.078670871904   111.37619222    48.37420466
 C      8   5   2     2.864672422755   111.61180174   167.84685677
 O     11   8   5     2.529992588813   111.77840617   168.70862748
 O     11   8   5     2.270236395482   125.68779198   347.42240537
 H      1   2   3     1.923044022963   111.39783629   357.25761826
 C      1   2   3     2.599101994392   129.98171947   175.84603593
 N      3   2   1     2.569432313319   118.05872784   181.54245914
 H     12  11   8     1.825084928259   107.85274649   178.91000755
 H     16   3   2     1.899630037111   120.20354985   356.48627795
 O     15   1   2     2.293694740744   123.27421718   358.04873355
 C     15   1   2     2.875071811302   114.87284792   178.06552100
 H     20  15   1     2.070627513748   108.23144440   125.72840990
 H     20  15   1     2.071941207056   108.28128962   242.12177304
 H     20  15   1     2.068134537955   113.66975793     3.74039150
 C     16   3   2     2.738383910271   120.49006154   180.80278457
 H     24  16   3     2.073884118454   111.03455004    60.94098428
 H     24  16   3     2.066977683486   108.70732646   181.30755742
 H     24  16   3     2.072249499798   110.44756474   301.21749059

---------------------
BASIS SET INFORMATION
---------------------
There are 4 groups of distinct atoms

 Group   1 Type N   : 10s5p1d contracted to 6s2p1d pattern {511111/41/1}
 Group   2 Type C   : 10s5p1d contracted to 6s2p1d pattern {511111/41/1}
 Group   3 Type O   : 10s5p1d contracted to 6s2p1d pattern {511111/41/1}
 Group   4 Type H   : 6s1p contracted to 4s1p pattern {3111/1}

Atom   0N    basis set group =>   1
Atom   1C    basis set group =>   2
Atom   2C    basis set group =>   2
Atom   3O    basis set group =>   3
Atom   4C    basis set group =>   2
Atom   5H    basis set group =>   4
Atom   6H    basis set group =>   4
Atom   7C    basis set group =>   2
Atom   8H    basis set group =>   4
Atom   9H    basis set group =>   4
Atom  10C    basis set group =>   2
Atom  11O    basis set group =>   3
Atom  12O    basis set group =>   3
Atom  13H    basis set group =>   4
Atom  14C    basis set group =>   2
Atom  15N    basis set group =>   1
Atom  16H    basis set group =>   4
Atom  17H    basis set group =>   4
Atom  18O    basis set group =>   3
Atom  19C    basis set group =>   2
Atom  20H    basis set group =>   4
Atom  21H    basis set group =>   4
Atom  22H    basis set group =>   4
Atom  23C    basis set group =>   2
Atom  24H    basis set group =>   4
Atom  25H    basis set group =>   4
Atom  26H    basis set group =>   4
---------------------------------
AUXILIARY/J BASIS SET INFORMATION
---------------------------------
There are 4 groups of distinct atoms

 Group   1 Type N   : 12s5p4d2f1g contracted to 6s4p3d1f1g pattern {711111/2111/211/2/1}
 Group   2 Type C   : 12s5p4d2f1g contracted to 6s4p3d1f1g pattern {711111/2111/211/2/1}
 Group   3 Type O   : 12s5p4d2f1g contracted to 6s4p3d1f1g pattern {711111/2111/211/2/1}
 Group   4 Type H   : 5s2p1d contracted to 3s1p1d pattern {311/2/1}

Atom   0N    basis set group =>   1
Atom   1C    basis set group =>   2
Atom   2C    basis set group =>   2
Atom   3O    basis set group =>   3
Atom   4C    basis set group =>   2
Atom   5H    basis set group =>   4
Atom   6H    basis set group =>   4
Atom   7C    basis set group =>   2
Atom   8H    basis set group =>   4
Atom   9H    basis set group =>   4
Atom  10C    basis set group =>   2
Atom  11O    basis set group =>   3
Atom  12O    basis set group =>   3
Atom  13H    basis set group =>   4
Atom  14C    basis set group =>   2
Atom  15N    basis set group =>   1
Atom  16H    basis set group =>   4
Atom  17H    basis set group =>   4
Atom  18O    basis set group =>   3
Atom  19C    basis set group =>   2
Atom  20H    basis set group =>   4
Atom  21H    basis set group =>   4
Atom  22H    basis set group =>   4
Atom  23C    basis set group =>   2
Atom  24H    basis set group =>   4
Atom  25H    basis set group =>   4
Atom  26H    basis set group =>   4


           ************************************************************
           *        Program running with 16 parallel MPI-processes    *
           *              working on a common directory               *
           ************************************************************
------------------------------------------------------------------------------
                           ORCA GTO INTEGRAL CALCULATION
                           -- RI-GTO INTEGRALS CHOSEN --
------------------------------------------------------------------------------
------------------------------------------------------------------------------
                   ___                                                        
                  /   \      - P O W E R E D   B Y -                         
                 /     \                                                     
                 |  |  |   _    _      __       _____    __    __             
                 |  |  |  | |  | |    /  \     |  _  \  |  |  /  |          
                  \  \/   | |  | |   /    \    | | | |  |  | /  /          
                 / \  \   | |__| |  /  /\  \   | |_| |  |  |/  /          
                |  |  |   |  __  | /  /__\  \  |    /   |      \           
                |  |  |   | |  | | |   __   |  |    \   |  |\   \          
                \     /   | |  | | |  |  |  |  | |\  \  |  | \   \       
                 \___/    |_|  |_| |__|  |__|  |_| \__\ |__|  \__/        
                                                                              
                      - O R C A' S   B I G   F R I E N D -                    
                                      &                                       
                       - I N T E G R A L  F E E D E R -                       
                                                                              
 v1 FN, 2020, v2 2021                                                         
------------------------------------------------------------------------------


Reading SHARK input file opt.SHARKINP.tmp ... ok
----------------------
SHARK INTEGRAL PACKAGE
----------------------

Number of atoms                             ...     27
Number of basis functions                   ...    329
Number of shells                            ...    191
Maximum angular momentum                    ...      2
Integral batch strategy                     ... SHARK/LIBINT Hybrid
RI-J (if used) integral strategy            ... SPLIT-RIJ (Revised 2003 algorithm where possible)
Printlevel                                  ...      1
Contraction scheme used                     ... SEGMENTED contraction
Coulomb Range Separation                    ... NOT USED
Exchange Range Separation                   ... NOT USED
Finite Nucleus Model                        ... NOT USED
Auxiliary Coulomb fitting basis             ... AVAILABLE
   # of basis functions in Aux-J            ...    829
   # of shells in Aux-J                     ...    275
   Maximum angular momentum in Aux-J        ...      4
Auxiliary J/K fitting basis                 ... NOT available
Auxiliary Correlation fitting basis         ... NOT available
Auxiliary 'external' fitting basis          ... NOT available
Integral threshold                          ...     2.500000e-11
Primitive cut-off                           ...     2.500000e-12
Primitive pair pre-selection threshold      ...     2.500000e-12

Calculating pre-screening integrals         ... done (  0.0 sec) Dimension = 191
Organizing shell pair data                  ... done (  0.0 sec)
Shell pair information
Total number of shell pairs                 ...     18336
Shell pairs after pre-screening             ...     12586
Total number of primitive shell pairs       ...     50033
Primitive shell pairs kept                  ...     24951
          la=0 lb=0:   5733 shell pairs
          la=1 lb=0:   4279 shell pairs
          la=1 lb=1:    745 shell pairs
          la=2 lb=0:   1283 shell pairs
          la=2 lb=1:    466 shell pairs
          la=2 lb=2:     80 shell pairs

Calculating one electron integrals          ... done (  0.0 sec)
Calculating RI/J V-Matrix + Cholesky decomp.... done (  0.0 sec)
Calculating Nuclear repulsion               ... done (  0.0 sec) ENN=    911.528116658374 Eh

SHARK setup successfully completed in   0.2 seconds

Maximum memory used throughout the entire GTOINT-calculation: 19.5 MB


           ************************************************************
           *        Program running with 16 parallel MPI-processes    *
           *              working on a common directory               *
           ************************************************************
-------------------------------------------------------------------------------
                                 ORCA SCF
-------------------------------------------------------------------------------

------------
SCF SETTINGS
------------
Hamiltonian:
 Density Functional     Method          .... DFT(GTOs)
 Exchange Functional    Exchange        .... B88
   X-Alpha parameter    XAlpha          ....  0.666667
   Becke's b parameter  XBeta           ....  0.004200
 Correlation Functional Correlation     .... LYP
 LDA part of GGA corr.  LDAOpt          .... VWN-5
 Gradients option       PostSCFGGA      .... off
 Hybrid DFT is turned on
   Fraction HF Exchange ScalHFX         ....  0.200000
   Scaling of DF-GGA-X  ScalDFX         ....  0.720000
   Scaling of DF-GGA-C  ScalDFC         ....  0.810000
   Scaling of DF-LDA-C  ScalLDAC        ....  1.000000
   Perturbative correction              ....  0.000000
   Density functional embedding theory  .... OFF
   NL short-range parameter             ....  4.800000
 RI-approximation to the Coulomb term is turned on
   Number of AuxJ basis functions       .... 829
   RIJ-COSX (HFX calculated with COS-X)).... on


General Settings:
 Integral files         IntName         .... opt
 Hartree-Fock type      HFTyp           .... UHF
 Total Charge           Charge          ....    0
 Multiplicity           Mult            ....    2
 Number of Electrons    NEL             ....  107
 Basis Dimension        Dim             ....  329
 Nuclear Repulsion      ENuc            ....    911.5281166584 Eh

Convergence Acceleration:
 DIIS                   CNVDIIS         .... on
   Start iteration      DIISMaxIt       ....    12
   Startup error        DIISStart       ....  0.200000
   # of expansion vecs  DIISMaxEq       ....     5
   Bias factor          DIISBfac        ....   1.050
   Max. coefficient     DIISMaxC        ....  10.000
 Trust-Rad. Augm. Hess. CNVTRAH         .... auto
   Auto Start mean grad. ratio tolernc. ....  1.125000
   Auto Start start iteration           ....    20
   Auto Start num. interpolation iter.  ....    10
   Max. Number of Micro iterations      ....    16
   Max. Number of Macro iterations      .... Maxiter - #DIIS iter
   Number of Davidson start vectors     ....     2
   Converg. threshold I  (grad. norm)   ....   1.000e-05
   Converg. threshold II (energy diff.) ....   1.000e-08
   Grad. Scal. Fac. for Micro threshold ....   0.100
   Minimum threshold for Micro iter.    ....   0.010
   NR start threshold (gradient norm)   ....   0.001
   Initial trust radius                 ....   0.400
   Minimum AH scaling param. (alpha)    ....   1.000
   Maximum AH scaling param. (alpha)    .... 1000.000
   Orbital update algorithm             .... Taylor
   White noise on init. David. guess    .... on
   Maximum white noise                  ....   0.010
   Quad. conv. algorithm                .... NR
 SOSCF                  CNVSOSCF        .... off
 Level Shifting         CNVShift        .... on
   Level shift para.    LevelShift      ....    0.2500
   Turn off err/grad.   ShiftErr        ....    0.0010
 Zerner damping         CNVZerner       .... off
 Static damping         CNVDamp         .... on
   Fraction old density DampFac         ....    0.7000
   Max. Damping (<1)    DampMax         ....    0.9800
   Min. Damping (>=0)   DampMin         ....    0.0000
   Turn off err/grad.   DampErr         ....    0.1000
 Fernandez-Rico         CNVRico         .... off

SCF Procedure:
 Maximum # iterations   MaxIter         ....   125
 SCF integral mode      SCFMode         .... Direct
   Integral package                     .... SHARK and LIBINT hybrid scheme
 Reset frequency        DirectResetFreq ....    20
 Integral Threshold     Thresh          ....  2.500e-11 Eh
 Primitive CutOff       TCut            ....  2.500e-12 Eh

Convergence Tolerance:
 Convergence Check Mode ConvCheckMode   .... Total+1el-Energy
 Convergence forced     ConvForced      .... 0
 Energy Change          TolE            ....  1.000e-08 Eh
 1-El. energy change                    ....  1.000e-05 Eh
 DIIS Error             TolErr          ....  5.000e-07


Diagonalization of the overlap matrix:
Smallest eigenvalue                        ... 5.968e-04
Time for diagonalization                   ...    0.012 sec
Threshold for overlap eigenvalues          ... 1.000e-08
Number of eigenvalues below threshold      ... 0
Time for construction of square roots      ...    0.009 sec
Total time needed                          ...    0.022 sec

Time for model grid setup =    0.110 sec

------------------------------
INITIAL GUESS: MODEL POTENTIAL
------------------------------
Loading Hartree-Fock densities                     ... done
Calculating cut-offs                               ... done
Initializing the effective Hamiltonian             ... done
Setting up the integral package (SHARK)            ... done
Starting the Coulomb interaction                   ... done (   0.1 sec)
Reading the grid                                   ... done
Mapping shells                                     ... done
Starting the XC term evaluation                    ... done (   0.0 sec)
  promolecular density results
     # of electrons  =    106.994813795
     EX              =    -90.973227651
     EC              =     -3.679627592
     EX+EC           =    -94.652855243
Transforming the Hamiltonian                       ... done (   0.0 sec)
Diagonalizing the Hamiltonian                      ... done (   0.0 sec)
Back transforming the eigenvectors                 ... done (   0.0 sec)
Now organizing SCF variables                       ... done
                      ------------------
                      INITIAL GUESS DONE (   0.3 sec)
                      ------------------
-------------------
DFT GRID GENERATION
-------------------

General Integration Accuracy     IntAcc      ... 4.388
Radial Grid Type                 RadialGrid  ... OptM3 with GC (2021)
Angular Grid (max. ang.)         AngularGrid ... 4 (Lebedev-302)
Angular grid pruning method      GridPruning ... 4 (adaptive)
Weight generation scheme         WeightScheme... Becke
Basis function cutoff            BFCut       ... 1.0000e-11
Integration weight cutoff        WCut        ... 1.0000e-14
Angular grids for H and He will be reduced by one unit
Partially contracted basis set               ... off
Rotationally invariant grid construction     ... off

Total number of grid points                  ...   125964
Total number of batches                      ...     1983
Average number of points per batch           ...       63
Average number of grid points per atom       ...     4665
Time for grid setup =    0.545 sec

--------------------
COSX GRID GENERATION
--------------------

GRIDX 1
-------
General Integration Accuracy     IntAcc      ... 3.816
Radial Grid Type                 RadialGrid  ... OptM3 with GC (2021)
Angular Grid (max. ang.)         AngularGrid ... 1 (Lebedev-50)
Angular grid pruning method      GridPruning ... 4 (adaptive)
Weight generation scheme         WeightScheme... Becke
Basis function cutoff            BFCut       ... 1.0000e-11
Integration weight cutoff        WCut        ... 1.0000e-14
Angular grids for H and He will be reduced by one unit
Partially contracted basis set               ... on
Rotationally invariant grid construction     ... off

Total number of grid points                  ...    16078
Total number of batches                      ...      266
Average number of points per batch           ...       60
Average number of grid points per atom       ...      595
UseSFitting                                  ... on

GRIDX 2
-------
General Integration Accuracy     IntAcc      ... 4.020
Radial Grid Type                 RadialGrid  ... OptM3 with GC (2021)
Angular Grid (max. ang.)         AngularGrid ... 2 (Lebedev-110)
Angular grid pruning method      GridPruning ... 4 (adaptive)
Weight generation scheme         WeightScheme... Becke
Basis function cutoff            BFCut       ... 1.0000e-11
Integration weight cutoff        WCut        ... 1.0000e-14
Angular grids for H and He will be reduced by one unit
Partially contracted basis set               ... on
Rotationally invariant grid construction     ... off

Total number of grid points                  ...    34796
Total number of batches                      ...      558
Average number of points per batch           ...       62
Average number of grid points per atom       ...     1289
UseSFitting                                  ... on

GRIDX 3
-------
General Integration Accuracy     IntAcc      ... 4.338
Radial Grid Type                 RadialGrid  ... OptM3 with GC (2021)
Angular Grid (max. ang.)         AngularGrid ... 3 (Lebedev-194)
Angular grid pruning method      GridPruning ... 4 (adaptive)
Weight generation scheme         WeightScheme... Becke
Basis function cutoff            BFCut       ... 1.0000e-11
Integration weight cutoff        WCut        ... 1.0000e-14
Angular grids for H and He will be reduced by one unit
Partially contracted basis set               ... on
Rotationally invariant grid construction     ... off

Total number of grid points                  ...    76202
Total number of batches                      ...     1207
Average number of points per batch           ...       63
Average number of grid points per atom       ...     2822
UseSFitting                                  ... on

Time for X-Grid setup             =    0.582 sec

--------------
SCF ITERATIONS
--------------
ITER       Energy         Delta-E        Max-DP      RMS-DP      [F,P]     Damp
               ***  Starting incremental Fock matrix formation  ***
  0   -722.3481961180   0.000000000000 0.06601970  0.00107755  0.1334124 0.7000
  1   -722.5996901789  -0.251494060964 0.03937876  0.00071196  0.0516241 0.7000
                               ***Turning on DIIS***
  2   -722.6846798003  -0.084989621329 0.06113659  0.00105203  0.0182165 0.0000
  3   -722.8353442295  -0.150664429239 0.02578061  0.00051233  0.0267389 0.0000
  4   -722.8628497116  -0.027505482101 0.00998054  0.00017293  0.0088446 0.0000
  5   -722.8653466991  -0.002496987436 0.00449716  0.00005769  0.0028759 0.0000
  6   -722.8655444014  -0.000197702391 0.00174294  0.00002384  0.0017360 0.0000
  7   -722.8655871170  -0.000042715538 0.00309981  0.00002376  0.0006541 0.0000
               *** Restarting incremental Fock matrix formation ***
                                   *** Resetting DIIS ***
  8   -722.8655938916  -0.000006774636 0.00076072  0.00001167  0.0003031 0.0000
  9   -722.8655961655  -0.000002273921 0.00043154  0.00000478  0.0004327 0.0000
 10   -722.8655985139  -0.000002348404 0.00029341  0.00000308  0.0001380 0.0000
 11   -722.8655989643  -0.000000450396 0.00024187  0.00000193  0.0001306 0.0000
 12   -722.8655992432  -0.000000278902 0.00007417  0.00000067  0.0000417 0.0000
 13   -722.8655992734  -0.000000030122 0.00003774  0.00000027  0.0000120 0.0000
 14   -722.8655992785  -0.000000005108 0.00001667  0.00000011  0.0000069 0.0000
 15   -722.8655992727   0.000000005777 0.00001225  0.00000007  0.0000045 0.0000
 16   -722.8655992786  -0.000000005926 0.00000599  0.00000005  0.0000033 0.0000
 17   -722.8655992782   0.000000000396 0.00000236  0.00000003  0.0000015 0.0000
                 **** Energy Check signals convergence ****

               *****************************************************
               *                     SUCCESS                       *
               *           SCF CONVERGED AFTER  18 CYCLES          *
               *****************************************************

Old exchange energy                            =    -18.446033970 Eh
New exchange energy                            =    -18.446054606 Eh
Exchange energy change after final integration =     -0.000020636 Eh
Total energy after final integration           =   -722.865619914 Eh
Final COS-X integration done in                =     1.805 sec

----------------
TOTAL SCF ENERGY
----------------

Total Energy       :         -722.86561991 Eh          -19670.17353 eV

Components:
Nuclear Repulsion  :          911.52811666 Eh           24803.94106 eV
Electronic Energy  :        -1634.39373657 Eh          -44474.11459 eV
One Electron Energy:        -2795.02230013 Eh          -76056.42342 eV
Two Electron Energy:         1160.62856356 Eh           31582.30883 eV
Max COSX asymmetry :            0.00000092 Eh               0.00003 eV

Virial components:
Potential Energy   :        -1441.28514403 Eh          -39219.36264 eV
Kinetic Energy     :          718.41952411 Eh           19549.18911 eV
Virial Ratio       :            2.00618872


DFT components:
N(Alpha)           :       53.999970417811 electrons
N(Beta)            :       52.999966535361 electrons
N(Total)           :      106.999936953173 electrons
E(X)               :      -73.357837558482 Eh       
E(C)               :       -4.333241485192 Eh       
E(XC)              :      -77.691079043674 Eh       
DFET-embed. en.    :        0.000000000000 Eh       

---------------
SCF CONVERGENCE
---------------

  Last Energy change         ...   -3.3128e-10  Tolerance :   1.0000e-08
  Last MAX-Density change    ...    0.0000e+00  Tolerance :   1.0000e-07
  Last RMS-Density change    ...    0.0000e+00  Tolerance :   5.0000e-09
  Last DIIS Error            ...    1.3266e-06  Tolerance :   5.0000e-07

             **** THE GBW FILE WAS UPDATED (opt.gbw) ****
             **** DENSITY opt.scfp WAS UPDATED ****
             **** ENERGY FILE WAS UPDATED (opt.en.tmp) ****
----------------------
UHF SPIN CONTAMINATION
----------------------

Warning: in a DFT calculation there is little theoretical justification to 
         calculate <S**2> as in Hartree-Fock theory. We will do it anyways
         but you should keep in mind that the values have only limited relevance

Expectation value of <S**2>     :     0.754981
Ideal value S*(S+1) for S=0.5   :     0.750000
Deviation                       :     0.004981

             **** THE GBW FILE WAS UPDATED (opt.gbw) ****
             **** DENSITY opt.scfp WAS UPDATED ****
----------------
ORBITAL ENERGIES
----------------
                 SPIN UP ORBITALS
  NO   OCC          E(Eh)            E(eV) 
   0   1.0000     -19.195657      -522.3404 
   1   1.0000     -19.141728      -520.8729 
   2   1.0000     -19.122276      -520.3436 
   3   1.0000     -19.110246      -520.0162 
   4   1.0000     -14.384607      -391.4251 
   5   1.0000     -14.363355      -390.8468 
   6   1.0000     -10.331567      -281.1362 
   7   1.0000     -10.304434      -280.3979 
   8   1.0000     -10.293444      -280.0989 
   9   1.0000     -10.249637      -278.9068 
  10   1.0000     -10.220305      -278.1086 
  11   1.0000     -10.209204      -277.8066 
  12   1.0000     -10.207115      -277.7497 
  13   1.0000     -10.197119      -277.4777 
  14   1.0000      -1.120300       -30.4849 
  15   1.0000      -1.057109       -28.7654 
  16   1.0000      -1.042334       -28.3633 
  17   1.0000      -1.027333       -27.9552 
  18   1.0000      -0.953182       -25.9374 
  19   1.0000      -0.926973       -25.2242 
  20   1.0000      -0.814355       -22.1597 
  21   1.0000      -0.765256       -20.8237 
  22   1.0000      -0.733191       -19.9512 
  23   1.0000      -0.700303       -19.0562 
  24   1.0000      -0.669365       -18.2144 
  25   1.0000      -0.609211       -16.5775 
  26   1.0000      -0.600203       -16.3323 
  27   1.0000      -0.568744       -15.4763 
  28   1.0000      -0.556570       -15.1450 
  29   1.0000      -0.506540       -13.7837 
  30   1.0000      -0.491975       -13.3873 
  31   1.0000      -0.489038       -13.3074 
  32   1.0000      -0.484139       -13.1741 
  33   1.0000      -0.469701       -12.7812 
  34   1.0000      -0.460819       -12.5395 
  35   1.0000      -0.455516       -12.3952 
  36   1.0000      -0.448770       -12.2116 
  37   1.0000      -0.433253       -11.7894 
  38   1.0000      -0.420148       -11.4328 
  39   1.0000      -0.416455       -11.3323 
  40   1.0000      -0.408909       -11.1270 
  41   1.0000      -0.406632       -11.0650 
  42   1.0000      -0.399617       -10.8741 
  43   1.0000      -0.384506       -10.4629 
  44   1.0000      -0.380974       -10.3668 
  45   1.0000      -0.379207       -10.3187 
  46   1.0000      -0.361962        -9.8495 
  47   1.0000      -0.330910        -9.0045 
  48   1.0000      -0.324340        -8.8257 
  49   1.0000      -0.287311        -7.8181 
  50   1.0000      -0.268947        -7.3184 
  51   1.0000      -0.267821        -7.2878 
  52   1.0000      -0.266746        -7.2585 
  53   1.0000      -0.180689        -4.9168 
  54   0.0000       0.002644         0.0719 
  55   0.0000       0.008141         0.2215 
  56   0.0000       0.011813         0.3214 
  57   0.0000       0.019349         0.5265 
  58   0.0000       0.024476         0.6660 
  59   0.0000       0.043332         1.1791 
  60   0.0000       0.049809         1.3554 
  61   0.0000       0.059665         1.6236 
  62   0.0000       0.065805         1.7906 
  63   0.0000       0.073237         1.9929 
  64   0.0000       0.100812         2.7432 
  65   0.0000       0.101371         2.7584 
  66   0.0000       0.120513         3.2793 
  67   0.0000       0.135031         3.6744 
  68   0.0000       0.148001         4.0273 
  69   0.0000       0.156331         4.2540 
  70   0.0000       0.167915         4.5692 
  71   0.0000       0.173804         4.7294 
  72   0.0000       0.183589         4.9957 
  73   0.0000       0.188909         5.1405 
  74   0.0000       0.192996         5.2517 
  75   0.0000       0.196415         5.3447 
  76   0.0000       0.199477         5.4280 
  77   0.0000       0.208260         5.6670 
  78   0.0000       0.218862         5.9555 
  79   0.0000       0.221824         6.0361 
  80   0.0000       0.235054         6.3962 
  81   0.0000       0.237289         6.4570 
  82   0.0000       0.244325         6.6484 
  83   0.0000       0.250999         6.8300 
  84   0.0000       0.253989         6.9114 
  85   0.0000       0.264032         7.1847 
  86   0.0000       0.271836         7.3970 
  87   0.0000       0.275336         7.4923 
  88   0.0000       0.289843         7.8870 
  89   0.0000       0.292244         7.9524 
  90   0.0000       0.294272         8.0075 
  91   0.0000       0.305685         8.3181 
  92   0.0000       0.311594         8.4789 
  93   0.0000       0.313897         8.5416 
  94   0.0000       0.322846         8.7851 
  95   0.0000       0.327279         8.9057 
  96   0.0000       0.330237         8.9862 
  97   0.0000       0.349168         9.5013 
  98   0.0000       0.355831         9.6827 
  99   0.0000       0.368957        10.0398 
 100   0.0000       0.386723        10.5233 
 101   0.0000       0.392179        10.6717 
 102   0.0000       0.396560        10.7909 
 103   0.0000       0.406761        11.0685 
 104   0.0000       0.421385        11.4665 
 105   0.0000       0.427385        11.6297 
 106   0.0000       0.438392        11.9293 
 107   0.0000       0.446293        12.1443 
 108   0.0000       0.460455        12.5296 
 109   0.0000       0.467662        12.7257 
 110   0.0000       0.478374        13.0172 
 111   0.0000       0.504463        13.7271 
 112   0.0000       0.510215        13.8837 
 113   0.0000       0.521282        14.1848 
 114   0.0000       0.536954        14.6113 
 115   0.0000       0.545141        14.8340 
 116   0.0000       0.561341        15.2749 
 117   0.0000       0.584961        15.9176 
 118   0.0000       0.596262        16.2251 
 119   0.0000       0.611453        16.6385 
 120   0.0000       0.633337        17.2340 
 121   0.0000       0.640847        17.4383 
 122   0.0000       0.651538        17.7293 
 123   0.0000       0.687835        18.7169 
 124   0.0000       0.696309        18.9475 
 125   0.0000       0.709363        19.3027 
 126   0.0000       0.720949        19.6180 
 127   0.0000       0.756222        20.5778 
 128   0.0000       0.775211        21.0946 
 129   0.0000       0.782295        21.2873 
 130   0.0000       0.785971        21.3874 
 131   0.0000       0.804055        21.8794 
 132   0.0000       0.812618        22.1125 
 133   0.0000       0.814329        22.1590 
 134   0.0000       0.822215        22.3736 
 135   0.0000       0.836452        22.7610 
 136   0.0000       0.844420        22.9778 
 137   0.0000       0.848221        23.0813 
 138   0.0000       0.855060        23.2674 
 139   0.0000       0.862398        23.4670 
 140   0.0000       0.865819        23.5601 
 141   0.0000       0.879692        23.9376 
 142   0.0000       0.885552        24.0971 
 143   0.0000       0.903274        24.5793 
 144   0.0000       0.907053        24.6822 
 145   0.0000       0.919518        25.0214 
 146   0.0000       0.920467        25.0472 
 147   0.0000       0.933654        25.4060 
 148   0.0000       0.942024        25.6338 
 149   0.0000       0.949044        25.8248 
 150   0.0000       0.964841        26.2547 
 151   0.0000       0.970539        26.4097 
 152   0.0000       0.980306        26.6755 
 153   0.0000       0.982070        26.7235 
 154   0.0000       0.992949        27.0195 
 155   0.0000       1.013606        27.5816 
 156   0.0000       1.024551        27.8794 
 157   0.0000       1.038350        28.2549 
 158   0.0000       1.043341        28.3908 
 159   0.0000       1.050962        28.5981 
 160   0.0000       1.086905        29.5762 
 161   0.0000       1.100514        29.9465 
 162   0.0000       1.113994        30.3133 
 163   0.0000       1.137046        30.9406 
 164   0.0000       1.156050        31.4577 
 165   0.0000       1.169536        31.8247 
 166   0.0000       1.176630        32.0177 
 167   0.0000       1.190451        32.3938 
 168   0.0000       1.204947        32.7883 
 169   0.0000       1.233033        33.5525 
 170   0.0000       1.268916        34.5290 
 171   0.0000       1.306975        35.5646 
 172   0.0000       1.308939        35.6180 
 173   0.0000       1.327012        36.1098 
 174   0.0000       1.343589        36.5609 
 175   0.0000       1.366133        37.1744 
 176   0.0000       1.375557        37.4308 
 177   0.0000       1.396076        37.9892 
 178   0.0000       1.401661        38.1411 
 179   0.0000       1.405725        38.2517 
 180   0.0000       1.420566        38.6556 
 181   0.0000       1.425993        38.8032 
 182   0.0000       1.458752        39.6946 
 183   0.0000       1.471502        40.0416 
 184   0.0000       1.486556        40.4513 
 185   0.0000       1.491231        40.5785 
 186   0.0000       1.505602        40.9695 
 187   0.0000       1.515573        41.2408 
 188   0.0000       1.527214        41.5576 
 189   0.0000       1.533850        41.7382 
 190   0.0000       1.542030        41.9608 
 191   0.0000       1.562778        42.5254 
 192   0.0000       1.576291        42.8931 
 193   0.0000       1.584252        43.1097 
 194   0.0000       1.590575        43.2818 
 195   0.0000       1.604579        43.6628 
 196   0.0000       1.633476        44.4492 
 197   0.0000       1.640583        44.6425 
 198   0.0000       1.654222        45.0137 
 199   0.0000       1.672078        45.4995 
 200   0.0000       1.693389        46.0795 
 201   0.0000       1.704229        46.3744 
 202   0.0000       1.719908        46.8011 
 203   0.0000       1.726614        46.9836 
 204   0.0000       1.738376        47.3036 
 205   0.0000       1.752756        47.6949 
 206   0.0000       1.754735        47.7488 
 207   0.0000       1.762197        47.9518 
 208   0.0000       1.795613        48.8611 
 209   0.0000       1.811217        49.2857 
 210   0.0000       1.827933        49.7406 
 211   0.0000       1.831789        49.8455 
 212   0.0000       1.867707        50.8229 
 213   0.0000       1.881024        51.1853 
 214   0.0000       1.901209        51.7345 
 215   0.0000       1.938060        52.7373 
 216   0.0000       1.967711        53.5442 
 217   0.0000       1.978343        53.8335 
 218   0.0000       1.996285        54.3217 
 219   0.0000       2.001159        54.4543 
 220   0.0000       2.020720        54.9866 
 221   0.0000       2.046744        55.6947 
 222   0.0000       2.056839        55.9694 
 223   0.0000       2.087624        56.8071 
 224   0.0000       2.117222        57.6125 
 225   0.0000       2.134008        58.0693 
 226   0.0000       2.137753        58.1712 
 227   0.0000       2.147068        58.4247 
 228   0.0000       2.182245        59.3819 
 229   0.0000       2.202658        59.9374 
 230   0.0000       2.219144        60.3860 
 231   0.0000       2.221073        60.4385 
 232   0.0000       2.245545        61.1044 
 233   0.0000       2.281204        62.0747 
 234   0.0000       2.292879        62.3924 
 235   0.0000       2.306248        62.7562 
 236   0.0000       2.343750        63.7767 
 237   0.0000       2.368521        64.4507 
 238   0.0000       2.385096        64.9018 
 239   0.0000       2.388889        65.0050 
 240   0.0000       2.405242        65.4500 
 241   0.0000       2.429421        66.1079 
 242   0.0000       2.440611        66.4124 
 243   0.0000       2.479669        67.4752 
 244   0.0000       2.493714        67.8574 
 245   0.0000       2.495486        67.9056 
 246   0.0000       2.508634        68.2634 
 247   0.0000       2.529553        68.8326 
 248   0.0000       2.545861        69.2764 
 249   0.0000       2.617862        71.2356 
 250   0.0000       2.630863        71.5894 
 251   0.0000       2.680416        72.9378 
 252   0.0000       2.709789        73.7371 
 253   0.0000       2.723446        74.1087 
 254   0.0000       2.736111        74.4534 
 255   0.0000       2.736914        74.4752 
 256   0.0000       2.752235        74.8921 
 257   0.0000       2.814808        76.5948 
 258   0.0000       2.838639        77.2433 
 259   0.0000       2.881115        78.3991 
 260   0.0000       2.913194        79.2721 
 261   0.0000       3.019476        82.1641 
 262   0.0000       3.041588        82.7658 
 263   0.0000       3.077243        83.7360 
 264   0.0000       3.093225        84.1709 
 265   0.0000       3.105489        84.5047 
 266   0.0000       3.113231        84.7153 
 267   0.0000       3.144159        85.5569 
 268   0.0000       3.374610        91.8278 
 269   0.0000       3.390463        92.2592 
 270   0.0000       3.433889        93.4409 
 271   0.0000       3.444655        93.7338 
 272   0.0000       3.452778        93.9549 
 273   0.0000       3.485713        94.8511 
 274   0.0000       3.610781        98.2544 
 275   0.0000       4.905085       133.4742 
 276   0.0000       4.974031       135.3503 
 277   0.0000       4.976671       135.4221 
 278   0.0000       4.992044       135.8404 
 279   0.0000       5.004311       136.1742 
 280   0.0000       5.013694       136.4295 
 281   0.0000       5.030857       136.8966 
 282   0.0000       5.075204       138.1033 
 283   0.0000       5.111833       139.1001 
 284   0.0000       5.156254       140.3088 
 285   0.0000       5.224270       142.1596 
 286   0.0000       5.259913       143.1295 
 287   0.0000       5.265332       143.2770 
 288   0.0000       5.331872       145.0876 
 289   0.0000       5.343890       145.4147 
 290   0.0000       5.365882       146.0131 
 291   0.0000       5.521548       150.2490 
 292   0.0000       5.612335       152.7194 
 293   0.0000       5.681691       154.6067 
 294   0.0000       5.717661       155.5855 
 295   0.0000       5.839638       158.9046 
 296   0.0000       7.325557       199.3385 
 297   0.0000       7.354512       200.1264 
 298   0.0000       8.904833       242.3128 
 299   0.0000       9.072025       246.8624 
 300   0.0000       9.096439       247.5267 
 301   0.0000       9.136853       248.6264 
 302   0.0000      29.516268       803.1785 
 303   0.0000      29.600390       805.4676 
 304   0.0000      29.692819       807.9827 
 305   0.0000      29.876743       812.9875 
 306   0.0000      29.980156       815.8015 
 307   0.0000      30.062873       818.0524 
 308   0.0000      30.097196       818.9863 
 309   0.0000      30.237388       822.8011 
 310   0.0000      36.541052       994.3326 
 311   0.0000      36.595451       995.8129 
 312   0.0000      36.612519       996.2773 
 313   0.0000      36.613991       996.3173 
 314   0.0000      36.629701       996.7448 
 315   0.0000      36.650822       997.3196 
 316   0.0000      36.674002       997.9503 
 317   0.0000      36.702531       998.7266 
 318   0.0000      36.752407      1000.0838 
 319   0.0000      36.852417      1002.8052 
 320   0.0000      36.891305      1003.8634 
 321   0.0000      36.907664      1004.3086 
 322   0.0000      36.941726      1005.2355 
 323   0.0000      41.277786      1123.2257 
 324   0.0000      41.294434      1123.6787 
 325   0.0000      53.452882      1454.5269 
 326   0.0000      53.612814      1458.8788 
 327   0.0000      53.634208      1459.4610 
 328   0.0000      53.672572      1460.5049 

                 SPIN DOWN ORBITALS
  NO   OCC          E(Eh)            E(eV) 
   0   1.0000     -19.195586      -522.3384 
   1   1.0000     -19.141719      -520.8726 
   2   1.0000     -19.119651      -520.2722 
   3   1.0000     -19.107806      -519.9498 
   4   1.0000     -14.383063      -391.3830 
   5   1.0000     -14.361852      -390.8059 
   6   1.0000     -10.331477      -281.1338 
   7   1.0000     -10.303901      -280.3834 
   8   1.0000     -10.293860      -280.1102 
   9   1.0000     -10.239649      -278.6350 
  10   1.0000     -10.220387      -278.1109 
  11   1.0000     -10.208241      -277.7803 
  12   1.0000     -10.207719      -277.7661 
  13   1.0000     -10.197218      -277.4804 
  14   1.0000      -1.120152       -30.4809 
  15   1.0000      -1.052152       -28.6305 
  16   1.0000      -1.038149       -28.2495 
  17   1.0000      -1.027259       -27.9531 
  18   1.0000      -0.945846       -25.7378 
  19   1.0000      -0.923383       -25.1265 
  20   1.0000      -0.808591       -22.0029 
  21   1.0000      -0.759941       -20.6791 
  22   1.0000      -0.730422       -19.8758 
  23   1.0000      -0.698246       -19.0002 
  24   1.0000      -0.663928       -18.0664 
  25   1.0000      -0.607093       -16.5198 
  26   1.0000      -0.598280       -16.2800 
  27   1.0000      -0.565678       -15.3929 
  28   1.0000      -0.552461       -15.0332 
  29   1.0000      -0.504752       -13.7350 
  30   1.0000      -0.491047       -13.3621 
  31   1.0000      -0.488026       -13.2799 
  32   1.0000      -0.483034       -13.1440 
  33   1.0000      -0.459813       -12.5121 
  34   1.0000      -0.458604       -12.4792 
  35   1.0000      -0.451015       -12.2727 
  36   1.0000      -0.444092       -12.0843 
  37   1.0000      -0.431922       -11.7532 
  38   1.0000      -0.415570       -11.3082 
  39   1.0000      -0.410891       -11.1809 
  40   1.0000      -0.406298       -11.0559 
  41   1.0000      -0.403679       -10.9847 
  42   1.0000      -0.398734       -10.8501 
  43   1.0000      -0.379287       -10.3209 
  44   1.0000      -0.376629       -10.2486 
  45   1.0000      -0.374387       -10.1876 
  46   1.0000      -0.359733        -9.7888 
  47   1.0000      -0.330869        -9.0034 
  48   1.0000      -0.304848        -8.2953 
  49   1.0000      -0.286831        -7.8051 
  50   1.0000      -0.264768        -7.2047 
  51   1.0000      -0.264160        -7.1882 
  52   1.0000      -0.255616        -6.9557 
  53   0.0000      -0.087435        -2.3792 
  54   0.0000       0.003145         0.0856 
  55   0.0000       0.008794         0.2393 
  56   0.0000       0.019649         0.5347 
  57   0.0000       0.024207         0.6587 
  58   0.0000       0.024867         0.6767 
  59   0.0000       0.043882         1.1941 
  60   0.0000       0.050398         1.3714 
  61   0.0000       0.060322         1.6414 
  62   0.0000       0.073573         2.0020 
  63   0.0000       0.088263         2.4017 
  64   0.0000       0.101543         2.7631 
  65   0.0000       0.102980         2.8022 
  66   0.0000       0.122641         3.3372 
  67   0.0000       0.135390         3.6841 
  68   0.0000       0.149654         4.0723 
  69   0.0000       0.157378         4.2825 
  70   0.0000       0.168706         4.5907 
  71   0.0000       0.175799         4.7837 
  72   0.0000       0.184360         5.0167 
  73   0.0000       0.190569         5.1857 
  74   0.0000       0.194393         5.2897 
  75   0.0000       0.199362         5.4249 
  76   0.0000       0.201395         5.4802 
  77   0.0000       0.210301         5.7226 
  78   0.0000       0.219789         5.9808 
  79   0.0000       0.224262         6.1025 
  80   0.0000       0.239533         6.5180 
  81   0.0000       0.240716         6.5502 
  82   0.0000       0.244805         6.6615 
  83   0.0000       0.252402         6.8682 
  84   0.0000       0.255101         6.9417 
  85   0.0000       0.265806         7.2329 
  86   0.0000       0.274287         7.4637 
  87   0.0000       0.278334         7.5738 
  88   0.0000       0.292282         7.9534 
  89   0.0000       0.293525         7.9872 
  90   0.0000       0.295611         8.0440 
  91   0.0000       0.306704         8.3458 
  92   0.0000       0.312451         8.5022 
  93   0.0000       0.316055         8.6003 
  94   0.0000       0.325672         8.8620 
  95   0.0000       0.327829         8.9207 
  96   0.0000       0.333200         9.0668 
  97   0.0000       0.352012         9.5787 
  98   0.0000       0.359578         9.7846 
  99   0.0000       0.370906        10.0929 
 100   0.0000       0.388092        10.5605 
 101   0.0000       0.393753        10.7146 
 102   0.0000       0.398587        10.8461 
 103   0.0000       0.408538        11.1169 
 104   0.0000       0.422903        11.5078 
 105   0.0000       0.429363        11.6836 
 106   0.0000       0.439598        11.9621 
 107   0.0000       0.447033        12.1644 
 108   0.0000       0.462798        12.5934 
 109   0.0000       0.473807        12.8929 
 110   0.0000       0.481916        13.1136 
 111   0.0000       0.506626        13.7860 
 112   0.0000       0.517107        14.0712 
 113   0.0000       0.522960        14.2305 
 114   0.0000       0.538183        14.6447 
 115   0.0000       0.549067        14.9409 
 116   0.0000       0.563942        15.3457 
 117   0.0000       0.586148        15.9499 
 118   0.0000       0.598907        16.2971 
 119   0.0000       0.614536        16.7224 
 120   0.0000       0.637963        17.3598 
 121   0.0000       0.645643        17.5688 
 122   0.0000       0.657237        17.8843 
 123   0.0000       0.689252        18.7555 
 124   0.0000       0.699150        19.0248 
 125   0.0000       0.710194        19.3254 
 126   0.0000       0.722702        19.6657 
 127   0.0000       0.759049        20.6548 
 128   0.0000       0.776714        21.1355 
 129   0.0000       0.786124        21.3915 
 130   0.0000       0.787918        21.4404 
 131   0.0000       0.806248        21.9391 
 132   0.0000       0.814053        22.1515 
 133   0.0000       0.816203        22.2100 
 134   0.0000       0.823993        22.4220 
 135   0.0000       0.837069        22.7778 
 136   0.0000       0.847024        23.0487 
 137   0.0000       0.849152        23.1066 
 138   0.0000       0.856184        23.2979 
 139   0.0000       0.863429        23.4951 
 140   0.0000       0.868145        23.6234 
 141   0.0000       0.881783        23.9945 
 142   0.0000       0.888810        24.1857 
 143   0.0000       0.904140        24.6029 
 144   0.0000       0.907828        24.7033 
 145   0.0000       0.920261        25.0416 
 146   0.0000       0.921620        25.0786 
 147   0.0000       0.935186        25.4477 
 148   0.0000       0.943583        25.6762 
 149   0.0000       0.950148        25.8548 
 150   0.0000       0.967005        26.3135 
 151   0.0000       0.972553        26.4645 
 152   0.0000       0.982586        26.7375 
 153   0.0000       0.986616        26.8472 
 154   0.0000       0.994159        27.0524 
 155   0.0000       1.020035        27.7566 
 156   0.0000       1.031397        28.0658 
 157   0.0000       1.041748        28.3474 
 158   0.0000       1.046526        28.4774 
 159   0.0000       1.056627        28.7523 
 160   0.0000       1.087914        29.6036 
 161   0.0000       1.102461        29.9995 
 162   0.0000       1.115698        30.3597 
 163   0.0000       1.139051        30.9952 
 164   0.0000       1.158481        31.5239 
 165   0.0000       1.174015        31.9466 
 166   0.0000       1.177472        32.0406 
 167   0.0000       1.191254        32.4157 
 168   0.0000       1.207111        32.8472 
 169   0.0000       1.236658        33.6512 
 170   0.0000       1.271349        34.5952 
 171   0.0000       1.309477        35.6327 
 172   0.0000       1.310155        35.6511 
 173   0.0000       1.330414        36.2024 
 174   0.0000       1.345145        36.6032 
 175   0.0000       1.368491        37.2385 
 176   0.0000       1.377717        37.4896 
 177   0.0000       1.398085        38.0438 
 178   0.0000       1.402364        38.1603 
 179   0.0000       1.406191        38.2644 
 180   0.0000       1.421862        38.6908 
 181   0.0000       1.428821        38.8802 
 182   0.0000       1.465193        39.8699 
 183   0.0000       1.473252        40.0892 
 184   0.0000       1.488441        40.5025 
 185   0.0000       1.492775        40.6205 
 186   0.0000       1.506595        40.9965 
 187   0.0000       1.517863        41.3031 
 188   0.0000       1.528435        41.5908 
 189   0.0000       1.536049        41.7980 
 190   0.0000       1.544275        42.0219 
 191   0.0000       1.564566        42.5740 
 192   0.0000       1.581711        43.0405 
 193   0.0000       1.588343        43.2210 
 194   0.0000       1.594021        43.3755 
 195   0.0000       1.607097        43.7313 
 196   0.0000       1.636298        44.5259 
 197   0.0000       1.642348        44.6906 
 198   0.0000       1.655806        45.0568 
 199   0.0000       1.676715        45.6257 
 200   0.0000       1.694959        46.1222 
 201   0.0000       1.706045        46.4238 
 202   0.0000       1.721335        46.8399 
 203   0.0000       1.728532        47.0357 
 204   0.0000       1.741776        47.3961 
 205   0.0000       1.756688        47.8019 
 206   0.0000       1.757050        47.8118 
 207   0.0000       1.764272        48.0083 
 208   0.0000       1.798509        48.9399 
 209   0.0000       1.813162        49.3386 
 210   0.0000       1.830439        49.8088 
 211   0.0000       1.834081        49.9079 
 212   0.0000       1.870380        50.8956 
 213   0.0000       1.882807        51.2338 
 214   0.0000       1.902786        51.7774 
 215   0.0000       1.940209        52.7958 
 216   0.0000       1.971949        53.6595 
 217   0.0000       1.982436        53.9448 
 218   0.0000       1.997997        54.3683 
 219   0.0000       2.003133        54.5080 
 220   0.0000       2.021596        55.0104 
 221   0.0000       2.048474        55.7418 
 222   0.0000       2.057901        55.9983 
 223   0.0000       2.091664        56.9171 
 224   0.0000       2.118537        57.6483 
 225   0.0000       2.136840        58.1464 
 226   0.0000       2.138674        58.1963 
 227   0.0000       2.149334        58.4864 
 228   0.0000       2.184733        59.4496 
 229   0.0000       2.204657        59.9918 
 230   0.0000       2.220242        60.4159 
 231   0.0000       2.225304        60.5536 
 232   0.0000       2.247843        61.1669 
 233   0.0000       2.288028        62.2604 
 234   0.0000       2.297187        62.5096 
 235   0.0000       2.308977        62.8305 
 236   0.0000       2.346912        63.8627 
 237   0.0000       2.370577        64.5067 
 238   0.0000       2.386252        64.9332 
 239   0.0000       2.390725        65.0549 
 240   0.0000       2.407227        65.5040 
 241   0.0000       2.431493        66.1643 
 242   0.0000       2.442369        66.4602 
 243   0.0000       2.480664        67.5023 
 244   0.0000       2.494492        67.8786 
 245   0.0000       2.496394        67.9303 
 246   0.0000       2.509871        68.2971 
 247   0.0000       2.532107        68.9021 
 248   0.0000       2.547712        69.3268 
 249   0.0000       2.620041        71.2949 
 250   0.0000       2.632517        71.6344 
 251   0.0000       2.683615        73.0249 
 252   0.0000       2.711765        73.7909 
 253   0.0000       2.727649        74.2231 
 254   0.0000       2.742857        74.6369 
 255   0.0000       2.743560        74.6561 
 256   0.0000       2.759569        75.0917 
 257   0.0000       2.816146        76.6312 
 258   0.0000       2.838723        77.2456 
 259   0.0000       2.883856        78.4737 
 260   0.0000       2.913970        79.2932 
 261   0.0000       3.022601        82.2491 
 262   0.0000       3.041981        82.7765 
 263   0.0000       3.084386        83.9304 
 264   0.0000       3.097499        84.2872 
 265   0.0000       3.107306        84.5541 
 266   0.0000       3.118430        84.8568 
 267   0.0000       3.144343        85.5619 
 268   0.0000       3.374659        91.8291 
 269   0.0000       3.392320        92.3097 
 270   0.0000       3.436800        93.5201 
 271   0.0000       3.444805        93.7379 
 272   0.0000       3.455361        94.0252 
 273   0.0000       3.487442        94.8981 
 274   0.0000       3.610958        98.2592 
 275   0.0000       4.908050       133.5548 
 276   0.0000       4.975640       135.3941 
 277   0.0000       4.977741       135.4512 
 278   0.0000       4.993287       135.8742 
 279   0.0000       5.005314       136.2015 
 280   0.0000       5.015025       136.4658 
 281   0.0000       5.031901       136.9250 
 282   0.0000       5.075962       138.1239 
 283   0.0000       5.113298       139.1399 
 284   0.0000       5.157251       140.3359 
 285   0.0000       5.226541       142.2214 
 286   0.0000       5.260815       143.1540 
 287   0.0000       5.265856       143.2912 
 288   0.0000       5.333001       145.1183 
 289   0.0000       5.344451       145.4299 
 290   0.0000       5.368603       146.0871 
 291   0.0000       5.522203       150.2668 
 292   0.0000       5.614925       152.7899 
 293   0.0000       5.686149       154.7280 
 294   0.0000       5.720386       155.6596 
 295   0.0000       5.843347       159.0056 
 296   0.0000       7.328901       199.4295 
 297   0.0000       7.358893       200.2457 
 298   0.0000       8.904925       242.3153 
 299   0.0000       9.077819       247.0200 
 300   0.0000       9.096560       247.5300 
 301   0.0000       9.142238       248.7729 
 302   0.0000      29.518787       803.2470 
 303   0.0000      29.601006       805.4843 
 304   0.0000      29.696313       808.0778 
 305   0.0000      29.877527       813.0088 
 306   0.0000      29.980325       815.8061 
 307   0.0000      30.063937       818.0813 
 308   0.0000      30.102784       819.1384 
 309   0.0000      30.238504       822.8315 
 310   0.0000      36.541418       994.3425 
 311   0.0000      36.596970       995.8542 
 312   0.0000      36.614416       996.3289 
 313   0.0000      36.614606       996.3341 
 314   0.0000      36.630188       996.7581 
 315   0.0000      36.652477       997.3646 
 316   0.0000      36.674865       997.9738 
 317   0.0000      36.702692       998.7310 
 318   0.0000      36.751361      1000.0554 
 319   0.0000      36.853218      1002.8270 
 320   0.0000      36.892595      1003.8985 
 321   0.0000      36.908492      1004.3311 
 322   0.0000      36.944783      1005.3187 
 323   0.0000      41.279665      1123.2768 
 324   0.0000      41.296461      1123.7338 
 325   0.0000      53.452945      1454.5286 
 326   0.0000      53.615897      1458.9627 
 327   0.0000      53.634267      1459.4626 
 328   0.0000      53.675442      1460.5830 

                    ********************************
                    * MULLIKEN POPULATION ANALYSIS *
                    ********************************

--------------------------------------------
MULLIKEN ATOMIC CHARGES AND SPIN POPULATIONS
--------------------------------------------
   0 N :   -0.011295    0.063146
   1 C :    0.129066    0.659130
   2 C :    0.018743   -0.012593
   3 O :   -0.366115    0.090063
   4 C :   -0.324425   -0.042350
   5 H :    0.129021    0.004628
   6 H :    0.196196    0.012555
   7 C :   -0.274389    0.025629
   8 H :    0.214196   -0.000625
   9 H :    0.174825   -0.000953
  10 C :    0.101077    0.005852
  11 O :   -0.260794    0.000543
  12 O :   -0.250510   -0.000071
  13 H :    0.249049   -0.003930
  14 C :    0.105322    0.035518
  15 N :   -0.104622    0.061292
  16 H :    0.287841    0.001220
  17 H :    0.227527   -0.002141
  18 O :   -0.279137    0.094842
  19 C :   -0.546971   -0.004176
  20 H :    0.187144    0.004774
  21 H :    0.188081    0.004822
  22 H :    0.150485   -0.000099
  23 C :   -0.438335   -0.005939
  24 H :    0.179228    0.005047
[...]

----------------------------------------------------
LOEWDIN REDUCED ORBITAL CHARGES AND SPIN POPULATIONS
----------------------------------------------------
CHARGE
  0 N s       :     3.043405  s :     3.043405
      pz      :     1.413567  p :     3.736365
      px      :     1.170316
      py      :     1.152482
      dz2     :     0.006482  d :     0.091119
      dxz     :     0.004547
      dyz     :     0.019083
      dx2y2   :     0.033699
      dxy     :     0.027309
  1 C s       :     2.861314  s :     2.861314
      pz      :     0.979172  p :     2.928321
      px      :     1.013645
      py      :     0.935503
      dz2     :     0.021790  d :     0.254465
      dxz     :     0.031093
      dyz     :     0.045237
      dx2y2   :     0.066000
      dxy     :     0.090346
  2 C s       :     2.821183  s :     2.821183
      pz      :     0.855501  p :     2.797354
      px      :     0.972057
      py      :     0.969796
      dz2     :     0.040748  d :     0.492083
      dxz     :     0.084021
      dyz     :     0.067914
      dx2y2   :     0.111320
      dxy     :     0.188079
  3 O s       :     3.589828  s :     3.589828
      pz      :     1.469898  p :     4.605154
      px      :     1.421833
      py      :     1.713423
      dz2     :     0.003988  d :     0.030813
      dxz     :     0.008455
      dyz     :     0.000642
      dx2y2   :     0.011803
      dxy     :     0.005925
  4 C s       :     2.847828  s :     2.847828
      pz      :     1.016668  p :     3.019733
      px      :     0.971963
      py      :     1.031102
      dz2     :     0.022915  d :     0.173518
      dxz     :     0.051048
      dyz     :     0.033419
      dx2y2   :     0.047406
      dxy     :     0.018730
  5 H s       :     0.867221  s :     0.867221
      pz      :     0.024919  p :     0.083708
      px      :     0.018148
      py      :     0.040642
  6 H s       :     0.843998  s :     0.843998
      pz      :     0.031794  p :     0.084380
      px      :     0.016062
      py      :     0.036525
  7 C s       :     2.863247  s :     2.863247
      pz      :     1.014659  p :     3.012970
      px      :     0.962370
      py      :     1.035941
      dz2     :     0.027229  d :     0.155852
      dxz     :     0.037419
      dyz     :     0.028708
      dx2y2   :     0.043290
      dxy     :     0.019206
  8 H s       :     0.841862  s :     0.841862
      pz      :     0.020091  p :     0.085950
      px      :     0.015809
      py      :     0.050050
  9 H s       :     0.849175  s :     0.849175
      pz      :     0.037052  p :     0.082490
      px      :     0.017603
      py      :     0.027834
 10 C s       :     2.850189  s :     2.850189
      pz      :     0.900812  p :     2.710052
      px      :     0.979719
      py      :     0.829520
      dz2     :     0.119635  d :     0.523893
      dxz     :     0.157266
      dyz     :     0.082975
      dx2y2   :     0.069687
      dxy     :     0.094331
 11 O s       :     3.464765  s :     3.464765
      pz      :     1.602303  p :     4.493264
      px      :     1.228977
      py      :     1.661985
      dz2     :     0.003587  d :     0.025244
      dxz     :     0.009081
      dyz     :     0.003748
      dx2y2   :     0.004036
      dxy     :     0.004791
 12 O s       :     3.581878  s :     3.581878
      pz      :     1.437856  p :     4.533098
      px      :     1.692110
      py      :     1.403133
      dz2     :     0.008746  d :     0.033283
      dxz     :     0.005954
      dyz     :     0.012467
      dx2y2   :     0.003051
      dxy     :     0.003066
 13 H s       :     0.743151  s :     0.743151
      pz      :     0.042012  p :     0.153141
      px      :     0.082664
      py      :     0.028465
 14 C s       :     2.841788  s :     2.841788
      pz      :     0.821187  p :     2.776032
      px      :     1.002043
      py      :     0.952803
      dz2     :     0.032549  d :     0.479664
      dxz     :     0.074239
      dyz     :     0.059870
      dx2y2   :     0.137166
      dxy     :     0.175841
 15 N s       :     3.065858  s :     3.065858
      pz      :     1.496957  p :     3.820131
      px      :     1.177546
      py      :     1.145628
      dz2     :     0.005506  d :     0.079357
      dxz     :     0.007206
      dyz     :     0.012694
      dx2y2   :     0.027986
      dxy     :     0.025965
 16 H s       :     0.705892  s :     0.705892
      pz      :     0.051479  p :     0.192779
      px      :     0.087319
      py      :     0.053982
 17 H s       :     0.776489  s :     0.776489
      pz      :     0.056000  p :     0.150400
      px      :     0.072442
      py      :     0.021957
 18 O s       :     3.584474  s :     3.584474
      pz      :     1.405536  p :     4.553400
      px      :     1.447420
      py      :     1.700445
      dz2     :     0.004362  d :     0.032240
      dxz     :     0.007358
      dyz     :     0.001041
      dx2y2   :     0.011046
      dxy     :     0.008432
 19 C s       :     2.869222  s :     2.869222
      pz      :     1.042214  p :     3.061918
      px      :     1.001291
      py      :     1.018413
      dz2     :     0.016822  d :     0.106602
      dxz     :     0.012871
      dyz     :     0.026007
      dx2y2   :     0.016046
      dxy     :     0.034856
 20 H s       :     0.862559  s :     0.862559
      pz      :     0.032556  p :     0.081640
      px      :     0.018799
      py      :     0.030285
 21 H s       :     0.861299  s :     0.861299
      pz      :     0.038912  p :     0.081737
      px      :     0.016231
      py      :     0.026594
 22 H s       :     0.882646  s :     0.882646
      pz      :     0.019810  p :     0.081746
      px      :     0.041303
      py      :     0.020633
 23 C s       :     2.857395  s :     2.857395
      pz      :     1.053964  p :     2.972912
      px      :     1.005787
      py      :     0.913160
      dz2     :     0.020918  d :     0.161275
      dxz     :     0.031978
      dyz     :     0.034081
      dx2y2   :     0.024690
      dxy     :     0.049609
 24 H s       :     0.889103  s :     0.889103
      pz      :     0.041065  p :     0.079111
      px      :     0.021961
      py      :     0.016085
 25 H s       :     0.889722  s :     0.889722
      pz      :     0.022054  p :     0.078759
      px      :     0.025773
      py      :     0.030933
 26 H s       :     0.865530  s :     0.865530
      pz      :     0.031317  p :     0.083031
      px      :     0.035935
      py      :     0.015779

SPIN
  0 N s       :     0.000580  s :     0.000580
      pz      :     0.063054  p :     0.064046
      px      :     0.003894
      py      :    -0.002902
      dz2     :     0.000393  d :     0.012245
      dxz     :     0.001056
      dyz     :     0.009332
      dx2y2   :     0.000477
      dxy     :     0.000987
  1 C s       :     0.016976  s :     0.016976
      pz      :     0.449565  p :     0.511607
      px      :     0.053655
      py      :     0.008387
      dz2     :    -0.001506  d :     0.001745
      dxz     :    -0.000890
      dyz     :     0.005107
      dx2y2   :    -0.000648
      dxy     :    -0.000319
  2 C s       :    -0.003167  s :    -0.003167
      pz      :     0.012132  p :     0.004118
      px      :    -0.002328
      py      :    -0.005686
      dz2     :     0.003712  d :     0.030427
      dxz     :     0.008955
      dyz     :     0.013915
      dx2y2   :     0.001292
      dxy     :     0.002553
  3 O s       :     0.000920  s :     0.000920
      pz      :     0.081471  p :     0.089396
      px      :     0.008055
      py      :    -0.000130
      dz2     :     0.000002  d :    -0.000160
      dxz     :    -0.000039
      dyz     :    -0.000009
      dx2y2   :    -0.000048
      dxy     :    -0.000066
  4 C s       :    -0.002680  s :    -0.002680
      pz      :    -0.003016  p :    -0.015132
      px      :    -0.010057
      py      :    -0.002059
      dz2     :     0.001756  d :     0.024688
      dxz     :     0.017628
      dyz     :     0.000575
      dx2y2   :     0.004583
      dxy     :     0.000146
  5 H s       :     0.003876  s :     0.003876
      pz      :     0.000026  p :    -0.000511
      px      :    -0.000382
      py      :    -0.000154
  6 H s       :     0.010551  s :     0.010551
      pz      :    -0.000072  p :    -0.000559
      px      :    -0.000345
      py      :    -0.000142
  7 C s       :     0.009001  s :     0.009001
      pz      :     0.008121  p :     0.022233
      px      :     0.012534
      py      :     0.001578
      dz2     :    -0.000210  d :    -0.000213
      dxz     :    -0.000016
      dyz     :    -0.000128
      dx2y2   :     0.000151
      dxy     :    -0.000011
  8 H s       :    -0.000792  s :    -0.000792
      pz      :     0.000260  p :     0.000808
      px      :     0.000306
      py      :     0.000242
  9 H s       :    -0.000750  s :    -0.000750
      pz      :     0.000691  p :     0.000713
      px      :    -0.000014
      py      :     0.000036
 10 C s       :     0.001151  s :     0.001151
      pz      :     0.000504  p :     0.001432
      px      :     0.000700
      py      :     0.000228
      dz2     :     0.000017  d :     0.001024
      dxz     :     0.000614
      dyz     :     0.000007
      dx2y2   :     0.000238
      dxy     :     0.000148
 11 O s       :     0.000762  s :     0.000762
      pz      :     0.000090  p :     0.000706
      px      :     0.000532
      py      :     0.000084
      dz2     :     0.000015  d :     0.000053
      dxz     :     0.000001
      dyz     :     0.000001
      dx2y2   :     0.000035
      dxy     :     0.000001
 12 O s       :     0.000162  s :     0.000162
      pz      :    -0.000104  p :    -0.000012
      px      :     0.000237
      py      :    -0.000145
      dz2     :     0.000002  d :     0.000007
      dxz     :    -0.000002
      dyz     :     0.000003
      dx2y2   :     0.000003
      dxy     :     0.000001
 13 H s       :    -0.001982  s :    -0.001982
      pz      :     0.003673  p :     0.004180
      px      :     0.000620
      py      :    -0.000113
 14 C s       :     0.000336  s :     0.000336
      pz      :     0.032056  p :     0.031572
      px      :     0.000914
      py      :    -0.001398
      dz2     :     0.001180  d :     0.015701
      dxz     :     0.006892
      dyz     :     0.006747
      dx2y2   :     0.000601
      dxy     :     0.000282
 15 N s       :     0.001952  s :     0.001952
      pz      :     0.047737  p :     0.056368
      px      :     0.007782
      py      :     0.000849
      dz2     :    -0.000085  d :    -0.000363
      dxz     :    -0.000039
      dyz     :     0.000061
      dx2y2   :    -0.000182
      dxy     :    -0.000119
 16 H s       :     0.000547  s :     0.000547
      pz      :     0.000000  p :     0.000092
      px      :     0.000094
      py      :    -0.000002
 17 H s       :    -0.001322  s :    -0.001322
      pz      :     0.001757  p :     0.002112
      px      :     0.000320
      py      :     0.000035
 18 O s       :     0.001154  s :     0.001154
      pz      :     0.085669  p :     0.090416
      px      :     0.003853
      py      :     0.000894
      dz2     :     0.000040  d :     0.000107
      dxz     :     0.000087
      dyz     :     0.000020
      dx2y2   :    -0.000020
      dxy     :    -0.000021
 19 C s       :    -0.000654  s :    -0.000654
      pz      :     0.000006  p :    -0.001918
      px      :    -0.000649
      py      :    -0.001276
      dz2     :     0.000007  d :     0.002505
      dxz     :     0.000074
      dyz     :     0.002214
      dx2y2   :    -0.000061
      dxy     :     0.000271
 20 H s       :     0.003381  s :     0.003381
      pz      :    -0.000016  p :    -0.000114
      px      :    -0.000032
      py      :    -0.000066
 21 H s       :     0.003751  s :     0.003751
      pz      :    -0.000043  p :    -0.000137
      px      :    -0.000033
      py      :    -0.000061
 22 H s       :    -0.000036  s :    -0.000036
      pz      :    -0.000064  p :    -0.000133
      px      :    -0.000044
      py      :    -0.000025
 23 C s       :    -0.000455  s :    -0.000455
      pz      :    -0.000395  p :    -0.002683
      px      :    -0.000773
      py      :    -0.001515
      dz2     :     0.000083  d :     0.003468
      dxz     :     0.000832
      dyz     :     0.001894
      dx2y2   :     0.000095
      dxy     :     0.000565
 24 H s       :     0.005242  s :     0.005242
      pz      :    -0.000084  p :    -0.000131
      px      :    -0.000041
      py      :    -0.000006
 25 H s       :     0.001541  s :     0.001541
      pz      :    -0.000017  p :    -0.000126
      px      :    -0.000039
      py      :    -0.000070
 26 H s       :     0.000520  s :     0.000520
      pz      :    -0.000051  p :    -0.000138
      px      :    -0.000029
      py      :    -0.000058


                      *****************************
                      * MAYER POPULATION ANALYSIS *
                      *****************************

  NA   - Mulliken gross atomic population
  ZA   - Total nuclear charge
  QA   - Mulliken gross atomic charge
  VA   - Mayer's total valence
  BVA  - Mayer's bonded valence
  FA   - Mayer's free valence

  ATOM       NA         ZA         QA         VA         BVA        FA
  0 N      7.0295     7.0000    -0.0295     3.4655     3.4582     0.0073
  1 C      5.8508     6.0000     0.1492     3.7412     3.3945     0.3467
  2 C      5.9871     6.0000     0.0129     4.0647     4.0630     0.0016
  3 O      8.3771     8.0000    -0.3771     2.0505     2.0418     0.0088
  4 C      6.3202     6.0000    -0.3202     4.0292     4.0280     0.0013
  5 H      0.8695     1.0000     0.1305     0.9761     0.9761     0.0000
  6 H      0.8050     1.0000     0.1950     0.9596     0.9594     0.0002
  7 C      6.2704     6.0000    -0.2704     3.8252     3.8242     0.0010
  8 H      0.7839     1.0000     0.2161     0.9620     0.9620     0.0000
  9 H      0.8221     1.0000     0.1779     0.9695     0.9695     0.0000
 10 C      5.8915     6.0000     0.1085     4.0337     4.0337     0.0000
 11 O      8.2689     8.0000    -0.2689     2.1137     2.1137     0.0000
 12 O      8.2584     8.0000    -0.2584     2.1235     2.1235     0.0000
 13 H      0.7477     1.0000     0.2523     0.9753     0.9752     0.0000
 14 C      5.8882     6.0000     0.1118     4.0151     4.0130     0.0022
 15 N      7.1116     7.0000    -0.1116     3.1775     3.1739     0.0036
 16 H      0.7123     1.0000     0.2877     0.9572     0.9572     0.0000
 17 H      0.7769     1.0000     0.2231     0.9728     0.9728     0.0000
 18 O      8.2889     8.0000    -0.2889     2.1382     2.1289     0.0093
 19 C      6.5414     6.0000    -0.5414     3.8435     3.8435     0.0000
 20 H      0.8115     1.0000     0.1885     0.9578     0.9578     0.0000
 21 H      0.8107     1.0000     0.1893     0.9575     0.9575     0.0000
 22 H      0.8476     1.0000     0.1524     0.9710     0.9710    -0.0000
 23 C      6.4472     6.0000    -0.4472     3.9156     3.9156     0.0000
 24 H      0.8312     1.0000     0.1688     0.9526     0.9525     0.0001
 25 H      0.8483     1.0000     0.1517     0.9631     0.9631     0.0000
 26 H      0.8020     1.0000     0.1980     0.9598     0.9598     0.0000

  Mayer bond orders larger than 0.100000
B(  0-N ,  1-C ) :   1.2453 B(  0-N , 13-H ) :   0.8696 B(  0-N , 14-C ) :   1.1598 
B(  1-C ,  2-C ) :   1.0676 B(  1-C ,  4-C ) :   0.9769 B(  2-C ,  3-O ) :   1.7448 
B(  2-C , 15-N ) :   1.1749 B(  4-C ,  5-H ) :   0.9724 B(  4-C ,  6-H ) :   0.9570 
B(  4-C ,  7-C ) :   0.9378 B(  7-C ,  8-H ) :   0.9495 B(  7-C ,  9-H ) :   0.9618 
B(  7-C , 10-C ) :   0.8921 B( 10-C , 11-O ) :   1.1422 B( 10-C , 12-O ) :   1.9601 
B( 11-O , 16-H ) :   0.8946 B( 14-C , 18-O ) :   1.8944 B( 14-C , 19-C ) :   0.8984 
B( 15-N , 17-H ) :   0.9255 B( 15-N , 23-C ) :   0.9737 B( 19-C , 20-H ) :   0.9566 
B( 19-C , 21-H ) :   0.9545 B( 19-C , 22-H ) :   0.9737 B( 23-C , 24-H ) :   0.9552 
B( 23-C , 25-H ) :   0.9657 B( 23-C , 26-H ) :   0.9450 

-------
TIMINGS
-------

Total SCF time: 0 days 0 hours 0 min 14 sec 

Total time                  ....      14.365 sec
Sum of individual times     ....      13.705 sec  ( 95.4%)

Fock matrix formation       ....      11.753 sec  ( 81.8%)
  Split-RI-J                ....       1.082 sec  (  9.2% of F)
  Chain of spheres X        ....       7.655 sec  ( 65.1% of F)
  XC integration            ....       2.672 sec  ( 22.7% of F)
    Basis function eval.    ....       0.270 sec  ( 10.1% of XC)
    Density eval.           ....       0.375 sec  ( 14.0% of XC)
    XC-Functional eval.     ....       0.064 sec  (  2.4% of XC)
    XC-Potential eval.      ....       0.232 sec  (  8.7% of XC)
Diagonalization             ....       0.427 sec  (  3.0%)
Density matrix formation    ....       0.063 sec  (  0.4%)
Population analysis         ....       0.058 sec  (  0.4%)
Initial guess               ....       0.047 sec  (  0.3%)
Orbital Transformation      ....       0.000 sec  (  0.0%)
Orbital Orthonormalization  ....       0.031 sec  (  0.2%)
DIIS solution               ....       0.216 sec  (  1.5%)
Grid generation             ....       1.140 sec  (  7.9%)

Maximum memory used throughout the entire SCF-calculation: 77.3 MB

-------------------------   --------------------
FINAL SINGLE POINT ENERGY      -722.867964049507
-------------------------   --------------------

                                *** OPTIMIZATION RUN DONE ***

                            ***************************************
                            *     ORCA property calculations      *
                            ***************************************

                                    ---------------------
                                    Active property flags
                                    ---------------------
   (+) Dipole Moment


------------------------------------------------------------------------------
                       ORCA ELECTRIC PROPERTIES CALCULATION
------------------------------------------------------------------------------

Dipole Moment Calculation                       ... on
Quadrupole Moment Calculation                   ... off
Polarizability Calculation                      ... off
GBWName                                         ... opt.gbw
Electron density                                ... opt.scfp
The origin for moment calculation is the CENTER OF MASS  = (-0.072812,  0.024475 -0.006652)

-------------
DIPOLE MOMENT
-------------
                                X             Y             Z
Electronic contribution:     -6.31253       1.73169       0.65392
Nuclear contribution   :      6.34348      -2.24113      -0.93608
                        -----------------------------------------
Total Dipole Moment    :      0.03095      -0.50945      -0.28216
                        -----------------------------------------
Magnitude (a.u.)       :      0.58319
Magnitude (Debye)      :      1.48234



--------------------
Rotational spectrum 
--------------------
 
Rotational constants in cm-1:     0.020771     0.016295     0.009657 
Rotational constants in MHz :   622.705631   488.519217   289.510184 

 Dipole components along the rotational axes: 
x,y,z [a.u.] :     0.043802     0.507481    -0.283990 
x,y,z [Debye]:     0.111336     1.289915    -0.721846 

 

Timings for individual modules:

Sum of individual times         ...      691.989 sec (=  11.533 min)
GTO integral calculation        ...       66.179 sec (=   1.103 min)   9.6 %
SCF iterations                  ...      453.524 sec (=   7.559 min)  65.5 %
SCF Gradient evaluation         ...      171.385 sec (=   2.856 min)  24.8 %
Geometry relaxation             ...        0.902 sec (=   0.015 min)   0.1 %
                             ****ORCA TERMINATED NORMALLY****
TOTAL RUN TIME: 0 days 0 hours 12 minutes 31 seconds 981 msec
