
                                 *****************
                                 * O   R   C   A *
                                 *****************

                                            #,                                       
                                            ###                                      
                                            ####                                     
                                            #####                                    
                                            ######                                   
                                           ########,                                 
                                     ,,################,,,,,                         
                               ,,#################################,,                 
                          ,,##########################################,,             
                       ,#########################################, ''#####,          
                    ,#############################################,,   '####,        
                  ,##################################################,,,,####,       
                ,###########''''           ''''###############################       
              ,#####''   ,,,,##########,,,,          '''####'''          '####       
            ,##' ,,,,###########################,,,                        '##       
           ' ,,###''''                  '''############,,,                           
         ,,##''                                '''############,,,,        ,,,,,,###''
      ,#''                                            '''#######################'''  
     '                                                          ''''####''''         
             ,#######,   #######,   ,#######,      ##                                
            ,#'     '#,  ##    ##  ,#'     '#,    #''#        ######   ,####,        
            ##       ##  ##   ,#'  ##            #'  '#       #        #'  '#        
            ##       ##  #######   ##           ,######,      #####,   #    #        
            '#,     ,#'  ##    ##  '#,     ,#' ,#      #,         ##   #,  ,#        
             '#######'   ##     ##  '#######'  #'      '#     #####' # '####'        



                  #######################################################
                  #                        -***-                        #
                  #          Department of theory and spectroscopy      #
                  #    Directorship and core code : Frank Neese         #
                  #        Max Planck Institute fuer Kohlenforschung    #
                  #                Kaiser Wilhelm Platz 1               #
                  #                 D-45470 Muelheim/Ruhr               #
                  #                      Germany                        #
                  #                                                     #
                  #                  All rights reserved                #
                  #                        -***-                        #
                  #######################################################


                         Program Version 5.0.4 -  RELEASE  -


 With contributions from (in alphabetic order):
   Daniel Aravena         : Magnetic Suceptibility
   Michael Atanasov       : Ab Initio Ligand Field Theory (pilot matlab implementation)
   Alexander A. Auer      : GIAO ZORA, VPT2 properties, NMR spectrum
   Ute Becker             : Parallelization
   Giovanni Bistoni       : ED, misc. LED, open-shell LED, HFLD
   Martin Brehm           : Molecular dynamics
   Dmytro Bykov           : SCF Hessian
   Vijay G. Chilkuri      : MRCI spin determinant printing, contributions to CSF-ICE
   Dipayan Datta          : RHF DLPNO-CCSD density
   Achintya Kumar Dutta   : EOM-CC, STEOM-CC
   Dmitry Ganyushin       : Spin-Orbit,Spin-Spin,Magnetic field MRCI
   Miquel Garcia          : C-PCM and meta-GGA Hessian, CC/C-PCM, Gaussian charge scheme
   Yang Guo               : DLPNO-NEVPT2, F12-NEVPT2, CIM, IAO-localization
   Andreas Hansen         : Spin unrestricted coupled pair/coupled cluster methods
   Benjamin Helmich-Paris : MC-RPA, TRAH-SCF, COSX integrals
   Lee Huntington         : MR-EOM, pCC
   Robert Izsak           : Overlap fitted RIJCOSX, COSX-SCS-MP3, EOM
   Marcus Kettner         : VPT2
   Christian Kollmar      : KDIIS, OOCD, Brueckner-CCSD(T), CCSD density, CASPT2, CASPT2-K
   Simone Kossmann        : Meta GGA functionals, TD-DFT gradient, OOMP2, MP2 Hessian
   Martin Krupicka        : Initial AUTO-CI
   Lucas Lang             : DCDCAS
   Marvin Lechner         : AUTO-CI (C++ implementation), FIC-MRCC
   Dagmar Lenk            : GEPOL surface, SMD
   Dimitrios Liakos       : Extrapolation schemes; Compound Job, initial MDCI parallelization
   Dimitrios Manganas     : Further ROCIS development; embedding schemes
   Dimitrios Pantazis     : SARC Basis sets
   Anastasios Papadopoulos: AUTO-CI, single reference methods and gradients
   Taras Petrenko         : DFT Hessian,TD-DFT gradient, ASA, ECA, R-Raman, ABS, FL, XAS/XES, NRVS
   Peter Pinski           : DLPNO-MP2, DLPNO-MP2 Gradient
   Christoph Reimann      : Effective Core Potentials
   Marius Retegan         : Local ZFS, SOC
   Christoph Riplinger    : Optimizer, TS searches, QM/MM, DLPNO-CCSD(T), (RO)-DLPNO pert. Triples
   Tobias Risthaus        : Range-separated hybrids, TD-DFT gradient, RPA, STAB
   Michael Roemelt        : Original ROCIS implementation
   Masaaki Saitow         : Open-shell DLPNO-CCSD energy and density
   Barbara Sandhoefer     : DKH picture change effects
   Avijit Sen             : IP-ROCIS
   Kantharuban Sivalingam : CASSCF convergence, NEVPT2, FIC-MRCI
   Bernardo de Souza      : ESD, SOC TD-DFT
   Georgi Stoychev        : AutoAux, RI-MP2 NMR, DLPNO-MP2 response
   Willem Van den Heuvel  : Paramagnetic NMR
   Boris Wezisla          : Elementary symmetry handling
   Frank Wennmohs         : Technical directorship


 We gratefully acknowledge several colleagues who have allowed us to
 interface, adapt or use parts of their codes:
   Stefan Grimme, W. Hujo, H. Kruse, P. Pracht,  : VdW corrections, initial TS optimization,
                  C. Bannwarth, S. Ehlert          DFT functionals, gCP, sTDA/sTD-DF
   Ed Valeev, F. Pavosevic, A. Kumar             : LibInt (2-el integral package), F12 methods
   Garnet Chan, S. Sharma, J. Yang, R. Olivares  : DMRG
   Ulf Ekstrom                                   : XCFun DFT Library
   Mihaly Kallay                                 : mrcc  (arbitrary order and MRCC methods)
   Jiri Pittner, Ondrej Demel                    : Mk-CCSD
   Frank Weinhold                                : gennbo (NPA and NBO analysis)
   Christopher J. Cramer and Donald G. Truhlar   : smd solvation model
   Lars Goerigk                                  : TD-DFT with DH, B97 family of functionals
   V. Asgeirsson, H. Jonsson                     : NEB implementation
   FAccTs GmbH                                   : IRC, NEB, NEB-TS, DLPNO-Multilevel, CI-OPT
                                                   MM, QMMM, 2- and 3-layer-ONIOM, Crystal-QMMM,
                                                   LR-CPCM, SF, NACMEs, symmetry and pop. for TD-DFT,
                                                   nearIR, NL-DFT gradient (VV10), updates on ESD,
                                                   ML-optimized integration grids
   S Lehtola, MJT Oliveira, MAL Marques          : LibXC Library
   Liviu Ungur et al                             : ANISO software


 Your calculation uses the libint2 library for the computation of 2-el integrals
 For citations please refer to: http://libint.valeyev.net

 Your ORCA version has been built with support for libXC version: 5.1.0
 For citations please refer to: https://tddft.org/programs/libxc/

 This ORCA versions uses:
   CBLAS   interface :  Fast vector & matrix operations
   LAPACKE interface :  Fast linear algebra routines
   SCALAPACK package :  Parallel linear algebra routines
   Shared memory     :  Shared parallel matrices
   BLAS/LAPACK       :  OpenBLAS 0.3.15  USE64BITINT DYNAMIC_ARCH NO_AFFINITY Zen SINGLE_THREADED
        Core in use  :  Zen
   Copyright (c) 2011-2014, The OpenBLAS Project




***************************************
The coordinates will be read from file: opt.xyz
***************************************


XCFun DFT library Copyright 2009-2010 Ulf Ekstrom and contributors.
See http://admol.org/xcfun for more information.
This is free software; see the source code for copying conditions.
There is ABSOLUTELY NO WARRANTY; not even for MERCHANTABILITY or FITNESS FOR A PARTICULAR PURPOSE.
For details see the documentation.
Scientific users of this library should cite U. Ekstrom, L. Visscher, R. Bast, A. J. Thorvaldsen and K. Ruud;
J.Chem.Theor.Comp. 2010, DOI: 10.1021/ct100117s
XCFun Version 0.99 

================================================================================

----- Orbital basis set information -----
Your calculation utilizes the basis: def2-TZVP
   F. Weigend and R. Ahlrichs, Phys. Chem. Chem. Phys. 7, 3297 (2005).

----- AuxJ basis set information -----
Your calculation utilizes the auxiliary basis: def2/J
   F. Weigend, Phys. Chem. Chem. Phys. 8, 1057 (2006).

================================================================================
                                        WARNINGS
                       Please study these warnings very carefully!
================================================================================


WARNING: your system is open-shell and RHF/RKS was chosen
  ===> : WILL SWITCH to UHF/UKS


WARNING: Geometry Optimization
  ===> : Switching off AutoStart
         For restart on a previous wavefunction, please use MOREAD

WARNING: Minnesota functionals are quite sensitive to the integration grid.
         see SE Wheeler, KN Houk, JCTC 2010, 6, 395,
             N Mardirossian, M Head-Gordon, JCTC 2016, 12, 4303.
         DEFGRID3 seems to be a minimum grid for reliable results with these functionals!
  ===> : Please increase the integration grid!


INFO   : the flag for use of the SHARK integral package has been found!

================================================================================
                                       INPUT FILE
================================================================================
NAME = freq.inp
|  1> ! M062X def2-TZVP OPT FREQ
|  2> %pal nprocs 16 end
|  3> *XYZFile -1 2 opt.xyz
|  4> 
|  5>                          ****END OF INPUT****
================================================================================

                       *****************************
                       * Geometry Optimization Run *
                       *****************************

Geometry optimization settings:
Update method            Update   .... BFGS
Choice of coordinates    CoordSys .... Z-matrix Internals
Initial Hessian          InHess   .... Almoef's Model

Convergence Tolerances:
Energy Change            TolE     ....  5.0000e-06 Eh
Max. Gradient            TolMAXG  ....  3.0000e-04 Eh/bohr
RMS Gradient             TolRMSG  ....  1.0000e-04 Eh/bohr
Max. Displacement        TolMAXD  ....  4.0000e-03 bohr
RMS Displacement         TolRMSD  ....  2.0000e-03 bohr
Strict Convergence                ....  False
------------------------------------------------------------------------------
                        ORCA OPTIMIZATION COORDINATE SETUP
------------------------------------------------------------------------------

The optimization will be done in new redundant internal coordinates
Making redundant internal coordinates   ...  (new redundants) done
Evaluating the initial hessian          ...  (Almloef) done
Evaluating the coordinates              ...  done
Calculating the B-matrix                .... done
Calculating the G-matrix                .... done
Diagonalizing the G-matrix              .... done
Small eigenvalue found = 7.300e-03
Small eigenvalue found = 1.297e-02
Small eigenvalue found = 1.650e-02
The first mode is                       ....   46
The number of degrees of freedom        ....   72

    -----------------------------------------------------------------
                    Redundant Internal Coordinates


    -----------------------------------------------------------------
         Definition                    Initial Value    Approx d2E/dq
    -----------------------------------------------------------------
      1. B(C   1,N   0)                  1.4635         0.427225   
      2. B(C   2,C   1)                  1.5520         0.344514   
      3. B(O   3,C   2)                  1.2479         0.943324   
      4. B(C   4,C   1)                  1.5567         0.338649   
      5. B(C   5,C   4)                  1.5022         0.413699   
      6. B(C   6,C   5)                  1.4996         0.417767   
      7. B(O   7,C   6)                  1.2908         0.805728   
      8. B(O   8,C   6)                  1.2561         0.915022   
      9. B(H   9,N   0)                  1.0140         0.426470   
     10. B(C  10,N   0)                  1.3607         0.623231   
     11. B(N  11,C   2)                  1.3458         0.658207   
     12. B(H  12,N  11)                  1.0675         0.350297   
     13. B(O  13,C  10)                  1.2349         0.989413   
     14. B(C  14,C  10)                  1.5317         0.371205   
     15. B(H  15,C  14)                  1.0933         0.355751   
     16. B(H  16,C  14)                  1.0936         0.355408   
     17. B(H  17,C  14)                  1.0943         0.354424   
     18. B(C  18,N  11)                  1.4586         0.434924   
     19. B(H  19,C  18)                  1.0954         0.353055   
     20. B(H  20,C  18)                  1.0918         0.357737   
     21. B(H  21,C  18)                  1.0967         0.351301   
     22. B(H  22,C   1)                  1.1007         0.346182   
     23. B(H  23,C   4)                  1.0947         0.353913   
     24. B(H  24,C   4)                  1.0974         0.350464   
     25. B(H  25,C   5)                  1.0885         0.362090   
     26. A(C   1,N   0,H   9)          112.6627         0.336056   
     27. A(C   1,N   0,C  10)          123.0741         0.401341   
     28. A(H   9,N   0,C  10)          118.3504         0.358100   
     29. A(N   0,C   1,C   4)          113.2575         0.363322   
     30. A(C   4,C   1,H  22)          106.7446         0.317105   
     31. A(C   2,C   1,H  22)          106.0203         0.317993   
     32. A(C   2,C   1,C   4)          116.5623         0.352450   
     33. A(N   0,C   1,C   2)          105.8567         0.364391   
     34. A(N   0,C   1,H  22)          107.9089         0.327443   
     35. A(C   1,C   2,N  11)          116.9011         0.392693   
     36. A(C   1,C   2,O   3)          118.7723         0.418466   
     37. A(O   3,C   2,N  11)          124.2373         0.467319   
     38. A(C   5,C   4,H  24)          111.0101         0.328342   
     39. A(H  23,C   4,H  24)          107.7695         0.288819   
     40. A(C   1,C   4,C   5)          116.5773         0.363592   
     41. A(C   1,C   4,H  24)          105.4083         0.317740   
     42. A(C   5,C   4,H  23)          108.3908         0.328873   
     43. A(C   1,C   4,H  23)          107.3146         0.318248   
     44. A(C   4,C   5,C   6)          121.9309         0.376956   
     45. A(C   6,C   5,H  25)          117.9655         0.330651   
     46. A(C   4,C   5,H  25)          119.9003         0.330116   
     47. A(C   5,C   6,O   7)          115.9241         0.421096   
     48. A(O   7,C   6,O   8)          127.0891         0.482316   
     49. A(C   5,C   6,O   8)          116.9756         0.430796   
     50. A(O  13,C  10,C  14)          120.7734         0.427715   
     51. A(N   0,C  10,C  14)          115.2159         0.394072   
     52. A(N   0,C  10,O  13)          123.9847         0.466728   
     53. A(C   2,N  11,H  12)          120.3085         0.349580   
     54. A(H  12,N  11,C  18)          114.6453         0.326253   
     55. A(C   2,N  11,C  18)          118.7338         0.406506   
     56. A(H  16,C  14,H  17)          108.9313         0.289519   
     57. A(H  15,C  14,H  17)          107.7986         0.289563   
     58. A(C  10,C  14,H  17)          108.3012         0.323137   
     59. A(H  15,C  14,H  16)          109.6760         0.289688   
     60. A(C  10,C  14,H  16)          113.4512         0.323284   
     61. A(C  10,C  14,H  15)          108.5255         0.323335   
     62. A(H  19,C  18,H  21)          107.6727         0.288817   
     63. A(N  11,C  18,H  21)          111.6938         0.329205   
     64. A(H  19,C  18,H  20)          109.5258         0.289640   
     65. A(N  11,C  18,H  20)          107.8556         0.330194   
     66. A(N  11,C  18,H  19)          110.9684         0.329476   
     67. A(H  20,C  18,H  21)          109.1007         0.289414   
     68. D(C   2,C   1,N   0,C  10)   -153.9756         0.015561   
     69. D(C   2,C   1,N   0,H   9)     -1.5977         0.015561   
     70. D(H  22,C   1,N   0,C  10)    -40.8159         0.015561   
     71. D(H  22,C   1,N   0,H   9)    111.5621         0.015561   
     72. D(C   4,C   1,N   0,C  10)     77.1178         0.015561   
     73. D(C   4,C   1,N   0,H   9)   -130.5043         0.015561   
     74. D(N  11,C   2,C   1,C   4)    -28.4964         0.008995   
     75. D(O   3,C   2,C   1,N   0)     27.8565         0.008995   
     76. D(N  11,C   2,C   1,H  22)     90.1020         0.008995   
     77. D(O   3,C   2,C   1,H  22)    -86.6088         0.008995   
     78. D(N  11,C   2,C   1,N   0)   -155.4328         0.008995   
     79. D(O   3,C   2,C   1,C   4)    154.7928         0.008995   
     80. D(C   5,C   4,C   1,H  22)   -171.4785         0.009292   
     81. D(C   5,C   4,C   1,C   2)    -53.2739         0.009292   
     82. D(H  24,C   4,C   1,H  22)     64.8992         0.009292   
     83. D(H  24,C   4,C   1,C   2)   -176.8962         0.009292   
     84. D(H  24,C   4,C   1,N   0)    -53.7099         0.009292   
     85. D(H  23,C   4,C   1,H  22)    -49.7783         0.009292   
     86. D(H  23,C   4,C   1,C   2)     68.4263         0.009292   
     87. D(H  23,C   4,C   1,N   0)   -168.3874         0.009292   
     88. D(C   5,C   4,C   1,N   0)     69.9124         0.009292   
     89. D(H  25,C   5,C   4,H  23)    160.9207         0.012668   
     90. D(H  25,C   5,C   4,C   1)    -77.9466         0.012668   
     91. D(C   6,C   5,C   4,H  24)   -131.9696         0.012668   
     92. D(C   6,C   5,C   4,H  23)    -13.7917         0.012668   
     93. D(H  25,C   5,C   4,H  24)     42.7427         0.012668   
     94. D(C   6,C   5,C   4,C   1)    107.3410         0.012668   
     95. D(O   8,C   6,C   5,H  25)    -15.0803         0.011950   
     96. D(O   8,C   6,C   5,C   4)    159.7301         0.011950   
     97. D(O   7,C   6,C   5,H  25)    166.0497         0.011950   
     98. D(O   7,C   6,C   5,C   4)    -19.1399         0.011950   
     99. D(C  14,C  10,N   0,H   9)     21.6558         0.031478   
    100. D(C  14,C  10,N   0,C   1)    172.5681         0.031478   
    101. D(O  13,C  10,N   0,H   9)   -160.1929         0.031478   
    102. D(O  13,C  10,N   0,C   1)     -9.2807         0.031478   
    103. D(C  18,N  11,C   2,O   3)     -3.8583         0.035435   
    104. D(C  18,N  11,C   2,C   1)    179.6294         0.035435   
    105. D(H  12,N  11,C   2,O   3)   -154.4716         0.035435   
    106. D(H  12,N  11,C   2,C   1)     29.0161         0.035435   
    107. D(H  17,C  14,C  10,O  13)    -64.6258         0.010314   
    108. D(H  17,C  14,C  10,N   0)    113.5900         0.010314   
    109. D(H  16,C  14,C  10,O  13)    174.3125         0.010314   
    110. D(H  16,C  14,C  10,N   0)     -7.4717         0.010314   
    111. D(H  15,C  14,C  10,O  13)     52.1423         0.010314   
    112. D(H  15,C  14,C  10,N   0)   -129.6418         0.010314   
    113. D(H  21,C  18,N  11,H  12)     97.1562         0.016128   
    114. D(H  21,C  18,N  11,C   2)    -55.0630         0.016128   
    115. D(H  20,C  18,N  11,H  12)    -22.7213         0.016128   
    116. D(H  20,C  18,N  11,C   2)   -174.9405         0.016128   
    117. D(H  19,C  18,N  11,H  12)   -142.6883         0.016128   
    118. D(H  19,C  18,N  11,C   2)     65.0925         0.016128   
    -----------------------------------------------------------------

Number of atoms                         .... 26
Number of degrees of freedom            .... 118

         *************************************************************
         *                GEOMETRY OPTIMIZATION CYCLE   1            *
         *************************************************************
---------------------------------
CARTESIAN COORDINATES (ANGSTROEM)
---------------------------------
  N     -3.762577    0.008430   -0.032225
  C     -2.310673   -0.133261   -0.149045
  C     -1.779626   -0.268867    1.303003
  O     -2.529314   -0.755666    2.173711
  C     -1.654350    0.969592   -1.030140
  C     -1.632722    2.359820   -0.461378
  C     -0.369367    2.990775    0.043130
  O      0.595053    2.178996    0.320618
  O     -0.353380    4.243838    0.129615
  H     -4.083699   -0.038888    0.928370
  C     -4.625713   -0.351702   -1.020536
  N     -0.501010    0.090799    1.519825
  H     -0.042319    0.840932    0.914445
  O     -4.274935   -0.673350   -2.160009
  C     -6.109393   -0.293769   -0.644317
  H     -6.574800   -1.244146   -0.919090
  H     -6.281802   -0.092506    0.416657
  H     -6.583626    0.494600   -1.236874
  C      0.036962   -0.012791    2.871638
  H      0.076052   -1.057381    3.198987
  H      1.045602    0.405047    2.863466
  H     -0.574685    0.540091    3.594849
  H     -2.102970   -1.096466   -0.639657
  H     -0.622527    0.659952   -1.224749
  H     -2.197472    0.942856   -1.983321
  H     -2.533627    2.970226   -0.485986

----------------------------
CARTESIAN COORDINATES (A.U.)
----------------------------
  NO LB      ZA    FRAG     MASS         X           Y           Z
   0 N     7.0000    0    14.007   -7.110240    0.015930   -0.060895
   1 C     6.0000    0    12.011   -4.366539   -0.251826   -0.281654
   2 C     6.0000    0    12.011   -3.363007   -0.508085    2.462318
   3 O     8.0000    0    15.999   -4.779712   -1.428002    4.107719
   4 C     6.0000    0    12.011   -3.126268    1.832263   -1.946682
   5 C     6.0000    0    12.011   -3.085397    4.459414   -0.871878
   6 C     6.0000    0    12.011   -0.698003    5.651745    0.081504
   7 O     8.0000    0    15.999    1.124487    4.117706    0.605881
   8 O     8.0000    0    15.999   -0.667792    8.019691    0.244936
   9 H     1.0000    0     1.008   -7.717073   -0.073489    1.754366
  10 C     6.0000    0    12.011   -8.741331   -0.664621   -1.928533
  11 N     7.0000    0    14.007   -0.946772    0.171584    2.872053
  12 H     1.0000    0     1.008   -0.079971    1.589131    1.728051
  13 O     8.0000    0    15.999   -8.078457   -1.272447   -4.081825
  14 C     6.0000    0    12.011  -11.545080   -0.555143   -1.217582
  15 H     1.0000    0     1.008  -12.424572   -2.351096   -1.736828
  16 H     1.0000    0     1.008  -11.870885   -0.174811    0.787367
  17 H     1.0000    0     1.008  -12.441250    0.934658   -2.337354
  18 C     6.0000    0    12.011    0.069848   -0.024172    5.426609
  19 H     1.0000    0     1.008    0.143718   -1.998160    6.045209
  20 H     1.0000    0     1.008    1.975902    0.765428    5.411166
  21 H     1.0000    0     1.008   -1.085997    1.020625    6.793281
  22 H     1.0000    0     1.008   -3.974037   -2.072020   -1.208777
  23 H     1.0000    0     1.008   -1.176406    1.247129   -2.314439
  24 H     1.0000    0     1.008   -4.152621    1.781739   -3.747933
  25 H     1.0000    0     1.008   -4.787861    5.612913   -0.918380

--------------------------------
INTERNAL COORDINATES (ANGSTROEM)
--------------------------------
 N      0   0   0     0.000000000000     0.00000000     0.00000000
 C      1   0   0     1.463471383234     0.00000000     0.00000000
 C      2   1   0     1.552044370675   105.85673364     0.00000000
 O      3   2   1     1.247853675278   118.77232075    27.85646804
 C      2   1   3     1.556718531725   113.25750643   231.09336851
 C      5   2   1     1.502229155418   116.57733384    69.91244871
 C      6   5   2     1.499565253264   121.93091599   107.34101172
 O      7   6   5     1.290771358267   115.92411085   340.86013869
 O      7   6   5     1.256145549992   116.97562652   159.73013714
 H      1   2   3     1.013952972127   112.66268494   358.40234579
 C      1   2   3     1.360682925054   123.07405326   206.02442485
 N      3   2   1     1.345819631573   116.90109867   204.56724928
 H     12   3   2     1.067512762043   120.30845666    29.01608362
 O     11   1   2     1.234868740516   123.98471235   350.71931447
 C     11   1   2     1.531732003495   115.21588537   172.56809190
 H     15  11   1     1.093307664807   108.52548739   230.35816651
 H     15  11   1     1.093570346229   113.45116101   352.52832177
 H     15  11   1     1.094324588050   108.30121497   113.59003796
 C     12   3   2     1.458609469655   118.73378575   179.62938008
 H     19  12   3     1.095378172225   110.96842084    65.09252662
 H     19  12   3     1.091792439066   107.85558388   185.05950415
 H     19  12   3     1.096734110644   111.69376803   304.93698417
 H      2   1   3     1.100729398716   107.90894122   113.15971605
 H      5   2   1     1.094717478141   107.31458681   191.61263808
 H      5   2   1     1.097383629452   105.40829202   306.29010743
 H      6   5   2     1.088499599727   119.90029331   282.05336527

---------------------------
INTERNAL COORDINATES (A.U.)
---------------------------
 N      0   0   0     0.000000000000     0.00000000     0.00000000
 C      1   0   0     2.765560119144     0.00000000     0.00000000
 C      2   1   0     2.932938808270   105.85673364     0.00000000
 O      3   2   1     2.358101701483   118.77232075    27.85646804
 C      2   1   3     2.941771692559   113.25750643   231.09336851
 C      5   2   1     2.838801694132   116.57733384    69.91244871
 C      6   5   2     2.833767648614   121.93091599   107.34101172
 O      7   6   5     2.439204368634   115.92411085   340.86013869
 O      7   6   5     2.373771073828   116.97562652   159.73013714
 H      1   2   3     1.916093429996   112.66268494   358.40234579
 C      1   2   3     2.571318083454   123.07405326   206.02442485
 N      3   2   1     2.543230529328   116.90109867   204.56724928
 H     12   3   2     2.017306764727   120.30845666    29.01608362
 O     11   1   2     2.333563730915   123.98471235   350.71931447
 C     11   1   2     2.894553997167   115.21588537   172.56809190
 H     15  11   1     2.066052066602   108.52548739   230.35816651
 H     15  11   1     2.066548462550   113.45116101   352.52832177
 H     15  11   1     2.067973773030   108.30121497   113.59003796
 C     12   3   2     2.756372433992   118.73378575   179.62938008
 H     19  12   3     2.069964758580   110.96842084    65.09252662
 H     19  12   3     2.063188704921   107.85558388   185.05950415
 H     19  12   3     2.072527110847   111.69376803   304.93698417
 H      2   1   3     2.080077111130   107.90894122   113.15971605
 H      5   2   1     2.068716227704   107.31458681   191.61263808
 H      5   2   1     2.073754523512   105.40829202   306.29010743
 H      6   5   2     2.056966140367   119.90029331   282.05336527

---------------------
BASIS SET INFORMATION
---------------------
There are 4 groups of distinct atoms

 Group   1 Type N   : 11s6p2d1f contracted to 5s3p2d1f pattern {62111/411/11/1}
 Group   2 Type C   : 11s6p2d1f contracted to 5s3p2d1f pattern {62111/411/11/1}
 Group   3 Type O   : 11s6p2d1f contracted to 5s3p2d1f pattern {62111/411/11/1}
 Group   4 Type H   : 5s1p contracted to 3s1p pattern {311/1}

Atom   0N    basis set group =>   1
Atom   1C    basis set group =>   2
Atom   2C    basis set group =>   2
Atom   3O    basis set group =>   3
Atom   4C    basis set group =>   2
Atom   5C    basis set group =>   2
Atom   6C    basis set group =>   2
Atom   7O    basis set group =>   3
Atom   8O    basis set group =>   3
Atom   9H    basis set group =>   4
Atom  10C    basis set group =>   2
Atom  11N    basis set group =>   1
Atom  12H    basis set group =>   4
Atom  13O    basis set group =>   3
Atom  14C    basis set group =>   2
Atom  15H    basis set group =>   4
Atom  16H    basis set group =>   4
Atom  17H    basis set group =>   4
Atom  18C    basis set group =>   2
Atom  19H    basis set group =>   4
Atom  20H    basis set group =>   4
Atom  21H    basis set group =>   4
Atom  22H    basis set group =>   4
Atom  23H    basis set group =>   4
Atom  24H    basis set group =>   4
Atom  25H    basis set group =>   4
---------------------------------
AUXILIARY/J BASIS SET INFORMATION
---------------------------------
There are 4 groups of distinct atoms

 Group   1 Type N   : 12s5p4d2f1g contracted to 6s4p3d1f1g pattern {711111/2111/211/2/1}
 Group   2 Type C   : 12s5p4d2f1g contracted to 6s4p3d1f1g pattern {711111/2111/211/2/1}
 Group   3 Type O   : 12s5p4d2f1g contracted to 6s4p3d1f1g pattern {711111/2111/211/2/1}
 Group   4 Type H   : 5s2p1d contracted to 3s1p1d pattern {311/2/1}

Atom   0N    basis set group =>   1
Atom   1C    basis set group =>   2
Atom   2C    basis set group =>   2
Atom   3O    basis set group =>   3
Atom   4C    basis set group =>   2
Atom   5C    basis set group =>   2
Atom   6C    basis set group =>   2
Atom   7O    basis set group =>   3
Atom   8O    basis set group =>   3
Atom   9H    basis set group =>   4
Atom  10C    basis set group =>   2
Atom  11N    basis set group =>   1
Atom  12H    basis set group =>   4
Atom  13O    basis set group =>   3
Atom  14C    basis set group =>   2
Atom  15H    basis set group =>   4
Atom  16H    basis set group =>   4
Atom  17H    basis set group =>   4
Atom  18C    basis set group =>   2
Atom  19H    basis set group =>   4
Atom  20H    basis set group =>   4
Atom  21H    basis set group =>   4
Atom  22H    basis set group =>   4
Atom  23H    basis set group =>   4
Atom  24H    basis set group =>   4
Atom  25H    basis set group =>   4


           ************************************************************
           *        Program running with 16 parallel MPI-processes    *
           *              working on a common directory               *
           ************************************************************
------------------------------------------------------------------------------
                           ORCA GTO INTEGRAL CALCULATION
                           -- RI-GTO INTEGRALS CHOSEN --
------------------------------------------------------------------------------
------------------------------------------------------------------------------
                   ___                                                        
                  /   \      - P O W E R E D   B Y -                         
                 /     \                                                     
                 |  |  |   _    _      __       _____    __    __             
                 |  |  |  | |  | |    /  \     |  _  \  |  |  /  |          
                  \  \/   | |  | |   /    \    | | | |  |  | /  /          
                 / \  \   | |__| |  /  /\  \   | |_| |  |  |/  /          
                |  |  |   |  __  | /  /__\  \  |    /   |      \           
                |  |  |   | |  | | |   __   |  |    \   |  |\   \          
                \     /   | |  | | |  |  |  |  | |\  \  |  | \   \       
                 \___/    |_|  |_| |__|  |__|  |_| \__\ |__|  \__/        
                                                                              
                      - O R C A' S   B I G   F R I E N D -                    
                                      &                                       
                       - I N T E G R A L  F E E D E R -                       
                                                                              
 v1 FN, 2020, v2 2021                                                         
------------------------------------------------------------------------------


Reading SHARK input file freq.SHARKINP.tmp ... ok
----------------------
SHARK INTEGRAL PACKAGE
----------------------

Number of atoms                             ...     26
Number of basis functions                   ...    506
Number of shells                            ...    202
Maximum angular momentum                    ...      3
Integral batch strategy                     ... SHARK/LIBINT Hybrid
RI-J (if used) integral strategy            ... SPLIT-RIJ (Revised 2003 algorithm where possible)
Printlevel                                  ...      1
Contraction scheme used                     ... SEGMENTED contraction
Coulomb Range Separation                    ... NOT USED
Exchange Range Separation                   ... NOT USED
Finite Nucleus Model                        ... NOT USED
Auxiliary Coulomb fitting basis             ... AVAILABLE
   # of basis functions in Aux-J            ...    818
   # of shells in Aux-J                     ...    270
   Maximum angular momentum in Aux-J        ...      4
Auxiliary J/K fitting basis                 ... NOT available
Auxiliary Correlation fitting basis         ... NOT available
Auxiliary 'external' fitting basis          ... NOT available
Integral threshold                          ...     2.500000e-11
Primitive cut-off                           ...     2.500000e-12
Primitive pair pre-selection threshold      ...     2.500000e-12

Calculating pre-screening integrals         ... done (  0.0 sec) Dimension = 202
Organizing shell pair data                  ... done (  0.1 sec)
Shell pair information
Total number of shell pairs                 ...     20503
Shell pairs after pre-screening             ...     16240
Total number of primitive shell pairs       ...     62472
Primitive shell pairs kept                  ...     34393
          la=0 lb=0:   4365 shell pairs
          la=1 lb=0:   4658 shell pairs
          la=1 lb=1:   1282 shell pairs
          la=2 lb=0:   2287 shell pairs
          la=2 lb=1:   1247 shell pairs
          la=2 lb=2:    321 shell pairs
          la=3 lb=0:   1100 shell pairs
          la=3 lb=1:    609 shell pairs
          la=3 lb=2:    294 shell pairs
          la=3 lb=3:     77 shell pairs

Calculating one electron integrals          ... done (  0.0 sec)
Calculating RI/J V-Matrix + Cholesky decomp.... done (  0.0 sec)
Calculating Nuclear repulsion               ... done (  0.0 sec) ENN=    914.190847209524 Eh

SHARK setup successfully completed in   0.3 seconds

Maximum memory used throughout the entire GTOINT-calculation: 28.6 MB


           ************************************************************
           *        Program running with 16 parallel MPI-processes    *
           *              working on a common directory               *
           ************************************************************
-------------------------------------------------------------------------------
                                 ORCA SCF
-------------------------------------------------------------------------------

------------
SCF SETTINGS
------------
Hamiltonian:
 Density Functional     Method          .... DFT(GTOs)
 Exchange Functional    Exchange        .... M062X
 Correlation Functional Correlation     .... M062X
 Gradients option       PostSCFGGA      .... off
 Hybrid DFT is turned on
   Fraction HF Exchange ScalHFX         ....  0.540000
   Scaling of DF-GGA-X  ScalDFX         ....  0.460000
   Scaling of DF-GGA-C  ScalDFC         ....  1.000000
   Scaling of DF-LDA-C  ScalLDAC        ....  1.000000
   Perturbative correction              ....  0.000000
   Density functional embedding theory  .... OFF
 RI-approximation to the Coulomb term is turned on
   Number of AuxJ basis functions       .... 818
   RIJ-COSX (HFX calculated with COS-X)).... on


General Settings:
 Integral files         IntName         .... freq
 Hartree-Fock type      HFTyp           .... UHF
 Total Charge           Charge          ....   -1
 Multiplicity           Mult            ....    2
 Number of Electrons    NEL             ....  107
 Basis Dimension        Dim             ....  506
 Nuclear Repulsion      ENuc            ....    914.1908472095 Eh

Convergence Acceleration:
 DIIS                   CNVDIIS         .... on
   Start iteration      DIISMaxIt       ....    12
   Startup error        DIISStart       ....  0.200000
   # of expansion vecs  DIISMaxEq       ....     5
   Bias factor          DIISBfac        ....   1.050
   Max. coefficient     DIISMaxC        ....  10.000
 Trust-Rad. Augm. Hess. CNVTRAH         .... auto
   Auto Start mean grad. ratio tolernc. ....  1.125000
   Auto Start start iteration           ....    20
   Auto Start num. interpolation iter.  ....    10
   Max. Number of Micro iterations      ....    16
   Max. Number of Macro iterations      .... Maxiter - #DIIS iter
   Number of Davidson start vectors     ....     2
   Converg. threshold I  (grad. norm)   ....   1.000e-05
   Converg. threshold II (energy diff.) ....   1.000e-08
   Grad. Scal. Fac. for Micro threshold ....   0.100
   Minimum threshold for Micro iter.    ....   0.010
   NR start threshold (gradient norm)   ....   0.001
   Initial trust radius                 ....   0.400
   Minimum AH scaling param. (alpha)    ....   1.000
   Maximum AH scaling param. (alpha)    .... 1000.000
   Orbital update algorithm             .... Taylor
   White noise on init. David. guess    .... on
   Maximum white noise                  ....   0.010
   Quad. conv. algorithm                .... NR
 SOSCF                  CNVSOSCF        .... off
 Level Shifting         CNVShift        .... on
   Level shift para.    LevelShift      ....    0.2500
   Turn off err/grad.   ShiftErr        ....    0.0010
 Zerner damping         CNVZerner       .... off
 Static damping         CNVDamp         .... on
   Fraction old density DampFac         ....    0.7000
   Max. Damping (<1)    DampMax         ....    0.9800
   Min. Damping (>=0)   DampMin         ....    0.0000
   Turn off err/grad.   DampErr         ....    0.1000
 Fernandez-Rico         CNVRico         .... off

SCF Procedure:
 Maximum # iterations   MaxIter         ....   125
 SCF integral mode      SCFMode         .... Direct
   Integral package                     .... SHARK and LIBINT hybrid scheme
 Reset frequency        DirectResetFreq ....    20
 Integral Threshold     Thresh          ....  2.500e-11 Eh
 Primitive CutOff       TCut            ....  2.500e-12 Eh

Convergence Tolerance:
 Convergence Check Mode ConvCheckMode   .... Total+1el-Energy
 Convergence forced     ConvForced      .... 0
 Energy Change          TolE            ....  1.000e-08 Eh
 1-El. energy change                    ....  1.000e-05 Eh
 DIIS Error             TolErr          ....  5.000e-07


Diagonalization of the overlap matrix:
Smallest eigenvalue                        ... 6.335e-05
Time for diagonalization                   ...    0.030 sec
Threshold for overlap eigenvalues          ... 1.000e-08
Number of eigenvalues below threshold      ... 0
Time for construction of square roots      ...    0.020 sec
Total time needed                          ...    0.052 sec

Time for model grid setup =    0.102 sec

------------------------------
INITIAL GUESS: MODEL POTENTIAL
------------------------------
Loading Hartree-Fock densities                     ... done
Calculating cut-offs                               ... done
Initializing the effective Hamiltonian             ... done
Setting up the integral package (SHARK)            ... done
Starting the Coulomb interaction                   ... done (   0.1 sec)
Reading the grid                                   ... done
Mapping shells                                     ... done
Starting the XC term evaluation                    ... done (   0.1 sec)
  promolecular density results
     # of electrons  =    105.987652909
     EX              =    -90.056883428
     EC              =     -3.549094893
     EX+EC           =    -93.605978321
Transforming the Hamiltonian                       ... done (   0.0 sec)
Diagonalizing the Hamiltonian                      ... done (   0.0 sec)
Back transforming the eigenvectors                 ... done (   0.0 sec)
Now organizing SCF variables                       ... done
                      ------------------
                      INITIAL GUESS DONE (   0.4 sec)
                      ------------------
-------------------
DFT GRID GENERATION
-------------------

General Integration Accuracy     IntAcc      ... 4.388
Radial Grid Type                 RadialGrid  ... OptM3 with GC (2021)
Angular Grid (max. ang.)         AngularGrid ... 4 (Lebedev-302)
Angular grid pruning method      GridPruning ... 4 (adaptive)
Weight generation scheme         WeightScheme... Becke
Basis function cutoff            BFCut       ... 1.0000e-11
Integration weight cutoff        WCut        ... 1.0000e-14
Angular grids for H and He will be reduced by one unit
Partially contracted basis set               ... off
Rotationally invariant grid construction     ... off

Total number of grid points                  ...   122645
Total number of batches                      ...     1930
Average number of points per batch           ...       63
Average number of grid points per atom       ...     4717
Time for grid setup =    0.543 sec

--------------------
COSX GRID GENERATION
--------------------

GRIDX 1
-------
General Integration Accuracy     IntAcc      ... 3.816
Radial Grid Type                 RadialGrid  ... OptM3 with GC (2021)
Angular Grid (max. ang.)         AngularGrid ... 1 (Lebedev-50)
Angular grid pruning method      GridPruning ... 4 (adaptive)
Weight generation scheme         WeightScheme... Becke
Basis function cutoff            BFCut       ... 1.0000e-11
Integration weight cutoff        WCut        ... 1.0000e-14
Angular grids for H and He will be reduced by one unit
Partially contracted basis set               ... on
Rotationally invariant grid construction     ... off

Total number of grid points                  ...    15620
Total number of batches                      ...      256
Average number of points per batch           ...       61
Average number of grid points per atom       ...      601
UseSFitting                                  ... on

GRIDX 2
-------
General Integration Accuracy     IntAcc      ... 4.020
Radial Grid Type                 RadialGrid  ... OptM3 with GC (2021)
Angular Grid (max. ang.)         AngularGrid ... 2 (Lebedev-110)
Angular grid pruning method      GridPruning ... 4 (adaptive)
Weight generation scheme         WeightScheme... Becke
Basis function cutoff            BFCut       ... 1.0000e-11
Integration weight cutoff        WCut        ... 1.0000e-14
Angular grids for H and He will be reduced by one unit
Partially contracted basis set               ... on
Rotationally invariant grid construction     ... off

Total number of grid points                  ...    33953
Total number of batches                      ...      544
Average number of points per batch           ...       62
Average number of grid points per atom       ...     1306
UseSFitting                                  ... on

GRIDX 3
-------
General Integration Accuracy     IntAcc      ... 4.338
Radial Grid Type                 RadialGrid  ... OptM3 with GC (2021)
Angular Grid (max. ang.)         AngularGrid ... 3 (Lebedev-194)
Angular grid pruning method      GridPruning ... 4 (adaptive)
Weight generation scheme         WeightScheme... Becke
Basis function cutoff            BFCut       ... 1.0000e-11
Integration weight cutoff        WCut        ... 1.0000e-14
Angular grids for H and He will be reduced by one unit
Partially contracted basis set               ... on
Rotationally invariant grid construction     ... off

Total number of grid points                  ...    74388
Total number of batches                      ...     1175
Average number of points per batch           ...       63
Average number of grid points per atom       ...     2861
UseSFitting                                  ... on

Time for X-Grid setup             =    0.660 sec

--------------
SCF ITERATIONS
--------------
ITER       Energy         Delta-E        Max-DP      RMS-DP      [F,P]     Damp
               ***  Starting incremental Fock matrix formation  ***
  0   -721.9746582234   0.000000000000 0.09562126  0.00059568  0.1662933 0.7000
  1   -722.2255577394  -0.250899516059 0.09965523  0.00050846  0.0823965 0.7000
                               ***Turning on DIIS***
  2   -722.3340880122  -0.108530272723 0.17932816  0.00091234  0.0319454 0.0000
  3   -722.5110881389  -0.177000126693 0.09286670  0.00038605  0.0427948 0.0000
  4   -722.5428671335  -0.031778994649 0.02796328  0.00012837  0.0058287 0.0000
  5   -722.5443622475  -0.001495114032 0.01088311  0.00005474  0.0029098 0.0000
  6   -722.5446582701  -0.000296022526 0.00407226  0.00002921  0.0017518 0.0000
  7   -722.5447544136  -0.000096143517 0.00371908  0.00002911  0.0009405 0.0000
               *** Restarting incremental Fock matrix formation ***
                                   *** Resetting DIIS ***
  8   -722.5448199466  -0.000065533038 0.00060068  0.00000787  0.0005015 0.0000
  9   -722.5448232821  -0.000003335501 0.00031252  0.00000316  0.0006523 0.0000
 10   -722.5448272819  -0.000003999765 0.00036277  0.00000299  0.0001635 0.0000
 11   -722.5448285047  -0.000001222817 0.00021254  0.00000159  0.0001197 0.0000
 12   -722.5448289349  -0.000000430235 0.00008667  0.00000079  0.0000738 0.0000
 13   -722.5448290772  -0.000000142268 0.00006938  0.00000042  0.0000483 0.0000
 14   -722.5448291246  -0.000000047353 0.00002772  0.00000027  0.0000217 0.0000
 15   -722.5448291498  -0.000000025203 0.00002494  0.00000017  0.0000143 0.0000
 16   -722.5448291529  -0.000000003109 0.00001367  0.00000010  0.0000095 0.0000
 17   -722.5448291715  -0.000000018637 0.00000675  0.00000005  0.0000033 0.0000
 18   -722.5448291640   0.000000007538 0.00000213  0.00000002  0.0000014 0.0000
                 **** Energy Check signals convergence ****

               *****************************************************
               *                     SUCCESS                       *
               *           SCF CONVERGED AFTER  19 CYCLES          *
               *****************************************************

Old exchange energy                            =    -49.711469558 Eh
New exchange energy                            =    -49.711465427 Eh
Exchange energy change after final integration =      0.000004131 Eh
Total energy after final integration           =   -722.544825033 Eh
Final COS-X integration done in                =     3.968 sec

----------------
TOTAL SCF ENERGY
----------------

Total Energy       :         -722.54482503 Eh          -19661.44426 eV

Components:
Nuclear Repulsion  :          914.19084721 Eh           24876.39764 eV
Electronic Energy  :        -1636.73567224 Eh          -44537.84190 eV
One Electron Energy:        -2815.66814008 Eh          -76618.22529 eV
Two Electron Energy:         1178.93246784 Eh           32080.38339 eV
Max COSX asymmetry :            0.00000264 Eh               0.00007 eV

Virial components:
Potential Energy   :        -1441.33723655 Eh          -39220.78015 eV
Kinetic Energy     :          718.79241152 Eh           19559.33589 eV
Virial Ratio       :            2.00522044


DFT components:
N(Alpha)           :       54.000081472555 electrons
N(Beta)            :       53.000026065724 electrons
N(Total)           :      107.000107538279 electrons
E(XC)              :      -46.349295100344 Eh       
DFET-embed. en.    :        0.000000000000 Eh       

---------------
SCF CONVERGENCE
---------------

  Last Energy change         ...   -5.6787e-10  Tolerance :   1.0000e-08
  Last MAX-Density change    ...    0.0000e+00  Tolerance :   1.0000e-07
  Last RMS-Density change    ...    0.0000e+00  Tolerance :   5.0000e-09
  Last DIIS Error            ...    1.0932e-06  Tolerance :   5.0000e-07

             **** THE GBW FILE WAS UPDATED (freq.gbw) ****
             **** DENSITY freq.scfp WAS UPDATED ****
             **** ENERGY FILE WAS UPDATED (freq.en.tmp) ****
----------------------
UHF SPIN CONTAMINATION
----------------------

Warning: in a DFT calculation there is little theoretical justification to 
         calculate <S**2> as in Hartree-Fock theory. We will do it anyways
         but you should keep in mind that the values have only limited relevance

Expectation value of <S**2>     :     0.757997
Ideal value S*(S+1) for S=0.5   :     0.750000
Deviation                       :     0.007997

             **** THE GBW FILE WAS UPDATED (freq.gbw) ****
             **** DENSITY freq.scfp WAS UPDATED ****
----------------
ORBITAL ENERGIES
----------------
                 SPIN UP ORBITALS
  NO   OCC          E(Eh)            E(eV) 
   0   1.0000     -19.491758      -530.3977 
   1   1.0000     -19.478961      -530.0495 
   2   1.0000     -19.414997      -528.3089 
   3   1.0000     -19.409809      -528.1677 
   4   1.0000     -14.665550      -399.0699 
   5   1.0000     -14.634218      -398.2173 
   6   1.0000     -10.546936      -286.9967 
   7   1.0000     -10.525722      -286.4195 
   8   1.0000     -10.478338      -285.1301 
   9   1.0000     -10.474814      -285.0342 
  10   1.0000     -10.455271      -284.5024 
  11   1.0000     -10.449597      -284.3480 
  12   1.0000     -10.420315      -283.5512 
  13   1.0000     -10.416796      -283.4554 
  14   1.0000      -1.052550       -28.6413 
  15   1.0000      -1.034971       -28.1630 
  16   1.0000      -0.987448       -26.8698 
  17   1.0000      -0.925288       -25.1784 
  18   1.0000      -0.904877       -24.6230 
  19   1.0000      -0.889513       -24.2049 
  20   1.0000      -0.777219       -21.1492 
  21   1.0000      -0.735084       -20.0026 
  22   1.0000      -0.692427       -18.8419 
  23   1.0000      -0.654195       -17.8015 
  24   1.0000      -0.592615       -16.1259 
  25   1.0000      -0.549959       -14.9651 
  26   1.0000      -0.523842       -14.2545 
  27   1.0000      -0.499871       -13.6022 
  28   1.0000      -0.463332       -12.6079 
  29   1.0000      -0.448148       -12.1947 
  30   1.0000      -0.436343       -11.8735 
  31   1.0000      -0.423890       -11.5346 
  32   1.0000      -0.418534       -11.3889 
  33   1.0000      -0.403639       -10.9836 
  34   1.0000      -0.391788       -10.6611 
  35   1.0000      -0.382319       -10.4034 
  36   1.0000      -0.377594       -10.2748 
  37   1.0000      -0.366893        -9.9837 
  38   1.0000      -0.357535        -9.7290 
  39   1.0000      -0.340439        -9.2638 
  40   1.0000      -0.339133        -9.2283 
  41   1.0000      -0.331904        -9.0316 
  42   1.0000      -0.321991        -8.7618 
  43   1.0000      -0.309444        -8.4204 
  44   1.0000      -0.304058        -8.2738 
  45   1.0000      -0.291436        -7.9304 
  46   1.0000      -0.233150        -6.3443 
  47   1.0000      -0.226886        -6.1739 
  48   1.0000      -0.217919        -5.9299 
  49   1.0000      -0.199304        -5.4233 
  50   1.0000      -0.172464        -4.6930 
  51   1.0000      -0.171902        -4.6777 
  52   1.0000      -0.159546        -4.3415 
  53   1.0000      -0.127361        -3.4657 
  54   0.0000       0.150535         4.0963 
  55   0.0000       0.158691         4.3182 
  56   0.0000       0.170819         4.6482 
  57   0.0000       0.191906         5.2220 
  58   0.0000       0.205758         5.5990 
  59   0.0000       0.210973         5.7409 
  60   0.0000       0.223846         6.0912 
  61   0.0000       0.237891         6.4733 
  62   0.0000       0.244026         6.6403 
  63   0.0000       0.249941         6.8012 
  64   0.0000       0.251179         6.8349 
  65   0.0000       0.256893         6.9904 
  66   0.0000       0.267126         7.2689 
  67   0.0000       0.271433         7.3861 
  68   0.0000       0.274042         7.4571 
  69   0.0000       0.286996         7.8096 
  70   0.0000       0.295490         8.0407 
  71   0.0000       0.309552         8.4233 
  72   0.0000       0.325727         8.8635 
  73   0.0000       0.329533         8.9670 
  74   0.0000       0.332768         9.0551 
  75   0.0000       0.336188         9.1482 
  76   0.0000       0.355287         9.6679 
  77   0.0000       0.358557         9.7568 
  78   0.0000       0.361383         9.8337 
  79   0.0000       0.373953        10.1758 
  80   0.0000       0.382689        10.4135 
  81   0.0000       0.390126        10.6159 
  82   0.0000       0.399153        10.8615 
  83   0.0000       0.408191        11.1074 
  84   0.0000       0.410856        11.1800 
  85   0.0000       0.427586        11.6352 
  86   0.0000       0.435791        11.8585 
  87   0.0000       0.441491        12.0136 
  88   0.0000       0.461038        12.5455 
  89   0.0000       0.467784        12.7291 
  90   0.0000       0.476336        12.9618 
  91   0.0000       0.479143        13.0381 
  92   0.0000       0.486594        13.2409 
  93   0.0000       0.499074        13.5805 
  94   0.0000       0.501615        13.6496 
  95   0.0000       0.512275        13.9397 
  96   0.0000       0.516739        14.0612 
  97   0.0000       0.521754        14.1977 
  98   0.0000       0.530762        14.4428 
  99   0.0000       0.536148        14.5893 
 100   0.0000       0.541900        14.7459 
 101   0.0000       0.546793        14.8790 
 102   0.0000       0.550835        14.9890 
 103   0.0000       0.562020        15.2933 
 104   0.0000       0.568366        15.4660 
 105   0.0000       0.577711        15.7203 
 106   0.0000       0.579651        15.7731 
 107   0.0000       0.588612        16.0170 
 108   0.0000       0.596147        16.2220 
 109   0.0000       0.604468        16.4484 
 110   0.0000       0.610808        16.6209 
 111   0.0000       0.616624        16.7792 
 112   0.0000       0.620982        16.8978 
 113   0.0000       0.629366        17.1259 
 114   0.0000       0.633390        17.2354 
 115   0.0000       0.642913        17.4946 
 116   0.0000       0.657484        17.8911 
 117   0.0000       0.658827        17.9276 
 118   0.0000       0.664396        18.0791 
 119   0.0000       0.671518        18.2729 
 120   0.0000       0.677226        18.4283 
 121   0.0000       0.684921        18.6377 
 122   0.0000       0.687111        18.6972 
 123   0.0000       0.695101        18.9147 
 124   0.0000       0.709228        19.2991 
 125   0.0000       0.715566        19.4715 
 126   0.0000       0.724127        19.7045 
 127   0.0000       0.729443        19.8492 
 128   0.0000       0.730522        19.8785 
 129   0.0000       0.741698        20.1826 
 130   0.0000       0.765752        20.8372 
 131   0.0000       0.772925        21.0324 
 132   0.0000       0.780199        21.2303 
 133   0.0000       0.788242        21.4492 
 134   0.0000       0.798171        21.7193 
 135   0.0000       0.811860        22.0918 
 136   0.0000       0.827285        22.5116 
 137   0.0000       0.839066        22.8321 
 138   0.0000       0.843821        22.9615 
 139   0.0000       0.868135        23.6232 
 140   0.0000       0.876426        23.8488 
 141   0.0000       0.880803        23.9679 
 142   0.0000       0.895576        24.3699 
 143   0.0000       0.899038        24.4641 
 144   0.0000       0.905458        24.6388 
 145   0.0000       0.922350        25.0984 
 146   0.0000       0.943646        25.6779 
 147   0.0000       0.960157        26.1272 
 148   0.0000       0.980019        26.6677 
 149   0.0000       0.986786        26.8518 
 150   0.0000       0.996724        27.1222 
 151   0.0000       0.998261        27.1641 
 152   0.0000       1.016944        27.6724 
 153   0.0000       1.034743        28.1568 
 154   0.0000       1.047115        28.4935 
 155   0.0000       1.052007        28.6266 
 156   0.0000       1.063522        28.9399 
 157   0.0000       1.068701        29.0808 
 158   0.0000       1.081075        29.4176 
 159   0.0000       1.088848        29.6290 
 160   0.0000       1.098931        29.9034 
 161   0.0000       1.113552        30.3013 
 162   0.0000       1.117994        30.4222 
 163   0.0000       1.133131        30.8341 
 164   0.0000       1.156454        31.4687 
 165   0.0000       1.166997        31.7556 
 166   0.0000       1.172124        31.8951 
 167   0.0000       1.186601        32.2891 
 168   0.0000       1.208655        32.8892 
 169   0.0000       1.223212        33.2853 
 170   0.0000       1.241782        33.7906 
 171   0.0000       1.264595        34.4114 
 172   0.0000       1.267766        34.4977 
 173   0.0000       1.270578        34.5742 
 174   0.0000       1.287569        35.0365 
 175   0.0000       1.304531        35.4981 
 176   0.0000       1.314307        35.7641 
 177   0.0000       1.330934        36.2165 
 178   0.0000       1.335191        36.3324 
 179   0.0000       1.367827        37.2205 
 180   0.0000       1.387653        37.7600 
 181   0.0000       1.420163        38.6446 
 182   0.0000       1.440847        39.2074 
 183   0.0000       1.445343        39.3298 
 184   0.0000       1.449715        39.4488 
 185   0.0000       1.462425        39.7946 
 186   0.0000       1.482048        40.3286 
 187   0.0000       1.485475        40.4218 
 188   0.0000       1.529733        41.6262 
 189   0.0000       1.536260        41.8038 
 190   0.0000       1.555808        42.3357 
 191   0.0000       1.568756        42.6880 
 192   0.0000       1.591573        43.3089 
 193   0.0000       1.591817        43.3156 
 194   0.0000       1.615124        43.9498 
 195   0.0000       1.625054        44.2200 
 196   0.0000       1.631681        44.4003 
 197   0.0000       1.636464        44.5304 
 198   0.0000       1.647258        44.8242 
 199   0.0000       1.656594        45.0782 
 200   0.0000       1.669597        45.4320 
 201   0.0000       1.673944        45.5503 
 202   0.0000       1.676106        45.6092 
 203   0.0000       1.689777        45.9812 
 204   0.0000       1.695077        46.1254 
 205   0.0000       1.700132        46.2629 
 206   0.0000       1.709507        46.5181 
 207   0.0000       1.721788        46.8522 
 208   0.0000       1.727399        47.0049 
 209   0.0000       1.733522        47.1715 
 210   0.0000       1.735648        47.2294 
 211   0.0000       1.749208        47.5984 
 212   0.0000       1.781339        48.4727 
 213   0.0000       1.785945        48.5980 
 214   0.0000       1.795296        48.8525 
 215   0.0000       1.801568        49.0231 
 216   0.0000       1.807721        49.1906 
 217   0.0000       1.827561        49.7305 
 218   0.0000       1.841503        50.1099 
 219   0.0000       1.850630        50.3582 
 220   0.0000       1.870600        50.9016 
 221   0.0000       1.876682        51.0671 
 222   0.0000       1.897264        51.6272 
 223   0.0000       1.903906        51.8079 
 224   0.0000       1.926313        52.4176 
 225   0.0000       1.937731        52.7283 
 226   0.0000       1.961973        53.3880 
 227   0.0000       1.976825        53.7922 
 228   0.0000       1.983080        53.9624 
 229   0.0000       1.992882        54.2291 
 230   0.0000       2.003993        54.5314 
 231   0.0000       2.027859        55.1809 
 232   0.0000       2.037874        55.4534 
 233   0.0000       2.041167        55.5430 
 234   0.0000       2.073903        56.4338 
 235   0.0000       2.078407        56.5563 
 236   0.0000       2.101093        57.1736 
 237   0.0000       2.106868        57.3308 
 238   0.0000       2.111130        57.4468 
 239   0.0000       2.138287        58.1857 
 240   0.0000       2.149555        58.4924 
 241   0.0000       2.152211        58.5646 
 242   0.0000       2.166121        58.9431 
 243   0.0000       2.172527        59.1175 
 244   0.0000       2.185648        59.4745 
 245   0.0000       2.194403        59.7127 
 246   0.0000       2.209356        60.1196 
 247   0.0000       2.229726        60.6739 
 248   0.0000       2.235225        60.8236 
 249   0.0000       2.259245        61.4772 
 250   0.0000       2.274967        61.9050 
 251   0.0000       2.283171        62.1282 
 252   0.0000       2.300326        62.5950 
 253   0.0000       2.312004        62.9128 
 254   0.0000       2.336132        63.5694 
 255   0.0000       2.362735        64.2933 
 256   0.0000       2.369412        64.4750 
 257   0.0000       2.376145        64.6582 
 258   0.0000       2.380185        64.7681 
 259   0.0000       2.409983        65.5790 
 260   0.0000       2.416560        65.7579 
 261   0.0000       2.420708        65.8708 
 262   0.0000       2.426741        66.0350 
 263   0.0000       2.436623        66.3039 
 264   0.0000       2.441229        66.4292 
 265   0.0000       2.453487        66.7628 
 266   0.0000       2.461471        66.9800 
 267   0.0000       2.467598        67.1468 
 268   0.0000       2.472751        67.2870 
 269   0.0000       2.494206        67.8708 
 270   0.0000       2.513541        68.3969 
 271   0.0000       2.516881        68.4878 
 272   0.0000       2.536416        69.0194 
 273   0.0000       2.543336        69.2077 
 274   0.0000       2.566441        69.8364 
 275   0.0000       2.579224        70.1842 
 276   0.0000       2.591922        70.5298 
 277   0.0000       2.606778        70.9340 
 278   0.0000       2.638711        71.8030 
 279   0.0000       2.647515        72.0426 
 280   0.0000       2.656067        72.2753 
 281   0.0000       2.658947        72.3536 
 282   0.0000       2.675901        72.8150 
 283   0.0000       2.692400        73.2639 
 284   0.0000       2.703481        73.5655 
 285   0.0000       2.714938        73.8772 
 286   0.0000       2.727728        74.2253 
 287   0.0000       2.747614        74.7664 
 288   0.0000       2.763360        75.1948 
 289   0.0000       2.770883        75.3995 
 290   0.0000       2.782101        75.7048 
 291   0.0000       2.792571        75.9897 
 292   0.0000       2.810951        76.4899 
 293   0.0000       2.820570        76.7516 
 294   0.0000       2.822390        76.8011 
 295   0.0000       2.858389        77.7807 
 296   0.0000       2.865259        77.9677 
 297   0.0000       2.877294        78.2952 
 298   0.0000       2.897919        78.8564 
 299   0.0000       2.906681        79.0948 
 300   0.0000       2.908968        79.1570 
 301   0.0000       2.935043        79.8666 
 302   0.0000       2.956573        80.4524 
 303   0.0000       2.963958        80.6534 
 304   0.0000       2.976440        80.9931 
 305   0.0000       2.990814        81.3842 
 306   0.0000       3.000185        81.6392 
 307   0.0000       3.028502        82.4097 
 308   0.0000       3.034696        82.5783 
 309   0.0000       3.050023        82.9953 
 310   0.0000       3.053205        83.0819 
 311   0.0000       3.068945        83.5102 
 312   0.0000       3.097806        84.2956 
 313   0.0000       3.105899        84.5158 
 314   0.0000       3.119899        84.8968 
 315   0.0000       3.130028        85.1724 
 316   0.0000       3.136892        85.3592 
 317   0.0000       3.155048        85.8532 
 318   0.0000       3.160639        86.0054 
 319   0.0000       3.171059        86.2889 
 320   0.0000       3.182645        86.6042 
 321   0.0000       3.204876        87.2091 
 322   0.0000       3.207503        87.2806 
 323   0.0000       3.219798        87.6151 
 324   0.0000       3.233273        87.9818 
 325   0.0000       3.235183        88.0338 
 326   0.0000       3.242806        88.2412 
 327   0.0000       3.247884        88.3794 
 328   0.0000       3.262773        88.7846 
 329   0.0000       3.273078        89.0650 
 330   0.0000       3.274748        89.1104 
 331   0.0000       3.287001        89.4438 
 332   0.0000       3.305369        89.9437 
 333   0.0000       3.308957        90.0413 
 334   0.0000       3.326433        90.5168 
 335   0.0000       3.333330        90.7045 
 336   0.0000       3.343025        90.9683 
 337   0.0000       3.355490        91.3075 
 338   0.0000       3.376546        91.8805 
 339   0.0000       3.384528        92.0977 
 340   0.0000       3.393635        92.3455 
 341   0.0000       3.401694        92.5648 
 342   0.0000       3.418243        93.0151 
 343   0.0000       3.420321        93.0717 
 344   0.0000       3.428177        93.2854 
 345   0.0000       3.430739        93.3552 
 346   0.0000       3.440928        93.6324 
 347   0.0000       3.466883        94.3387 
 348   0.0000       3.473436        94.5170 
 349   0.0000       3.477474        94.6269 
 350   0.0000       3.484802        94.8263 
 351   0.0000       3.485237        94.8381 
 352   0.0000       3.502003        95.2944 
 353   0.0000       3.513694        95.6125 
 354   0.0000       3.522078        95.8406 
 355   0.0000       3.537817        96.2689 
 356   0.0000       3.545526        96.4787 
 357   0.0000       3.553646        96.6996 
 358   0.0000       3.567144        97.0669 
 359   0.0000       3.592605        97.7597 
 360   0.0000       3.612011        98.2878 
 361   0.0000       3.620875        98.5290 
 362   0.0000       3.625549        98.6562 
 363   0.0000       3.633526        98.8733 
 364   0.0000       3.643787        99.1525 
 365   0.0000       3.661506        99.6346 
 366   0.0000       3.680887       100.1620 
 367   0.0000       3.694749       100.5392 
 368   0.0000       3.697264       100.6077 
 369   0.0000       3.712830       101.0312 
 370   0.0000       3.729548       101.4862 
 371   0.0000       3.764558       102.4388 
 372   0.0000       3.780555       102.8741 
 373   0.0000       3.784077       102.9700 
 374   0.0000       3.802730       103.4776 
 375   0.0000       3.828463       104.1778 
 376   0.0000       3.834709       104.3477 
 377   0.0000       3.862334       105.0995 
 378   0.0000       3.878945       105.5515 
 379   0.0000       3.908986       106.3689 
 380   0.0000       3.929940       106.9391 
 381   0.0000       3.948180       107.4355 
 382   0.0000       3.950274       107.4924 
 383   0.0000       3.989175       108.5510 
 384   0.0000       3.992508       108.6417 
 385   0.0000       4.021279       109.4246 
 386   0.0000       4.038386       109.8901 
 387   0.0000       4.058051       110.4252 
 388   0.0000       4.067543       110.6835 
 389   0.0000       4.077080       110.9430 
 390   0.0000       4.139019       112.6284 
 391   0.0000       4.172770       113.5468 
 392   0.0000       4.189470       114.0013 
 393   0.0000       4.190661       114.0337 
 394   0.0000       4.205502       114.4375 
 395   0.0000       4.223269       114.9210 
 396   0.0000       4.242762       115.4514 
 397   0.0000       4.282814       116.5413 
 398   0.0000       4.309414       117.2651 
 399   0.0000       4.320964       117.5794 
 400   0.0000       4.348497       118.3286 
 401   0.0000       4.378273       119.1389 
 402   0.0000       4.431218       120.5796 
 403   0.0000       4.464853       121.4948 
 404   0.0000       4.468027       121.5812 
 405   0.0000       4.480706       121.9262 
 406   0.0000       4.487898       122.1219 
 407   0.0000       4.504174       122.5648 
 408   0.0000       4.546107       123.7059 
 409   0.0000       4.578901       124.5982 
 410   0.0000       4.588607       124.8623 
 411   0.0000       4.599606       125.1616 
 412   0.0000       4.674116       127.1892 
 413   0.0000       4.697278       127.8194 
 414   0.0000       4.729352       128.6922 
 415   0.0000       4.778561       130.0313 
 416   0.0000       4.788100       130.2908 
 417   0.0000       4.819349       131.1411 
 418   0.0000       4.867822       132.4602 
 419   0.0000       4.870146       132.5234 
 420   0.0000       4.899272       133.3160 
 421   0.0000       4.949060       134.6708 
 422   0.0000       4.967704       135.1781 
 423   0.0000       4.992716       135.8587 
 424   0.0000       5.010629       136.3461 
 425   0.0000       5.056627       137.5978 
 426   0.0000       5.100704       138.7972 
 427   0.0000       5.121156       139.3538 
 428   0.0000       5.156984       140.3287 
 429   0.0000       5.183207       141.0422 
 430   0.0000       5.225680       142.1980 
 431   0.0000       5.237954       142.5320 
 432   0.0000       5.262955       143.2123 
 433   0.0000       5.290023       143.9488 
 434   0.0000       5.302807       144.2967 
 435   0.0000       5.328229       144.9885 
 436   0.0000       5.357439       145.7833 
 437   0.0000       5.364858       145.9852 
 438   0.0000       5.398850       146.9102 
 439   0.0000       5.403270       147.0305 
 440   0.0000       5.409422       147.1979 
 441   0.0000       5.419157       147.4628 
 442   0.0000       5.431361       147.7949 
 443   0.0000       5.486598       149.2979 
 444   0.0000       5.513778       150.0375 
 445   0.0000       5.519022       150.1802 
 446   0.0000       5.553302       151.1130 
 447   0.0000       5.576765       151.7515 
 448   0.0000       5.604151       152.4967 
 449   0.0000       5.666671       154.1980 
 450   0.0000       5.677471       154.4918 
 451   0.0000       5.713520       155.4728 
 452   0.0000       5.726879       155.8363 
 453   0.0000       5.771426       157.0485 
 454   0.0000       5.777230       157.2064 
 455   0.0000       5.785069       157.4197 
 456   0.0000       5.887380       160.2038 
 457   0.0000       5.922124       161.1492 
 458   0.0000       5.947033       161.8270 
 459   0.0000       5.983061       162.8074 
 460   0.0000       6.034039       164.1946 
 461   0.0000       6.182816       168.2430 
 462   0.0000       6.194343       168.5567 
 463   0.0000       6.202168       168.7696 
 464   0.0000       6.240617       169.8158 
 465   0.0000       6.279123       170.8636 
 466   0.0000       6.381728       173.6556 
 467   0.0000       6.388468       173.8391 
 468   0.0000       6.504189       176.9880 
 469   0.0000       6.516048       177.3107 
 470   0.0000       6.550545       178.2494 
 471   0.0000       6.555489       178.3839 
 472   0.0000       6.613258       179.9559 
 473   0.0000       6.642543       180.7528 
 474   0.0000       6.652606       181.0266 
 475   0.0000       6.694382       182.1634 
 476   0.0000       6.750298       183.6849 
 477   0.0000       6.755515       183.8269 
 478   0.0000       6.811713       185.3561 
 479   0.0000       6.885586       187.3663 
 480   0.0000       6.927097       188.4959 
 481   0.0000       6.951382       189.1567 
 482   0.0000       6.966327       189.5634 
 483   0.0000       7.031650       191.3409 
 484   0.0000       7.134487       194.1393 
 485   0.0000       7.145353       194.4349 
 486   0.0000       7.157746       194.7722 
 487   0.0000       7.175886       195.2658 
 488   0.0000       7.214635       196.3202 
 489   0.0000       7.279967       198.0980 
 490   0.0000       7.312089       198.9721 
 491   0.0000       7.389468       201.0777 
 492   0.0000      22.484009       611.8210 
 493   0.0000      22.590292       614.7131 
 494   0.0000      22.597781       614.9169 
 495   0.0000      22.771768       619.6513 
 496   0.0000      22.886506       622.7735 
 497   0.0000      23.447263       638.0325 
 498   0.0000      23.503458       639.5616 
 499   0.0000      23.595995       642.0797 
 500   0.0000      32.710508       890.0982 
 501   0.0000      32.781494       892.0298 
 502   0.0000      44.143709      1201.2114 
 503   0.0000      44.176064      1202.0918 
 504   0.0000      44.215658      1203.1692 
 505   0.0000      44.235394      1203.7063 

                 SPIN DOWN ORBITALS
  NO   OCC          E(Eh)            E(eV) 
   0   1.0000     -19.491731      -530.3970 
   1   1.0000     -19.478946      -530.0491 
   2   1.0000     -19.414432      -528.2935 
   3   1.0000     -19.407549      -528.1063 
   4   1.0000     -14.665601      -399.0713 
   5   1.0000     -14.634223      -398.2175 
   6   1.0000     -10.546936      -286.9967 
   7   1.0000     -10.525752      -286.4203 
   8   1.0000     -10.477377      -285.1039 
   9   1.0000     -10.475603      -285.0556 
  10   1.0000     -10.455271      -284.5024 
  11   1.0000     -10.449598      -284.3480 
  12   1.0000     -10.420980      -283.5693 
  13   1.0000     -10.410799      -283.2922 
  14   1.0000      -1.052487       -28.6396 
  15   1.0000      -1.034907       -28.1613 
  16   1.0000      -0.983800       -26.7705 
  17   1.0000      -0.925009       -25.1708 
  18   1.0000      -0.902570       -24.5602 
  19   1.0000      -0.887228       -24.1427 
  20   1.0000      -0.772620       -21.0241 
  21   1.0000      -0.730467       -19.8770 
  22   1.0000      -0.685198       -18.6452 
  23   1.0000      -0.646586       -17.5945 
  24   1.0000      -0.581079       -15.8120 
  25   1.0000      -0.547765       -14.9055 
  26   1.0000      -0.522097       -14.2070 
  27   1.0000      -0.499370       -13.5885 
  28   1.0000      -0.460627       -12.5343 
  29   1.0000      -0.447028       -12.1643 
  30   1.0000      -0.430978       -11.7275 
  31   1.0000      -0.421885       -11.4801 
  32   1.0000      -0.416431       -11.3317 
  33   1.0000      -0.402449       -10.9512 
  34   1.0000      -0.389814       -10.6074 
  35   1.0000      -0.382047       -10.3960 
  36   1.0000      -0.373020       -10.1504 
  37   1.0000      -0.363436        -9.8896 
  38   1.0000      -0.352613        -9.5951 
  39   1.0000      -0.338933        -9.2228 
  40   1.0000      -0.336179        -9.1479 
  41   1.0000      -0.324812        -8.8386 
  42   1.0000      -0.319934        -8.7058 
  43   1.0000      -0.305449        -8.3117 
  44   1.0000      -0.298837        -8.1318 
  45   1.0000      -0.287210        -7.8154 
  46   1.0000      -0.232573        -6.3286 
  47   1.0000      -0.224510        -6.1092 
  48   1.0000      -0.216861        -5.9011 
  49   1.0000      -0.198466        -5.4005 
  50   1.0000      -0.168098        -4.5742 
  51   1.0000      -0.156458        -4.2574 
  52   1.0000      -0.151357        -4.1186 
  53   0.0000       0.097265         2.6467 
  54   0.0000       0.150953         4.1076 
  55   0.0000       0.158726         4.3192 
  56   0.0000       0.171758         4.6738 
  57   0.0000       0.191097         5.2000 
  58   0.0000       0.204900         5.5756 
  59   0.0000       0.209317         5.6958 
  60   0.0000       0.223567         6.0836 
  61   0.0000       0.236450         6.4341 
  62   0.0000       0.242897         6.6096 
  63   0.0000       0.247420         6.7326 
  64   0.0000       0.251169         6.8347 
  65   0.0000       0.257107         6.9962 
  66   0.0000       0.268259         7.2997 
  67   0.0000       0.272360         7.4113 
  68   0.0000       0.279154         7.5962 
  69   0.0000       0.288690         7.8557 
  70   0.0000       0.293546         7.9878 
  71   0.0000       0.309126         8.4117 
  72   0.0000       0.326920         8.8960 
  73   0.0000       0.328583         8.9412 
  74   0.0000       0.332545         9.0490 
  75   0.0000       0.336027         9.1438 
  76   0.0000       0.354139         9.6366 
  77   0.0000       0.358595         9.7579 
  78   0.0000       0.360763         9.8169 
  79   0.0000       0.375149        10.2083 
  80   0.0000       0.381194        10.3728 
  81   0.0000       0.390540        10.6271 
  82   0.0000       0.399847        10.8804 
  83   0.0000       0.408133        11.1059 
  84   0.0000       0.409470        11.1422 
  85   0.0000       0.425376        11.5751 
  86   0.0000       0.430267        11.7082 
  87   0.0000       0.444003        12.0819 
  88   0.0000       0.461291        12.5524 
  89   0.0000       0.468513        12.7489 
  90   0.0000       0.476191        12.9578 
  91   0.0000       0.480299        13.0696 
  92   0.0000       0.485808        13.2195 
  93   0.0000       0.499933        13.6039 
  94   0.0000       0.500574        13.6213 
  95   0.0000       0.511475        13.9179 
  96   0.0000       0.517044        14.0695 
  97   0.0000       0.524071        14.2607 
  98   0.0000       0.530564        14.4374 
  99   0.0000       0.534012        14.5312 
 100   0.0000       0.542233        14.7549 
 101   0.0000       0.546179        14.8623 
 102   0.0000       0.552329        15.0296 
 103   0.0000       0.562621        15.3097 
 104   0.0000       0.569635        15.5006 
 105   0.0000       0.576817        15.6960 
 106   0.0000       0.582436        15.8489 
 107   0.0000       0.593917        16.1613 
 108   0.0000       0.601693        16.3729 
 109   0.0000       0.605160        16.4673 
 110   0.0000       0.612120        16.6566 
 111   0.0000       0.615069        16.7369 
 112   0.0000       0.620089        16.8735 
 113   0.0000       0.629236        17.1224 
 114   0.0000       0.634313        17.2605 
 115   0.0000       0.644136        17.5278 
 116   0.0000       0.659823        17.9547 
 117   0.0000       0.661105        17.9896 
 118   0.0000       0.665304        18.1039 
 119   0.0000       0.672860        18.3094 
 120   0.0000       0.677988        18.4490 
 121   0.0000       0.684459        18.6251 
 122   0.0000       0.688075        18.7235 
 123   0.0000       0.695442        18.9239 
 124   0.0000       0.712275        19.3820 
 125   0.0000       0.715762        19.4769 
 126   0.0000       0.722601        19.6630 
 127   0.0000       0.727258        19.7897 
 128   0.0000       0.731876        19.9154 
 129   0.0000       0.742577        20.2065 
 130   0.0000       0.767280        20.8788 
 131   0.0000       0.772197        21.0126 
 132   0.0000       0.779561        21.2129 
 133   0.0000       0.787047        21.4166 
 134   0.0000       0.798270        21.7220 
 135   0.0000       0.811209        22.0741 
 136   0.0000       0.826905        22.5012 
 137   0.0000       0.839796        22.8520 
 138   0.0000       0.843545        22.9540 
 139   0.0000       0.866611        23.5817 
 140   0.0000       0.876249        23.8439 
 141   0.0000       0.877133        23.8680 
 142   0.0000       0.895072        24.3561 
 143   0.0000       0.898750        24.4562 
 144   0.0000       0.906908        24.6782 
 145   0.0000       0.923256        25.1231 
 146   0.0000       0.945369        25.7248 
 147   0.0000       0.961475        26.1631 
 148   0.0000       0.980658        26.6851 
 149   0.0000       0.989041        26.9132 
 150   0.0000       0.998760        27.1776 
 151   0.0000       0.999675        27.2025 
 152   0.0000       1.018771        27.7222 
 153   0.0000       1.035494        28.1772 
 154   0.0000       1.047201        28.4958 
 155   0.0000       1.051296        28.6072 
 156   0.0000       1.064207        28.9585 
 157   0.0000       1.070606        29.1327 
 158   0.0000       1.083473        29.4828 
 159   0.0000       1.089793        29.6548 
 160   0.0000       1.099567        29.9207 
 161   0.0000       1.114925        30.3386 
 162   0.0000       1.118019        30.4228 
 163   0.0000       1.134117        30.8609 
 164   0.0000       1.156786        31.4777 
 165   0.0000       1.167607        31.7722 
 166   0.0000       1.172113        31.8948 
 167   0.0000       1.186822        32.2951 
 168   0.0000       1.208821        32.8937 
 169   0.0000       1.223987        33.3064 
 170   0.0000       1.242409        33.8077 
[...]
     14      -0.020815  -0.000050   0.000009  -0.000128  -0.002876   0.000079
     15       0.004714   0.000076   0.000136  -0.000211  -0.071973   0.000050
     16      -0.003202  -0.000014  -0.000080   0.000112   0.045507  -0.000054
     17      -0.000054  -0.000000  -0.000004  -0.000003  -0.001104  -0.000017
     18      -0.000837   0.000006  -0.000089   0.000002   0.001022   0.000121
     19       0.000400  -0.000005   0.000085   0.000013   0.003652   0.000010
     20      -0.000454  -0.000011  -0.000036   0.000003   0.000707   0.000056
     21       0.000083   0.000027   0.000068  -0.000021   0.000296  -0.000045
     22      -0.000506  -0.000017   0.000042   0.000001  -0.000634   0.000061
     23      -0.000135   0.000013   0.000041   0.000005   0.000003  -0.000060
     24       0.000127   0.000042   0.000013  -0.000021   0.000065  -0.000021
     25       0.000042   0.000003  -0.000024  -0.000004  -0.001036  -0.000014
     26       0.000053   0.000000   0.000018  -0.000003  -0.000081  -0.000015
     27      -0.000394   0.001545   0.000451   0.003877  -0.000170  -0.356716
     28      -0.000077   0.000402  -0.000132  -0.000598   0.001132   0.050206
     29       0.001227  -0.001134  -0.000239  -0.003606   0.000927   0.929926
     30       0.000112  -0.000795   0.000006  -0.001272   0.000077   0.001112
     31       0.000117   0.000880   0.000003  -0.001093   0.000095   0.000271
     32       0.000121  -0.000921   0.000012  -0.002232   0.000229  -0.000143
     33      -0.000250  -0.000045   0.000384  -0.000050   0.000236   0.000480
     34      -0.000421  -0.000031   0.000047  -0.000020   0.000300   0.000352
     35       0.000226   0.000035   0.000821   0.000008  -0.000339  -0.000215
     36       0.004432   0.000174  -0.002630   0.000138  -0.001324  -0.001492
     37       0.005840   0.000334  -0.002754   0.000188  -0.004757  -0.002715
     38      -0.004310  -0.000344  -0.003422  -0.000172   0.005475   0.003207
     39      -0.000169   0.000034   0.000004   0.000076   0.000049  -0.000113
     40      -0.000155  -0.000096  -0.000001   0.000303  -0.000041   0.000602
     41      -0.000054   0.000161  -0.000021   0.000641  -0.000097   0.001609
     42       0.000053  -0.001197  -0.000179  -0.016675   0.000063  -0.000014
     43      -0.000076   0.075535  -0.000648  -0.052012   0.000176  -0.000276
     44       0.000154  -0.052426  -0.000760  -0.076023   0.000178  -0.000292
     45      -0.000121  -0.230718   0.003479   0.299554  -0.001007   0.000521
     46      -0.000305  -0.421134   0.006611   0.570182  -0.001908   0.001115
     47      -0.000006  -0.142401   0.001888   0.160872  -0.000562   0.000326
     48       0.000085  -0.057940  -0.001250  -0.123702   0.000363   0.000899
     49      -0.000115   0.082729   0.001404   0.140626  -0.000288   0.001029
     50      -0.000477   0.330846   0.007237   0.710839  -0.001769   0.005902
     51      -0.000986   0.309531  -0.000046   0.033816   0.000176   0.000831
     52       0.001841  -0.574317  -0.000155  -0.084390   0.000008  -0.000085
     53      -0.001311   0.441995  -0.000150   0.041377   0.000118   0.000527
     54      -0.000292  -0.000126  -0.078182   0.000840  -0.000140  -0.000068
     55       0.000412  -0.000050  -0.045717   0.000456  -0.000023   0.000041
     56       0.000440   0.000029   0.018990  -0.000194   0.000125  -0.000037
     57      -0.000218  -0.000058  -0.026409   0.000256  -0.000038  -0.000096
     58      -0.000319   0.000283   0.304772  -0.002848   0.000589  -0.000360
     59      -0.000132  -0.000076  -0.086947   0.000803  -0.000216   0.000199
     60      -0.000232   0.001063   0.844603  -0.009200   0.001066   0.000436
     61       0.000073   0.000459   0.362757  -0.003944   0.000378   0.000138
     62       0.000010  -0.000001  -0.017103   0.000199   0.000040  -0.000067
     63       0.004868   0.000153   0.110634  -0.001290   0.000804  -0.000023
     64      -0.004277  -0.000159  -0.121270   0.001375  -0.000745  -0.000146
     65      -0.006014  -0.000203  -0.134010   0.001524  -0.001061   0.000114
     66       0.005950  -0.000063  -0.000074  -0.000938   0.000539  -0.003986
     67      -0.031938   0.000810   0.000083   0.001962   0.001034   0.006137
     68      -0.014087   0.000383  -0.000134   0.000895  -0.000707   0.001390
     69       0.826429   0.001620  -0.001579   0.000361   0.054778  -0.001279
     70      -0.232139  -0.000536   0.000395  -0.000228  -0.018102  -0.000001
     71      -0.151555  -0.000238   0.000273   0.000049  -0.010888   0.000314
     72       0.227306   0.000356  -0.000255   0.000702   0.019934  -0.000180
     73       0.011910   0.000029   0.000061  -0.000100   0.004933   0.000564
     74       0.416340   0.000765  -0.000513   0.001454   0.036645  -0.001346
     75      -0.063157  -0.000621  -0.001150   0.002395   0.838052  -0.000828
     76       0.035697   0.000345   0.000831  -0.001464  -0.533783   0.000705
     77       0.001051  -0.000065   0.000029  -0.000027   0.012093   0.000107


-----------
IR SPECTRUM
-----------

 Mode   freq       eps      Int      T**2         TX        TY        TZ
       cm**-1   L/(mol*cm) km/mol    a.u.
----------------------------------------------------------------------------
  7:     43.19   0.000389    1.97  0.002812  (-0.049067 -0.007843 -0.018509)
  8:     65.31   0.000574    2.90  0.002743  (-0.030487 -0.008675  0.041692)
  9:     78.36   0.001028    5.20  0.004095  (-0.007106 -0.053193  0.034860)
 10:     90.92   0.000681    3.44  0.002337  (-0.006582 -0.047877 -0.001173)
 11:    103.91   0.001437    7.26  0.004315  (-0.050691  0.036963  0.019480)
 12:    135.17   0.000456    2.30  0.001052  (-0.020540 -0.024928 -0.002953)
 13:    152.58   0.000413    2.09  0.000845  (-0.000638  0.016466 -0.023951)
 14:    172.55   0.005668   28.64  0.010251  (-0.019218  0.062120 -0.077604)
 15:    196.93   0.005479   27.69  0.008682  ( 0.015949  0.087281 -0.028451)
 16:    208.37   0.003725   18.82  0.005578  (-0.051983 -0.049232  0.021269)
 17:    252.41   0.006222   31.44  0.007692  ( 0.046677  0.072946 -0.013867)
 18:    273.28   0.001913    9.67  0.002185  (-0.026824  0.015738 -0.034896)
 19:    306.71   0.001782    9.01  0.001813  ( 0.006277 -0.040840  0.010303)
 20:    353.56   0.003023   15.28  0.002669  (-0.008862  0.034262 -0.037632)
 21:    388.21   0.002992   15.12  0.002405  (-0.044279  0.006426 -0.020088)
 22:    450.55   0.001832    9.26  0.001269  (-0.011158 -0.033799  0.001397)
 23:    492.75   0.001732    8.75  0.001097  ( 0.027102  0.006936 -0.017732)
 24:    518.94   0.002023   10.22  0.001216  (-0.030584 -0.016767 -0.000117)
 25:    556.22   0.009686   48.95  0.005435  ( 0.017991 -0.070866 -0.009426)
 26:    578.58   0.008061   40.74  0.004348  ( 0.022456  0.055370  0.027889)
 27:    623.81   0.001151    5.82  0.000576  ( 0.005535 -0.023321 -0.001227)
 28:    655.82   0.000174    0.88  0.000083  ( 0.004938  0.001776 -0.007442)
 29:    663.88   0.002315   11.70  0.001088  ( 0.020395  0.022251 -0.013313)
 30:    692.47   0.001082    5.47  0.000488  ( 0.020625  0.007551  0.002327)
 31:    770.20   0.002731   13.80  0.001107  (-0.000607  0.008796 -0.032078)
 32:    808.23   0.005299   26.78  0.002046  (-0.007908 -0.032074  0.030896)
 33:    852.86   0.015345   77.55  0.005615  (-0.033171 -0.065871 -0.013247)
 34:    900.99   0.005742   29.02  0.001989  ( 0.044098 -0.006555  0.001060)
 35:    934.82   0.000852    4.31  0.000284  (-0.009006 -0.013670 -0.004057)
 36:    997.37   0.002696   13.63  0.000844  ( 0.018931 -0.015872  0.015274)
 37:   1018.04   0.001550    7.83  0.000475  ( 0.004243 -0.020483 -0.006119)
 38:   1033.51   0.025495  128.84  0.007698  (-0.022730  0.083814 -0.012523)
 39:   1035.52   0.008268   41.78  0.002492  ( 0.038116 -0.029939  0.011939)
 40:   1061.04   0.001597    8.07  0.000470  ( 0.000877  0.021515 -0.002441)
 41:   1101.14   0.000350    1.77  0.000099  ( 0.005898  0.007886 -0.001507)
 42:   1144.37   0.000804    4.06  0.000219  ( 0.004421  0.012380 -0.006815)
 43:   1150.73   0.000690    3.49  0.000187  (-0.010604 -0.007337  0.004566)
 44:   1162.95   0.000866    4.38  0.000232  (-0.013968  0.002995 -0.005316)
 45:   1190.81   0.002536   12.82  0.000665  (-0.020714 -0.011900  0.009691)
 46:   1233.50   0.003705   18.72  0.000937  ( 0.025613  0.016715 -0.001348)
 47:   1255.88   0.000947    4.79  0.000235  (-0.011831  0.000784 -0.009739)
 48:   1300.09   0.003301   16.68  0.000792  ( 0.026165  0.009875  0.003193)
 49:   1324.44   0.020887  105.55  0.004921  ( 0.061202  0.020068  0.027802)
 50:   1344.22   0.003402   17.19  0.000790  ( 0.009500  0.003038  0.026275)
 51:   1377.29   0.016612   83.95  0.003764  (-0.049804  0.019619 -0.029976)
 52:   1396.96   0.004524   22.86  0.001011  ( 0.030256 -0.006156 -0.007561)
 53:   1402.19   0.014121   71.36  0.003143  ( 0.041123 -0.013086  0.035783)
 54:   1418.54   0.012235   61.83  0.002692  ( 0.039505  0.007072  0.032878)
 55:   1454.70   0.003497   17.67  0.000750  ( 0.002065 -0.008738  0.025875)
 56:   1475.60   0.001667    8.43  0.000353  (-0.004675 -0.017071 -0.006274)
 57:   1486.40   0.012365   62.49  0.002596  (-0.016361 -0.006315 -0.047837)
 58:   1487.44   0.002044   10.33  0.000429  (-0.016196  0.012375  0.003651)
 59:   1490.09   0.001162    5.87  0.000243  ( 0.002880 -0.004913  0.014526)
 60:   1505.62   0.000905    4.57  0.000188  ( 0.002425  0.013434 -0.001085)
 61:   1554.47   0.096281  486.56  0.019329  (-0.124369 -0.034994 -0.051346)
 62:   1656.93   0.095164  480.92  0.017923  ( 0.054708  0.122056  0.005698)
 63:   1691.25   0.083372  421.33  0.015383  ( 0.046688 -0.107467  0.040678)
 64:   1732.67   0.058634  296.31  0.010560  (-0.088235 -0.022170  0.047785)
 65:   1774.20   0.059401  300.19  0.010448  (-0.009434 -0.037696 -0.094541)
 66:   2582.63   0.318723  1610.70  0.038512  (-0.070410 -0.155454  0.096893)
 67:   3046.99   0.003894   19.68  0.000399  ( 0.009681 -0.015558  0.007937)
 68:   3059.26   0.009232   46.66  0.000942  ( 0.014896  0.001332  0.026797)
 69:   3068.30   0.002326   11.75  0.000237  ( 0.001499 -0.008823 -0.012509)
 70:   3084.02   0.001515    7.65  0.000153  (-0.011965  0.000444  0.003148)
 71:   3117.42   0.005323   26.90  0.000533  ( 0.011518 -0.019925 -0.001777)
 72:   3125.16   0.000939    4.74  0.000094  (-0.005071  0.008150 -0.001258)
 73:   3165.15   0.001136    5.74  0.000112  ( 0.002209  0.007124 -0.007508)
 74:   3174.76   0.001838    9.29  0.000181  (-0.011484 -0.006537  0.002452)
 75:   3176.04   0.002294   11.59  0.000225  (-0.000805 -0.007256 -0.013118)
 76:   3205.50   0.002874   14.52  0.000280  (-0.013778  0.009328 -0.001715)
 77:   3616.05   0.019096   96.50  0.001648  ( 0.008714  0.001417  0.039624)

* The epsilon (eps) is given for a Dirac delta lineshape.
** The dipole moment derivative (T) already includes vibrational overlap.

The first frequency considered to be a vibration is 7
The total number of vibrations considered is 71


--------------------------
THERMOCHEMISTRY AT 298.15K
--------------------------

Temperature         ... 298.15 K
Pressure            ... 1.00 atm
Total Mass          ... 200.19 AMU

Throughout the following assumptions are being made:
  (1) The electronic state is orbitally nondegenerate
      but the spin degeneracy is treated
  (2) There are no thermally accessible electronically excited states
  (3) Hindered rotations indicated by low frequency modes are not
      treated as such but are treated as vibrations and this may
      cause some error
  (4) All equations used are the standard statistical mechanics
      equations for an ideal gas
  (5) All vibrations are strictly harmonic

freq.      43.19  E(vib)   ...       0.53 
freq.      65.31  E(vib)   ...       0.50 
freq.      78.36  E(vib)   ...       0.49 
freq.      90.92  E(vib)   ...       0.47 
freq.     103.91  E(vib)   ...       0.46 
freq.     135.17  E(vib)   ...       0.42 
freq.     152.58  E(vib)   ...       0.40 
freq.     172.55  E(vib)   ...       0.38 
freq.     196.93  E(vib)   ...       0.35 
freq.     208.37  E(vib)   ...       0.34 
freq.     252.41  E(vib)   ...       0.30 
freq.     273.28  E(vib)   ...       0.29 
freq.     306.71  E(vib)   ...       0.26 
freq.     353.56  E(vib)   ...       0.22 
freq.     388.21  E(vib)   ...       0.20 
freq.     450.55  E(vib)   ...       0.17 
freq.     492.75  E(vib)   ...       0.14 
freq.     518.94  E(vib)   ...       0.13 
freq.     556.22  E(vib)   ...       0.12 
freq.     578.58  E(vib)   ...       0.11 
freq.     623.81  E(vib)   ...       0.09 
freq.     655.82  E(vib)   ...       0.08 
freq.     663.88  E(vib)   ...       0.08 
freq.     692.47  E(vib)   ...       0.07 
freq.     770.20  E(vib)   ...       0.05 
freq.     808.23  E(vib)   ...       0.05 
freq.     852.86  E(vib)   ...       0.04 
freq.     900.99  E(vib)   ...       0.03 
freq.     934.82  E(vib)   ...       0.03 
freq.     997.37  E(vib)   ...       0.02 
freq.    1018.04  E(vib)   ...       0.02 
freq.    1033.51  E(vib)   ...       0.02 
freq.    1035.52  E(vib)   ...       0.02 
freq.    1061.04  E(vib)   ...       0.02 
freq.    1101.14  E(vib)   ...       0.02 
freq.    1144.37  E(vib)   ...       0.01 
freq.    1150.73  E(vib)   ...       0.01 
freq.    1162.95  E(vib)   ...       0.01 
freq.    1190.81  E(vib)   ...       0.01 
freq.    1233.50  E(vib)   ...       0.01 
freq.    1255.88  E(vib)   ...       0.01 
freq.    1300.09  E(vib)   ...       0.01 
freq.    1324.44  E(vib)   ...       0.01 
freq.    1344.22  E(vib)   ...       0.01 
freq.    1377.29  E(vib)   ...       0.01 
freq.    1396.96  E(vib)   ...       0.00 
freq.    1402.19  E(vib)   ...       0.00 
freq.    1418.54  E(vib)   ...       0.00 
freq.    1454.70  E(vib)   ...       0.00 
freq.    1475.60  E(vib)   ...       0.00 
freq.    1486.40  E(vib)   ...       0.00 
freq.    1487.44  E(vib)   ...       0.00 
freq.    1490.09  E(vib)   ...       0.00 
freq.    1505.62  E(vib)   ...       0.00 
freq.    1554.47  E(vib)   ...       0.00 
freq.    1656.93  E(vib)   ...       0.00 
freq.    1691.25  E(vib)   ...       0.00 
freq.    1732.67  E(vib)   ...       0.00 
freq.    1774.20  E(vib)   ...       0.00 
freq.    2582.63  E(vib)   ...       0.00 
freq.    3046.99  E(vib)   ...       0.00 
freq.    3059.26  E(vib)   ...       0.00 
freq.    3068.30  E(vib)   ...       0.00 
freq.    3084.02  E(vib)   ...       0.00 
freq.    3117.42  E(vib)   ...       0.00 
freq.    3125.16  E(vib)   ...       0.00 
freq.    3165.15  E(vib)   ...       0.00 
freq.    3174.76  E(vib)   ...       0.00 
freq.    3176.04  E(vib)   ...       0.00 
freq.    3205.50  E(vib)   ...       0.00 
freq.    3616.05  E(vib)   ...       0.00 

------------
INNER ENERGY
------------

The inner energy is: U= E(el) + E(ZPE) + E(vib) + E(rot) + E(trans)
    E(el)   - is the total energy from the electronic structure calculation
              = E(kin-el) + E(nuc-el) + E(el-el) + E(nuc-nuc)
    E(ZPE)  - the the zero temperature vibrational energy from the frequency calculation
    E(vib)  - the the finite temperature correction to E(ZPE) due to population
              of excited vibrational states
    E(rot)  - is the rotational thermal energy
    E(trans)- is the translational thermal energy

Summary of contributions to the inner energy U:
Electronic energy                ...   -722.54824298 Eh
Zero point energy                ...      0.20503689 Eh     128.66 kcal/mol
Thermal vibrational correction   ...      0.01127734 Eh       7.08 kcal/mol
Thermal rotational correction    ...      0.00141627 Eh       0.89 kcal/mol
Thermal translational correction ...      0.00141627 Eh       0.89 kcal/mol
-----------------------------------------------------------------------
Total thermal energy                   -722.32909621 Eh


Summary of corrections to the electronic energy:
(perhaps to be used in another calculation)
Total thermal correction                  0.01410989 Eh       8.85 kcal/mol
Non-thermal (ZPE) correction              0.20503689 Eh     128.66 kcal/mol
-----------------------------------------------------------------------
Total correction                          0.21914678 Eh     137.52 kcal/mol


--------
ENTHALPY
--------

The enthalpy is H = U + kB*T
                kB is Boltzmann's constant
Total free energy                 ...   -722.32909621 Eh 
Thermal Enthalpy correction       ...      0.00094421 Eh       0.59 kcal/mol
-----------------------------------------------------------------------
Total Enthalpy                    ...   -722.32815200 Eh


Note: Only C1 symmetry has been detected, increase convergence thresholds 
      if your molecule has a higher symmetry. Symmetry factor of 1.0 is   
      used for the rotational entropy correction. 
 

Note: Rotational entropy computed according to Herzberg 
Infrared and Raman Spectra, Chapter V,1, Van Nostrand Reinhold, 1945 
Point Group:  C1, Symmetry Number:   1  
Rotational constants in cm-1:     0.031463     0.014859     0.011447 

Vibrational entropy computed according to the QRRHO of S. Grimme
Chem.Eur.J. 2012 18 9955


-------
ENTROPY
-------

The entropy contributions are T*S = T*(S(el)+S(vib)+S(rot)+S(trans))
     S(el)   - electronic entropy
     S(vib)  - vibrational entropy
     S(rot)  - rotational entropy
     S(trans)- translational entropy
The entropies will be listed as multiplied by the temperature to get
units of energy

Electronic entropy                ...      0.00065446 Eh      0.41 kcal/mol
Vibrational entropy               ...      0.02001645 Eh     12.56 kcal/mol
Rotational entropy                ...      0.01524110 Eh      9.56 kcal/mol
Translational entropy             ...      0.01985430 Eh     12.46 kcal/mol
-----------------------------------------------------------------------
Final entropy term                ...      0.05576631 Eh     34.99 kcal/mol

In case the symmetry of your molecule has not been determined correctly
or in case you have a reason to use a different symmetry number we print 
out the resulting rotational entropy values for sn=1,12 :
 --------------------------------------------------------
|  sn= 1 | S(rot)=       0.01524110 Eh      9.56 kcal/mol|
|  sn= 2 | S(rot)=       0.01458665 Eh      9.15 kcal/mol|
|  sn= 3 | S(rot)=       0.01420381 Eh      8.91 kcal/mol|
|  sn= 4 | S(rot)=       0.01393219 Eh      8.74 kcal/mol|
|  sn= 5 | S(rot)=       0.01372150 Eh      8.61 kcal/mol|
|  sn= 6 | S(rot)=       0.01354936 Eh      8.50 kcal/mol|
|  sn= 7 | S(rot)=       0.01340381 Eh      8.41 kcal/mol|
|  sn= 8 | S(rot)=       0.01327773 Eh      8.33 kcal/mol|
|  sn= 9 | S(rot)=       0.01316653 Eh      8.26 kcal/mol|
|  sn=10 | S(rot)=       0.01306705 Eh      8.20 kcal/mol|
|  sn=11 | S(rot)=       0.01297706 Eh      8.14 kcal/mol|
|  sn=12 | S(rot)=       0.01289490 Eh      8.09 kcal/mol|
 --------------------------------------------------------


-------------------
GIBBS FREE ENERGY
-------------------

The Gibbs free energy is G = H - T*S

Total enthalpy                    ...   -722.32815200 Eh 
Total entropy correction          ...     -0.05576631 Eh    -34.99 kcal/mol
-----------------------------------------------------------------------
Final Gibbs free energy         ...   -722.38391831 Eh

For completeness - the Gibbs free energy minus the electronic energy
G-E(el)                           ...      0.16432468 Eh    103.12 kcal/mol


Timings for individual modules:

Sum of individual times         ...     1423.405 sec (=  23.723 min)
GTO integral calculation        ...       36.418 sec (=   0.607 min)   2.6 %
SCF iterations                  ...      602.046 sec (=  10.034 min)  42.3 %
SCF Gradient evaluation         ...      135.267 sec (=   2.254 min)   9.5 %
Geometry relaxation             ...        0.417 sec (=   0.007 min)   0.0 %
Analytical frequency calculation...      649.257 sec (=  10.821 min)  45.6 %
                             ****ORCA TERMINATED NORMALLY****
TOTAL RUN TIME: 0 days 0 hours 24 minutes 14 seconds 188 msec
