
                                 *****************
                                 * O   R   C   A *
                                 *****************

                                            #,                                       
                                            ###                                      
                                            ####                                     
                                            #####                                    
                                            ######                                   
                                           ########,                                 
                                     ,,################,,,,,                         
                               ,,#################################,,                 
                          ,,##########################################,,             
                       ,#########################################, ''#####,          
                    ,#############################################,,   '####,        
                  ,##################################################,,,,####,       
                ,###########''''           ''''###############################       
              ,#####''   ,,,,##########,,,,          '''####'''          '####       
            ,##' ,,,,###########################,,,                        '##       
           ' ,,###''''                  '''############,,,                           
         ,,##''                                '''############,,,,        ,,,,,,###''
      ,#''                                            '''#######################'''  
     '                                                          ''''####''''         
             ,#######,   #######,   ,#######,      ##                                
            ,#'     '#,  ##    ##  ,#'     '#,    #''#        ######   ,####,        
            ##       ##  ##   ,#'  ##            #'  '#       #        #'  '#        
            ##       ##  #######   ##           ,######,      #####,   #    #        
            '#,     ,#'  ##    ##  '#,     ,#' ,#      #,         ##   #,  ,#        
             '#######'   ##     ##  '#######'  #'      '#     #####' # '####'        



                  #######################################################
                  #                        -***-                        #
                  #          Department of theory and spectroscopy      #
                  #    Directorship and core code : Frank Neese         #
                  #        Max Planck Institute fuer Kohlenforschung    #
                  #                Kaiser Wilhelm Platz 1               #
                  #                 D-45470 Muelheim/Ruhr               #
                  #                      Germany                        #
                  #                                                     #
                  #                  All rights reserved                #
                  #                        -***-                        #
                  #######################################################


                         Program Version 5.0.4 -  RELEASE  -


 With contributions from (in alphabetic order):
   Daniel Aravena         : Magnetic Suceptibility
   Michael Atanasov       : Ab Initio Ligand Field Theory (pilot matlab implementation)
   Alexander A. Auer      : GIAO ZORA, VPT2 properties, NMR spectrum
   Ute Becker             : Parallelization
   Giovanni Bistoni       : ED, misc. LED, open-shell LED, HFLD
   Martin Brehm           : Molecular dynamics
   Dmytro Bykov           : SCF Hessian
   Vijay G. Chilkuri      : MRCI spin determinant printing, contributions to CSF-ICE
   Dipayan Datta          : RHF DLPNO-CCSD density
   Achintya Kumar Dutta   : EOM-CC, STEOM-CC
   Dmitry Ganyushin       : Spin-Orbit,Spin-Spin,Magnetic field MRCI
   Miquel Garcia          : C-PCM and meta-GGA Hessian, CC/C-PCM, Gaussian charge scheme
   Yang Guo               : DLPNO-NEVPT2, F12-NEVPT2, CIM, IAO-localization
   Andreas Hansen         : Spin unrestricted coupled pair/coupled cluster methods
   Benjamin Helmich-Paris : MC-RPA, TRAH-SCF, COSX integrals
   Lee Huntington         : MR-EOM, pCC
   Robert Izsak           : Overlap fitted RIJCOSX, COSX-SCS-MP3, EOM
   Marcus Kettner         : VPT2
   Christian Kollmar      : KDIIS, OOCD, Brueckner-CCSD(T), CCSD density, CASPT2, CASPT2-K
   Simone Kossmann        : Meta GGA functionals, TD-DFT gradient, OOMP2, MP2 Hessian
   Martin Krupicka        : Initial AUTO-CI
   Lucas Lang             : DCDCAS
   Marvin Lechner         : AUTO-CI (C++ implementation), FIC-MRCC
   Dagmar Lenk            : GEPOL surface, SMD
   Dimitrios Liakos       : Extrapolation schemes; Compound Job, initial MDCI parallelization
   Dimitrios Manganas     : Further ROCIS development; embedding schemes
   Dimitrios Pantazis     : SARC Basis sets
   Anastasios Papadopoulos: AUTO-CI, single reference methods and gradients
   Taras Petrenko         : DFT Hessian,TD-DFT gradient, ASA, ECA, R-Raman, ABS, FL, XAS/XES, NRVS
   Peter Pinski           : DLPNO-MP2, DLPNO-MP2 Gradient
   Christoph Reimann      : Effective Core Potentials
   Marius Retegan         : Local ZFS, SOC
   Christoph Riplinger    : Optimizer, TS searches, QM/MM, DLPNO-CCSD(T), (RO)-DLPNO pert. Triples
   Tobias Risthaus        : Range-separated hybrids, TD-DFT gradient, RPA, STAB
   Michael Roemelt        : Original ROCIS implementation
   Masaaki Saitow         : Open-shell DLPNO-CCSD energy and density
   Barbara Sandhoefer     : DKH picture change effects
   Avijit Sen             : IP-ROCIS
   Kantharuban Sivalingam : CASSCF convergence, NEVPT2, FIC-MRCI
   Bernardo de Souza      : ESD, SOC TD-DFT
   Georgi Stoychev        : AutoAux, RI-MP2 NMR, DLPNO-MP2 response
   Willem Van den Heuvel  : Paramagnetic NMR
   Boris Wezisla          : Elementary symmetry handling
   Frank Wennmohs         : Technical directorship


 We gratefully acknowledge several colleagues who have allowed us to
 interface, adapt or use parts of their codes:
   Stefan Grimme, W. Hujo, H. Kruse, P. Pracht,  : VdW corrections, initial TS optimization,
                  C. Bannwarth, S. Ehlert          DFT functionals, gCP, sTDA/sTD-DF
   Ed Valeev, F. Pavosevic, A. Kumar             : LibInt (2-el integral package), F12 methods
   Garnet Chan, S. Sharma, J. Yang, R. Olivares  : DMRG
   Ulf Ekstrom                                   : XCFun DFT Library
   Mihaly Kallay                                 : mrcc  (arbitrary order and MRCC methods)
   Jiri Pittner, Ondrej Demel                    : Mk-CCSD
   Frank Weinhold                                : gennbo (NPA and NBO analysis)
   Christopher J. Cramer and Donald G. Truhlar   : smd solvation model
   Lars Goerigk                                  : TD-DFT with DH, B97 family of functionals
   V. Asgeirsson, H. Jonsson                     : NEB implementation
   FAccTs GmbH                                   : IRC, NEB, NEB-TS, DLPNO-Multilevel, CI-OPT
                                                   MM, QMMM, 2- and 3-layer-ONIOM, Crystal-QMMM,
                                                   LR-CPCM, SF, NACMEs, symmetry and pop. for TD-DFT,
                                                   nearIR, NL-DFT gradient (VV10), updates on ESD,
                                                   ML-optimized integration grids
   S Lehtola, MJT Oliveira, MAL Marques          : LibXC Library
   Liviu Ungur et al                             : ANISO software


 Your calculation uses the libint2 library for the computation of 2-el integrals
 For citations please refer to: http://libint.valeyev.net

 Your ORCA version has been built with support for libXC version: 5.1.0
 For citations please refer to: https://tddft.org/programs/libxc/

 This ORCA versions uses:
   CBLAS   interface :  Fast vector & matrix operations
   LAPACKE interface :  Fast linear algebra routines
   SCALAPACK package :  Parallel linear algebra routines
   Shared memory     :  Shared parallel matrices
   BLAS/LAPACK       :  OpenBLAS 0.3.15  USE64BITINT DYNAMIC_ARCH NO_AFFINITY Zen SINGLE_THREADED
        Core in use  :  Zen
   Copyright (c) 2011-2014, The OpenBLAS Project




***************************************
The coordinates will be read from file: model.xyz
***************************************


================================================================================

----- Orbital basis set information -----
Your calculation utilizes the basis: EPR-II
   V. Barone, in Recent Advances in Density Functional Methods, Part 1 (ed. D. P. Chong), World Scientific, Singapore, 1995, p. 287.

----- AuxJ basis set information -----
Your calculation utilizes the auxiliary basis: def2/J
   F. Weigend, Phys. Chem. Chem. Phys. 8, 1057 (2006).

================================================================================
                                        WARNINGS
                       Please study these warnings very carefully!
================================================================================


WARNING: your system is open-shell and RHF/RKS was chosen
  ===> : WILL SWITCH to UHF/UKS


WARNING: Geometry Optimization
  ===> : Switching off AutoStart
         For restart on a previous wavefunction, please use MOREAD

INFO   : the flag for use of the SHARK integral package has been found!

================================================================================
                                       INPUT FILE
================================================================================
NAME = opt.inp
|  1> ! B3LYP EPR-II OPT
|  2> %pal nprocs 16 end
|  3> *XYZFile -1 2 model.xyz
|  4> 
|  5>                          ****END OF INPUT****
================================================================================

                       *****************************
                       * Geometry Optimization Run *
                       *****************************

Geometry optimization settings:
Update method            Update   .... BFGS
Choice of coordinates    CoordSys .... Z-matrix Internals
Initial Hessian          InHess   .... Almoef's Model

Convergence Tolerances:
Energy Change            TolE     ....  5.0000e-06 Eh
Max. Gradient            TolMAXG  ....  3.0000e-04 Eh/bohr
RMS Gradient             TolRMSG  ....  1.0000e-04 Eh/bohr
Max. Displacement        TolMAXD  ....  4.0000e-03 bohr
RMS Displacement         TolRMSD  ....  2.0000e-03 bohr
Strict Convergence                ....  False
------------------------------------------------------------------------------
                        ORCA OPTIMIZATION COORDINATE SETUP
------------------------------------------------------------------------------

The optimization will be done in new redundant internal coordinates
Making redundant internal coordinates   ...  (new redundants) done
Evaluating the initial hessian          ...  (Almloef) done
Evaluating the coordinates              ...  done
Calculating the B-matrix                .... done
Calculating the G-matrix                .... done
Diagonalizing the G-matrix              .... done
Small eigenvalue found = 7.355e-03
Small eigenvalue found = 1.290e-02
Small eigenvalue found = 1.685e-02
The first mode is                       ....   46
The number of degrees of freedom        ....   72

    -----------------------------------------------------------------
                    Redundant Internal Coordinates


    -----------------------------------------------------------------
         Definition                    Initial Value    Approx d2E/dq
    -----------------------------------------------------------------
      1. B(C   1,N   0)                  1.4513         0.446686   
      2. B(C   2,C   1)                  1.5477         0.350098   
      3. B(O   3,C   2)                  1.2298         1.007942   
      4. B(C   4,C   1)                  1.5546         0.341279   
      5. B(C   5,C   4)                  1.5004         0.416530   
      6. B(C   6,C   5)                  1.5062         0.407666   
      7. B(O   7,C   6)                  1.2690         0.872706   
      8. B(O   8,C   6)                  1.2412         0.966843   
      9. B(H   9,N   0)                  1.0118         0.429786   
     10. B(C  10,N   0)                  1.3497         0.648985   
     11. B(N  11,C   2)                  1.3363         0.681549   
     12. B(H  12,N  11)                  1.0469         0.377868   
     13. B(O  13,C  10)                  1.2198         1.045694   
     14. B(C  14,C  10)                  1.5282         0.376000   
     15. B(H  15,C  14)                  1.0955         0.352891   
     16. B(H  16,C  14)                  1.0953         0.353097   
     17. B(H  17,C  14)                  1.0967         0.351339   
     18. B(C  18,N  11)                  1.4492         0.450141   
     19. B(H  19,C  18)                  1.0977         0.350020   
     20. B(H  20,C  18)                  1.0942         0.354543   
     21. B(H  21,C  18)                  1.0992         0.348118   
     22. B(H  22,C   1)                  1.1021         0.344394   
     23. B(H  23,C   4)                  1.0969         0.351048   
     24. B(H  24,C   4)                  1.0994         0.347885   
     25. B(H  25,C   5)                  1.0895         0.360794   
     26. A(C   1,N   0,H   9)          113.8997         0.338998   
     27. A(C   1,N   0,C  10)          123.2241         0.407411   
     28. A(H   9,N   0,C  10)          119.3955         0.361054   
     29. A(N   0,C   1,C   4)          113.1619         0.366588   
     30. A(C   4,C   1,H  22)          106.8009         0.317236   
     31. A(C   2,C   1,H  22)          106.2188         0.318558   
     32. A(C   2,C   1,C   4)          116.1782         0.353874   
     33. A(N   0,C   1,C   2)          106.1102         0.368195   
     34. A(N   0,C   1,H  22)          107.9172         0.329577   
     35. A(C   1,C   2,N  11)          116.7748         0.396213   
     36. A(C   1,C   2,O   3)          119.3540         0.424663   
     37. A(O   3,C   2,N  11)          123.8090         0.476076   
     38. A(C   5,C   4,H  24)          111.0745         0.328311   
     39. A(H  23,C   4,H  24)          107.8833         0.288118   
     40. A(C   1,C   4,C   5)          116.3022         0.364498   
     41. A(C   1,C   4,H  24)          105.1699         0.317758   
     42. A(C   5,C   4,H  23)          108.4485         0.328802   
     43. A(C   1,C   4,H  23)          107.6219         0.318227   
     44. A(C   4,C   5,C   6)          121.9695         0.375807   
     45. A(C   6,C   5,H  25)          117.8014         0.329121   
     46. A(C   4,C   5,H  25)          120.0835         0.330293   
     47. A(C   5,C   6,O   7)          115.8002         0.425284   
     48. A(O   7,C   6,O   8)          127.5470         0.494514   
     49. A(C   5,C   6,O   8)          116.6524         0.433172   
     50. A(O  13,C  10,C  14)          120.8309         0.432981   
     51. A(N   0,C  10,C  14)          115.3827         0.397776   
     52. A(N   0,C  10,O  13)          123.7710         0.475010   
     53. A(C   2,N  11,H  12)          120.6721         0.356186   
     54. A(H  12,N  11,C  18)          115.0094         0.332242   
     55. A(C   2,N  11,C  18)          119.1095         0.411521   
     56. A(H  16,C  14,H  17)          109.0783         0.288827   
     57. A(H  15,C  14,H  17)          107.9068         0.288801   
     58. A(C  10,C  14,H  17)          108.2418         0.323353   
     59. A(H  15,C  14,H  16)          109.8502         0.289027   
     60. A(C  10,C  14,H  16)          113.2797         0.323618   
     61. A(C  10,C  14,H  15)          108.3364         0.323587   
     62. A(H  19,C  18,H  21)          107.8054         0.288016   
     63. A(N  11,C  18,H  21)          111.3151         0.330584   
     64. A(H  19,C  18,H  20)          109.8433         0.288842   
     65. A(N  11,C  18,H  20)          107.8390         0.331586   
     66. A(N  11,C  18,H  19)          110.8088         0.330882   
     67. A(H  20,C  18,H  21)          109.2199         0.288596   
     68. D(C   2,C   1,N   0,C  10)   -156.9580         0.017018   
     69. D(C   2,C   1,N   0,H   9)      1.7942         0.017018   
     70. D(H  22,C   1,N   0,C  10)    -43.4470         0.017018   
     71. D(H  22,C   1,N   0,H   9)    115.3052         0.017018   
     72. D(C   4,C   1,N   0,C  10)     74.5050         0.017018   
     73. D(C   4,C   1,N   0,H   9)   -126.7427         0.017018   
     74. D(N  11,C   2,C   1,C   4)    -29.3190         0.009261   
     75. D(O   3,C   2,C   1,N   0)     26.6997         0.009261   
     76. D(N  11,C   2,C   1,H  22)     89.2638         0.009261   
     77. D(O   3,C   2,C   1,H  22)    -87.9774         0.009261   
     78. D(N  11,C   2,C   1,N   0)   -156.0591         0.009261   
     79. D(O   3,C   2,C   1,C   4)    153.4399         0.009261   
     80. D(C   5,C   4,C   1,H  22)   -170.9084         0.009424   
     81. D(C   5,C   4,C   1,C   2)    -52.6445         0.009424   
     82. D(H  24,C   4,C   1,H  22)     65.7517         0.009424   
     83. D(H  24,C   4,C   1,C   2)   -175.9843         0.009424   
     84. D(H  24,C   4,C   1,N   0)    -52.8491         0.009424   
     85. D(H  23,C   4,C   1,H  22)    -49.0799         0.009424   
     86. D(H  23,C   4,C   1,C   2)     69.1841         0.009424   
     87. D(H  23,C   4,C   1,N   0)   -167.6806         0.009424   
     88. D(C   5,C   4,C   1,N   0)     70.4908         0.009424   
     89. D(H  25,C   5,C   4,H  23)    162.3574         0.012836   
     90. D(H  25,C   5,C   4,C   1)    -76.2513         0.012836   
     91. D(C   6,C   5,C   4,H  24)   -131.5487         0.012836   
     92. D(C   6,C   5,C   4,H  23)    -13.1585         0.012836   
     93. D(H  25,C   5,C   4,H  24)     43.9673         0.012836   
     94. D(C   6,C   5,C   4,C   1)    108.2327         0.012836   
     95. D(O   8,C   6,C   5,H  25)    -12.5233         0.011404   
     96. D(O   8,C   6,C   5,C   4)    163.0905         0.011404   
     97. D(O   7,C   6,C   5,H  25)    167.6864         0.011404   
     98. D(O   7,C   6,C   5,C   4)    -16.6998         0.011404   
     99. D(C  14,C  10,N   0,H   9)     17.2878         0.034363   
    100. D(C  14,C  10,N   0,C   1)    174.9362         0.034363   
    101. D(O  13,C  10,N   0,H   9)   -164.1286         0.034363   
    102. D(O  13,C  10,N   0,C   1)     -6.4802         0.034363   
    103. D(C  18,N  11,C   2,O   3)     -3.8357         0.038238   
    104. D(C  18,N  11,C   2,C   1)    179.0584         0.038238   
    105. D(H  12,N  11,C   2,O   3)   -157.0674         0.038238   
    106. D(H  12,N  11,C   2,C   1)     25.8268         0.038238   
    107. D(H  17,C  14,C  10,O  13)    -66.5732         0.010564   
    108. D(H  17,C  14,C  10,N   0)    112.0557         0.010564   
    109. D(H  16,C  14,C  10,O  13)    172.3315         0.010564   
    110. D(H  16,C  14,C  10,N   0)     -9.0397         0.010564   
    111. D(H  15,C  14,C  10,O  13)     50.1892         0.010564   
    112. D(H  15,C  14,C  10,N   0)   -131.1820         0.010564   
    113. D(H  21,C  18,N  11,H  12)     98.9033         0.017286   
    114. D(H  21,C  18,N  11,C   2)    -55.7905         0.017286   
    115. D(H  20,C  18,N  11,H  12)    -20.8841         0.017286   
    116. D(H  20,C  18,N  11,C   2)   -175.5779         0.017286   
    117. D(H  19,C  18,N  11,H  12)   -141.1345         0.017286   
    118. D(H  19,C  18,N  11,C   2)     64.1717         0.017286   
    -----------------------------------------------------------------

Number of atoms                         .... 26
Number of degrees of freedom            .... 118

         *************************************************************
         *                GEOMETRY OPTIMIZATION CYCLE   1            *
         *************************************************************
---------------------------------
CARTESIAN COORDINATES (ANGSTROEM)
---------------------------------
  N     -3.753764   -0.033479   -0.020416
  C     -2.312372   -0.158599   -0.135039
  C     -1.775271   -0.277902    1.311531
  O     -2.503446   -0.738859    2.188875
  C     -1.670466    0.950094   -1.015708
  C     -1.656814    2.334229   -0.436829
  C     -0.387229    2.983041    0.048886
  O      0.591478    2.200383    0.248956
  O     -0.414959    4.214241    0.203259
  H     -4.089504   -0.020493    0.934015
  C     -4.605331   -0.351820   -1.017951
  N     -0.504779    0.083712    1.513700
  H     -0.039542    0.776249    0.881304
  O     -4.247225   -0.663998   -2.141445
  C     -6.089663   -0.266325   -0.664450
  H     -6.575599   -1.192266   -0.990994
  H     -6.271787   -0.107463    0.403902
  H     -6.530120    0.563384   -1.230438
  C      0.044129    0.011805    2.853047
  H      0.071943   -1.026626    3.207864
  H      1.058490    0.421018    2.822015
  H     -0.559284    0.593861    3.563941
  H     -2.093496   -1.121250   -0.625047
  H     -0.635978    0.650938   -1.224504
  H     -2.227422    0.923333   -1.963205
  H     -2.568908    2.929951   -0.424281

----------------------------
CARTESIAN COORDINATES (A.U.)
----------------------------
  NO LB      ZA    FRAG     MASS         X           Y           Z
   0 N     7.0000    0    14.007   -7.093586   -0.063266   -0.038581
   1 C     6.0000    0    12.011   -4.369750   -0.299709   -0.255187
   2 C     6.0000    0    12.011   -3.354776   -0.525159    2.478434
   3 O     8.0000    0    15.999   -4.730827   -1.396241    4.136374
   4 C     6.0000    0    12.011   -3.156723    1.795417   -1.919410
   5 C     6.0000    0    12.011   -3.130925    4.411054   -0.825487
   6 C     6.0000    0    12.011   -0.731757    5.637131    0.092381
   7 O     8.0000    0    15.999    1.117731    4.158121    0.470459
   8 O     8.0000    0    15.999   -0.784159    7.963761    0.384104
   9 H     1.0000    0     1.008   -7.728043   -0.038726    1.765033
  10 C     6.0000    0    12.011   -8.702814   -0.664843   -1.923649
  11 N     7.0000    0    14.007   -0.953894    0.158193    2.860478
  12 H     1.0000    0     1.008   -0.074724    1.466898    1.665423
  13 O     8.0000    0    15.999   -8.026092   -1.254774   -4.046745
  14 C     6.0000    0    12.011  -11.507795   -0.503281   -1.255629
  15 H     1.0000    0     1.008  -12.426081   -2.253056   -1.872707
  16 H     1.0000    0     1.008  -11.851960   -0.203076    0.763264
  17 H     1.0000    0     1.008  -12.340138    1.064641   -2.325191
  18 C     6.0000    0    12.011    0.083392    0.022308    5.391477
  19 H     1.0000    0     1.008    0.135953   -1.940042    6.061984
  20 H     1.0000    0     1.008    2.000256    0.795609    5.332835
  21 H     1.0000    0     1.008   -1.056894    1.122235    6.734872
  22 H     1.0000    0     1.008   -3.956134   -2.118855   -1.181168
  23 H     1.0000    0     1.008   -1.201824    1.230095   -2.313977
  24 H     1.0000    0     1.008   -4.209218    1.744847   -3.709920
  25 H     1.0000    0     1.008   -4.854533    5.536805   -0.801775

--------------------------------
INTERNAL COORDINATES (ANGSTROEM)
--------------------------------
 N      0   0   0     0.000000000000     0.00000000     0.00000000
 C      1   0   0     1.451345701132     0.00000000     0.00000000
 C      2   1   0     1.547667746937   106.11023895     0.00000000
 O      3   2   1     1.229818149488   119.35398441    26.69970986
 C      2   1   3     1.554612932098   113.16187494   231.46306432
 C      5   2   1     1.500372277793   116.30220754    70.49079961
 C      6   5   2     1.506227786490   121.96951599   108.23272585
 O      7   6   5     1.269034649532   115.80020156   343.30022161
 O      7   6   5     1.241150037678   116.65237621   163.09052838
 H      1   2   3     1.011844117222   113.89968659     1.79420659
 C      1   2   3     1.349660484713   123.22414508   203.04196231
 N      3   2   1     1.336333383412   116.77478630   203.94088829
 H     12   3   2     1.046889518218   120.67208868    25.82675480
 O     11   1   2     1.219808910836   123.77099868   353.51977840
 C     11   1   2     1.528238802756   115.38274527   174.93617879
 H     15  11   1     1.095505141710   108.33638426   228.81798655
 H     15  11   1     1.095345736434   113.27967421   350.96031782
 H     15  11   1     1.096704978412   108.24179450   112.05568230
 C     12   3   2     1.449248424364   119.10946541   179.05836338
 H     19  12   3     1.097728410786   110.80877994    64.17173655
 H     19  12   3     1.094233294464   107.83895669   184.42211613
 H     19  12   3     1.099211860808   111.31509978   304.20950080
 H      2   1   3     1.102139506252   107.91716621   113.51103451
 H      5   2   1     1.096930036099   107.62186218   192.31937353
 H      5   2   1     1.099393788443   105.16985741   307.15094889
 H      6   5   2     1.089475845728   120.08348667   283.74868287

---------------------------
INTERNAL COORDINATES (A.U.)
---------------------------
 N      0   0   0     0.000000000000     0.00000000     0.00000000
 C      1   0   0     2.742645900783     0.00000000     0.00000000
 C      2   1   0     2.924668188014   106.11023895     0.00000000
 O      3   2   1     2.324019497058   119.35398441    26.69970986
 C      2   1   3     2.937792685917   113.16187494   231.46306432
 C      5   2   1     2.835292703957   116.30220754    70.49079961
 C      6   5   2     2.846358011768   121.96951599   108.23272585
 O      7   6   5     2.398127942072   115.80020156   343.30022161
 O      7   6   5     2.345433662318   116.65237621   163.09052838
 H      1   2   3     1.912108271769   113.89968659     1.79420659
 C      1   2   3     2.550488689882   123.22414508   203.04196231
 N      3   2   1     2.525304118265   116.77478630   203.94088829
 H     12   3   2     1.978334481904   120.67208868    25.82675480
 O     11   1   2     2.305104777198   123.77099868   353.51977840
 C     11   1   2     2.887952804441   115.38274527   174.93617879
 H     15  11   1     2.070204696134   108.33638426   228.81798655
 H     15  11   1     2.069903463818   113.27967421   350.96031782
 H     15  11   1     2.072472058907   108.24179450   112.05568230
 C     12   3   2     2.738682622065   119.10946541   179.05836338
 H     19  12   3     2.074406065809   110.80877994    64.17173655
 H     19  12   3     2.067801253156   107.83895669   184.42211613
 H     19  12   3     2.077209380085   111.31509978   304.20950080
 H      2   1   3     2.082741828191   107.91716621   113.51103451
 H      5   2   1     2.072897356299   107.62186218   192.31937353
 H      5   2   1     2.077553173491   105.16985741   307.15094889
 H      6   5   2     2.058810977948   120.08348667   283.74868287

---------------------
BASIS SET INFORMATION
---------------------
There are 4 groups of distinct atoms

 Group   1 Type N   : 10s5p1d contracted to 6s2p1d pattern {511111/41/1}
 Group   2 Type C   : 10s5p1d contracted to 6s2p1d pattern {511111/41/1}
 Group   3 Type O   : 10s5p1d contracted to 6s2p1d pattern {511111/41/1}
 Group   4 Type H   : 6s1p contracted to 4s1p pattern {3111/1}

Atom   0N    basis set group =>   1
Atom   1C    basis set group =>   2
Atom   2C    basis set group =>   2
Atom   3O    basis set group =>   3
Atom   4C    basis set group =>   2
Atom   5C    basis set group =>   2
Atom   6C    basis set group =>   2
Atom   7O    basis set group =>   3
Atom   8O    basis set group =>   3
Atom   9H    basis set group =>   4
Atom  10C    basis set group =>   2
Atom  11N    basis set group =>   1
Atom  12H    basis set group =>   4
Atom  13O    basis set group =>   3
Atom  14C    basis set group =>   2
Atom  15H    basis set group =>   4
Atom  16H    basis set group =>   4
Atom  17H    basis set group =>   4
Atom  18C    basis set group =>   2
Atom  19H    basis set group =>   4
Atom  20H    basis set group =>   4
Atom  21H    basis set group =>   4
Atom  22H    basis set group =>   4
Atom  23H    basis set group =>   4
Atom  24H    basis set group =>   4
Atom  25H    basis set group =>   4
---------------------------------
AUXILIARY/J BASIS SET INFORMATION
---------------------------------
There are 4 groups of distinct atoms

 Group   1 Type N   : 12s5p4d2f1g contracted to 6s4p3d1f1g pattern {711111/2111/211/2/1}
 Group   2 Type C   : 12s5p4d2f1g contracted to 6s4p3d1f1g pattern {711111/2111/211/2/1}
 Group   3 Type O   : 12s5p4d2f1g contracted to 6s4p3d1f1g pattern {711111/2111/211/2/1}
 Group   4 Type H   : 5s2p1d contracted to 3s1p1d pattern {311/2/1}

Atom   0N    basis set group =>   1
Atom   1C    basis set group =>   2
Atom   2C    basis set group =>   2
Atom   3O    basis set group =>   3
Atom   4C    basis set group =>   2
Atom   5C    basis set group =>   2
Atom   6C    basis set group =>   2
Atom   7O    basis set group =>   3
Atom   8O    basis set group =>   3
Atom   9H    basis set group =>   4
Atom  10C    basis set group =>   2
Atom  11N    basis set group =>   1
Atom  12H    basis set group =>   4
Atom  13O    basis set group =>   3
Atom  14C    basis set group =>   2
Atom  15H    basis set group =>   4
Atom  16H    basis set group =>   4
Atom  17H    basis set group =>   4
Atom  18C    basis set group =>   2
Atom  19H    basis set group =>   4
Atom  20H    basis set group =>   4
Atom  21H    basis set group =>   4
Atom  22H    basis set group =>   4
Atom  23H    basis set group =>   4
Atom  24H    basis set group =>   4
Atom  25H    basis set group =>   4


           ************************************************************
           *        Program running with 16 parallel MPI-processes    *
           *              working on a common directory               *
           ************************************************************
------------------------------------------------------------------------------
                           ORCA GTO INTEGRAL CALCULATION
                           -- RI-GTO INTEGRALS CHOSEN --
------------------------------------------------------------------------------
------------------------------------------------------------------------------
                   ___                                                        
                  /   \      - P O W E R E D   B Y -                         
                 /     \                                                     
                 |  |  |   _    _      __       _____    __    __             
                 |  |  |  | |  | |    /  \     |  _  \  |  |  /  |          
                  \  \/   | |  | |   /    \    | | | |  |  | /  /          
                 / \  \   | |__| |  /  /\  \   | |_| |  |  |/  /          
                |  |  |   |  __  | /  /__\  \  |    /   |      \           
                |  |  |   | |  | | |   __   |  |    \   |  |\   \          
                \     /   | |  | | |  |  |  |  | |\  \  |  | \   \       
                 \___/    |_|  |_| |__|  |__|  |_| \__\ |__|  \__/        
                                                                              
                      - O R C A' S   B I G   F R I E N D -                    
                                      &                                       
                       - I N T E G R A L  F E E D E R -                       
                                                                              
 v1 FN, 2020, v2 2021                                                         
------------------------------------------------------------------------------


Reading SHARK input file opt.SHARKINP.tmp ... ok
----------------------
SHARK INTEGRAL PACKAGE
----------------------

Number of atoms                             ...     26
Number of basis functions                   ...    322
Number of shells                            ...    186
Maximum angular momentum                    ...      2
Integral batch strategy                     ... SHARK/LIBINT Hybrid
RI-J (if used) integral strategy            ... SPLIT-RIJ (Revised 2003 algorithm where possible)
Printlevel                                  ...      1
Contraction scheme used                     ... SEGMENTED contraction
Coulomb Range Separation                    ... NOT USED
Exchange Range Separation                   ... NOT USED
Finite Nucleus Model                        ... NOT USED
Auxiliary Coulomb fitting basis             ... AVAILABLE
   # of basis functions in Aux-J            ...    818
   # of shells in Aux-J                     ...    270
   Maximum angular momentum in Aux-J        ...      4
Auxiliary J/K fitting basis                 ... NOT available
Auxiliary Correlation fitting basis         ... NOT available
Auxiliary 'external' fitting basis          ... NOT available
Integral threshold                          ...     2.500000e-11
Primitive cut-off                           ...     2.500000e-12
Primitive pair pre-selection threshold      ...     2.500000e-12

Calculating pre-screening integrals         ... done (  0.0 sec) Dimension = 186
Organizing shell pair data                  ... done (  0.0 sec)
Shell pair information
Total number of shell pairs                 ...     17391
Shell pairs after pre-screening             ...     12495
Total number of primitive shell pairs       ...     47846
Primitive shell pairs kept                  ...     24989
          la=0 lb=0:   5621 shell pairs
          la=1 lb=0:   4243 shell pairs
          la=1 lb=1:    739 shell pairs
          la=2 lb=0:   1325 shell pairs
          la=2 lb=1:    481 shell pairs
          la=2 lb=2:     86 shell pairs

Calculating one electron integrals          ... done (  0.0 sec)
Calculating RI/J V-Matrix + Cholesky decomp.... done (  0.0 sec)
Calculating Nuclear repulsion               ... done (  0.0 sec) ENN=    918.948260900205 Eh

SHARK setup successfully completed in   0.3 seconds

Maximum memory used throughout the entire GTOINT-calculation: 19.4 MB


           ************************************************************
           *        Program running with 16 parallel MPI-processes    *
           *              working on a common directory               *
           ************************************************************
-------------------------------------------------------------------------------
                                 ORCA SCF
-------------------------------------------------------------------------------

------------
SCF SETTINGS
------------
Hamiltonian:
 Density Functional     Method          .... DFT(GTOs)
 Exchange Functional    Exchange        .... B88
   X-Alpha parameter    XAlpha          ....  0.666667
   Becke's b parameter  XBeta           ....  0.004200
 Correlation Functional Correlation     .... LYP
 LDA part of GGA corr.  LDAOpt          .... VWN-5
 Gradients option       PostSCFGGA      .... off
 Hybrid DFT is turned on
   Fraction HF Exchange ScalHFX         ....  0.200000
   Scaling of DF-GGA-X  ScalDFX         ....  0.720000
   Scaling of DF-GGA-C  ScalDFC         ....  0.810000
   Scaling of DF-LDA-C  ScalLDAC        ....  1.000000
   Perturbative correction              ....  0.000000
   Density functional embedding theory  .... OFF
   NL short-range parameter             ....  4.800000
 RI-approximation to the Coulomb term is turned on
   Number of AuxJ basis functions       .... 818
   RIJ-COSX (HFX calculated with COS-X)).... on


General Settings:
 Integral files         IntName         .... opt
 Hartree-Fock type      HFTyp           .... UHF
 Total Charge           Charge          ....   -1
 Multiplicity           Mult            ....    2
 Number of Electrons    NEL             ....  107
 Basis Dimension        Dim             ....  322
 Nuclear Repulsion      ENuc            ....    918.9482609002 Eh

Convergence Acceleration:
 DIIS                   CNVDIIS         .... on
   Start iteration      DIISMaxIt       ....    12
   Startup error        DIISStart       ....  0.200000
   # of expansion vecs  DIISMaxEq       ....     5
   Bias factor          DIISBfac        ....   1.050
   Max. coefficient     DIISMaxC        ....  10.000
 Trust-Rad. Augm. Hess. CNVTRAH         .... auto
   Auto Start mean grad. ratio tolernc. ....  1.125000
   Auto Start start iteration           ....    20
   Auto Start num. interpolation iter.  ....    10
   Max. Number of Micro iterations      ....    16
   Max. Number of Macro iterations      .... Maxiter - #DIIS iter
   Number of Davidson start vectors     ....     2
   Converg. threshold I  (grad. norm)   ....   1.000e-05
   Converg. threshold II (energy diff.) ....   1.000e-08
   Grad. Scal. Fac. for Micro threshold ....   0.100
   Minimum threshold for Micro iter.    ....   0.010
   NR start threshold (gradient norm)   ....   0.001
   Initial trust radius                 ....   0.400
   Minimum AH scaling param. (alpha)    ....   1.000
   Maximum AH scaling param. (alpha)    .... 1000.000
   Orbital update algorithm             .... Taylor
   White noise on init. David. guess    .... on
   Maximum white noise                  ....   0.010
   Quad. conv. algorithm                .... NR
 SOSCF                  CNVSOSCF        .... off
 Level Shifting         CNVShift        .... on
   Level shift para.    LevelShift      ....    0.2500
   Turn off err/grad.   ShiftErr        ....    0.0010
 Zerner damping         CNVZerner       .... off
 Static damping         CNVDamp         .... on
   Fraction old density DampFac         ....    0.7000
   Max. Damping (<1)    DampMax         ....    0.9800
   Min. Damping (>=0)   DampMin         ....    0.0000
   Turn off err/grad.   DampErr         ....    0.1000
 Fernandez-Rico         CNVRico         .... off

SCF Procedure:
 Maximum # iterations   MaxIter         ....   125
 SCF integral mode      SCFMode         .... Direct
   Integral package                     .... SHARK and LIBINT hybrid scheme
 Reset frequency        DirectResetFreq ....    20
 Integral Threshold     Thresh          ....  2.500e-11 Eh
 Primitive CutOff       TCut            ....  2.500e-12 Eh

Convergence Tolerance:
 Convergence Check Mode ConvCheckMode   .... Total+1el-Energy
 Convergence forced     ConvForced      .... 0
 Energy Change          TolE            ....  1.000e-08 Eh
 1-El. energy change                    ....  1.000e-05 Eh
 DIIS Error             TolErr          ....  5.000e-07


Diagonalization of the overlap matrix:
Smallest eigenvalue                        ... 8.375e-04
Time for diagonalization                   ...    0.012 sec
Threshold for overlap eigenvalues          ... 1.000e-08
Number of eigenvalues below threshold      ... 0
Time for construction of square roots      ...    0.007 sec
Total time needed                          ...    0.020 sec

Time for model grid setup =    0.109 sec

------------------------------
INITIAL GUESS: MODEL POTENTIAL
------------------------------
Loading Hartree-Fock densities                     ... done
Calculating cut-offs                               ... done
Initializing the effective Hamiltonian             ... done
Setting up the integral package (SHARK)            ... done
Starting the Coulomb interaction                   ... done (   0.1 sec)
Reading the grid                                   ... done
Mapping shells                                     ... done
Starting the XC term evaluation                    ... done (   0.0 sec)
  promolecular density results
     # of electrons  =    105.987773858
     EX              =    -90.595077629
     EC              =     -3.651673743
     EX+EC           =    -94.246751372
Transforming the Hamiltonian                       ... done (   0.0 sec)
Diagonalizing the Hamiltonian                      ... done (   0.0 sec)
Back transforming the eigenvectors                 ... done (   0.0 sec)
Now organizing SCF variables                       ... done
                      ------------------
                      INITIAL GUESS DONE (   0.3 sec)
                      ------------------
-------------------
DFT GRID GENERATION
-------------------

General Integration Accuracy     IntAcc      ... 4.388
Radial Grid Type                 RadialGrid  ... OptM3 with GC (2021)
Angular Grid (max. ang.)         AngularGrid ... 4 (Lebedev-302)
Angular grid pruning method      GridPruning ... 4 (adaptive)
Weight generation scheme         WeightScheme... Becke
Basis function cutoff            BFCut       ... 1.0000e-11
Integration weight cutoff        WCut        ... 1.0000e-14
Angular grids for H and He will be reduced by one unit
Partially contracted basis set               ... off
Rotationally invariant grid construction     ... off

Total number of grid points                  ...   122589
Total number of batches                      ...     1928
Average number of points per batch           ...       63
Average number of grid points per atom       ...     4715
Time for grid setup =    0.514 sec

--------------------
COSX GRID GENERATION
--------------------

GRIDX 1
-------
General Integration Accuracy     IntAcc      ... 3.816
Radial Grid Type                 RadialGrid  ... OptM3 with GC (2021)
Angular Grid (max. ang.)         AngularGrid ... 1 (Lebedev-50)
Angular grid pruning method      GridPruning ... 4 (adaptive)
Weight generation scheme         WeightScheme... Becke
Basis function cutoff            BFCut       ... 1.0000e-11
Integration weight cutoff        WCut        ... 1.0000e-14
Angular grids for H and He will be reduced by one unit
Partially contracted basis set               ... on
Rotationally invariant grid construction     ... off

Total number of grid points                  ...    15614
Total number of batches                      ...      257
Average number of points per batch           ...       60
Average number of grid points per atom       ...      601
UseSFitting                                  ... on

GRIDX 2
-------
General Integration Accuracy     IntAcc      ... 4.020
Radial Grid Type                 RadialGrid  ... OptM3 with GC (2021)
Angular Grid (max. ang.)         AngularGrid ... 2 (Lebedev-110)
Angular grid pruning method      GridPruning ... 4 (adaptive)
Weight generation scheme         WeightScheme... Becke
Basis function cutoff            BFCut       ... 1.0000e-11
Integration weight cutoff        WCut        ... 1.0000e-14
Angular grids for H and He will be reduced by one unit
Partially contracted basis set               ... on
Rotationally invariant grid construction     ... off

Total number of grid points                  ...    33941
Total number of batches                      ...      544
Average number of points per batch           ...       62
Average number of grid points per atom       ...     1305
UseSFitting                                  ... on

GRIDX 3
-------
General Integration Accuracy     IntAcc      ... 4.338
Radial Grid Type                 RadialGrid  ... OptM3 with GC (2021)
Angular Grid (max. ang.)         AngularGrid ... 3 (Lebedev-194)
Angular grid pruning method      GridPruning ... 4 (adaptive)
Weight generation scheme         WeightScheme... Becke
Basis function cutoff            BFCut       ... 1.0000e-11
Integration weight cutoff        WCut        ... 1.0000e-14
Angular grids for H and He will be reduced by one unit
Partially contracted basis set               ... on
Rotationally invariant grid construction     ... off

Total number of grid points                  ...    74327
Total number of batches                      ...     1175
Average number of points per batch           ...       63
Average number of grid points per atom       ...     2859
UseSFitting                                  ... on

Time for X-Grid setup             =    0.583 sec

--------------
SCF ITERATIONS
--------------
ITER       Energy         Delta-E        Max-DP      RMS-DP      [F,P]     Damp
               ***  Starting incremental Fock matrix formation  ***
  0   -721.7342965753   0.000000000000 0.06436006  0.00131859  0.1424602 0.7000
  1   -722.0118177414  -0.277521166106 0.05623690  0.00101172  0.0591680 0.7000
                               ***Turning on DIIS***
  2   -722.1085593546  -0.096741613166 0.09736259  0.00159249  0.0190021 0.0000
  3   -722.2748389433  -0.166279588706 0.05012555  0.00077240  0.0342468 0.0000
  4   -722.3074128506  -0.032573907365 0.02126631  0.00028346  0.0074411 0.0000
  5   -722.3099403703  -0.002527519633 0.01017390  0.00012014  0.0029885 0.0000
  6   -722.3101987604  -0.000258390140 0.00882232  0.00010040  0.0009207 0.0000
               *** Restarting incremental Fock matrix formation ***
                                   *** Resetting DIIS ***
  7   -722.3102306229  -0.000031862442 0.00188756  0.00002342  0.0010489 0.0000
  8   -722.3102293749   0.000001248005 0.00074998  0.00000917  0.0012202 0.0000
  9   -722.3102529785  -0.000023603660 0.00049564  0.00000800  0.0002765 0.0000
 10   -722.3102559878  -0.000003009243 0.00046906  0.00000321  0.0001803 0.0000
 11   -722.3102563579  -0.000000370186 0.00023969  0.00000228  0.0001583 0.0000
 12   -722.3102566477  -0.000000289715 0.00015426  0.00000104  0.0000787 0.0000
 13   -722.3102566756  -0.000000027976 0.00007793  0.00000070  0.0000513 0.0000
 14   -722.3102567085  -0.000000032866 0.00002830  0.00000023  0.0000099 0.0000
 15   -722.3102567100  -0.000000001541 0.00002218  0.00000019  0.0000166 0.0000
 16   -722.3102567086   0.000000001455 0.00000826  0.00000009  0.0000047 0.0000
 17   -722.3102567034   0.000000005194 0.00000947  0.00000006  0.0000037 0.0000
 18   -722.3102567135  -0.000000010144 0.00000854  0.00000006  0.0000039 0.0000
 19   -722.3102567023   0.000000011251 0.00000261  0.00000003  0.0000027 0.0000
                 **** Energy Check signals convergence ****

               *****************************************************
               *                     SUCCESS                       *
               *           SCF CONVERGED AFTER  20 CYCLES          *
               *****************************************************

Old exchange energy                            =    -18.416266086 Eh
New exchange energy                            =    -18.416285373 Eh
Exchange energy change after final integration =     -0.000019287 Eh
Total energy after final integration           =   -722.310275990 Eh
Final COS-X integration done in                =     1.872 sec

----------------
TOTAL SCF ENERGY
----------------

Total Energy       :         -722.31027599 Eh          -19655.06185 eV

Components:
Nuclear Repulsion  :          918.94826090 Eh           25005.85345 eV
Electronic Energy  :        -1641.25853689 Eh          -44660.91531 eV
One Electron Energy:        -2825.47610016 Eh          -76885.11345 eV
Two Electron Energy:         1184.21756327 Eh           32224.19814 eV
Max COSX asymmetry :            0.00000181 Eh               0.00005 eV

Virial components:
Potential Energy   :        -1440.17314434 Eh          -39189.10359 eV
Kinetic Energy     :          717.86286835 Eh           19534.04174 eV
Virial Ratio       :            2.00619534


DFT components:
N(Alpha)           :       54.000077705896 electrons
N(Beta)            :       53.000044911483 electrons
N(Total)           :      107.000122617379 electrons
E(X)               :      -73.246909203922 Eh       
E(C)               :       -4.331028240408 Eh       
E(XC)              :      -77.577937444330 Eh       
DFET-embed. en.    :        0.000000000000 Eh       

---------------
SCF CONVERGENCE
---------------

  Last Energy change         ...   -1.0785e-09  Tolerance :   1.0000e-08
  Last MAX-Density change    ...    0.0000e+00  Tolerance :   1.0000e-07
  Last RMS-Density change    ...    0.0000e+00  Tolerance :   5.0000e-09
  Last DIIS Error            ...    1.3163e-06  Tolerance :   5.0000e-07

             **** THE GBW FILE WAS UPDATED (opt.gbw) ****
             **** DENSITY opt.scfp WAS UPDATED ****
             **** ENERGY FILE WAS UPDATED (opt.en.tmp) ****
----------------------
UHF SPIN CONTAMINATION
----------------------

Warning: in a DFT calculation there is little theoretical justification to 
         calculate <S**2> as in Hartree-Fock theory. We will do it anyways
         but you should keep in mind that the values have only limited relevance

Expectation value of <S**2>     :     0.755663
Ideal value S*(S+1) for S=0.5   :     0.750000
Deviation                       :     0.005663

             **** THE GBW FILE WAS UPDATED (opt.gbw) ****
             **** DENSITY opt.scfp WAS UPDATED ****
----------------
ORBITAL ENERGIES
----------------
                 SPIN UP ORBITALS
  NO   OCC          E(Eh)            E(eV) 
   0   1.0000     -19.002860      -517.0941 
   1   1.0000     -18.993363      -516.8357 
   2   1.0000     -18.922982      -514.9205 
   3   1.0000     -18.920262      -514.8465 
   4   1.0000     -14.244430      -387.6106 
   5   1.0000     -14.217141      -386.8681 
   6   1.0000     -10.187872      -277.2261 
   7   1.0000     -10.168780      -276.7066 
   8   1.0000     -10.120127      -275.3827 
   9   1.0000     -10.113952      -275.2146 
  10   1.0000     -10.099477      -274.8207 
  11   1.0000     -10.095410      -274.7101 
  12   1.0000     -10.061914      -273.7986 
  13   1.0000     -10.054930      -273.6086 
  14   1.0000      -0.933223       -25.3943 
  15   1.0000      -0.919133       -25.0109 
  16   1.0000      -0.862975       -23.4828 
  17   1.0000      -0.815394       -22.1880 
  18   1.0000      -0.793612       -21.5953 
  19   1.0000      -0.774107       -21.0645 
  20   1.0000      -0.673102       -18.3160 
  21   1.0000      -0.633410       -17.2360 
  22   1.0000      -0.594552       -16.1786 
  23   1.0000      -0.560392       -15.2490 
  24   1.0000      -0.499442       -13.5905 
  25   1.0000      -0.462954       -12.5976 
  26   1.0000      -0.442357       -12.0371 
  27   1.0000      -0.420109       -11.4318 
  28   1.0000      -0.377799       -10.2804 
  29   1.0000      -0.367963       -10.0128 
  30   1.0000      -0.349698        -9.5158 
  31   1.0000      -0.345779        -9.4091 
  32   1.0000      -0.336866        -9.1666 
  33   1.0000      -0.328143        -8.9292 
  34   1.0000      -0.316142        -8.6027 
  35   1.0000      -0.306214        -8.3325 
  36   1.0000      -0.295883        -8.0514 
  37   1.0000      -0.290515        -7.9053 
  38   1.0000      -0.284509        -7.7419 
  39   1.0000      -0.270912        -7.3719 
  40   1.0000      -0.263957        -7.1826 
  41   1.0000      -0.254409        -6.9228 
  42   1.0000      -0.242435        -6.5970 
  43   1.0000      -0.234756        -6.3880 
  44   1.0000      -0.228877        -6.2281 
  45   1.0000      -0.217905        -5.9295 
  46   1.0000      -0.155251        -4.2246 
  47   1.0000      -0.149638        -4.0719 
  48   1.0000      -0.144020        -3.9190 
  49   1.0000      -0.131912        -3.5895 
  50   1.0000      -0.094379        -2.5682 
  51   1.0000      -0.087358        -2.3771 
  52   1.0000      -0.073866        -2.0100 
  53   1.0000      -0.059977        -1.6320 
  54   0.0000       0.102365         2.7855 
  55   0.0000       0.122212         3.3256 
  56   0.0000       0.130052         3.5389 
  57   0.0000       0.140226         3.8157 
  58   0.0000       0.154535         4.2051 
  59   0.0000       0.166268         4.5244 
  60   0.0000       0.174341         4.7440 
  61   0.0000       0.184211         5.0126 
  62   0.0000       0.203940         5.5495 
  63   0.0000       0.213437         5.8079 
  64   0.0000       0.225740         6.1427 
  65   0.0000       0.236195         6.4272 
  66   0.0000       0.247051         6.7226 
  67   0.0000       0.248824         6.7709 
  68   0.0000       0.271925         7.3995 
  69   0.0000       0.282511         7.6875 
  70   0.0000       0.296592         8.0707 
  71   0.0000       0.298566         8.1244 
  72   0.0000       0.303054         8.2465 
  73   0.0000       0.311929         8.4880 
  74   0.0000       0.319142         8.6843 
  75   0.0000       0.323669         8.8075 
  76   0.0000       0.330099         8.9825 
  77   0.0000       0.343319         9.3422 
  78   0.0000       0.346360         9.4249 
  79   0.0000       0.357563         9.7298 
  80   0.0000       0.363518         9.8918 
  81   0.0000       0.366658         9.9773 
  82   0.0000       0.376265        10.2387 
  83   0.0000       0.378940        10.3115 
  84   0.0000       0.390325        10.6213 
  85   0.0000       0.397295        10.8109 
  86   0.0000       0.402584        10.9549 
  87   0.0000       0.406374        11.0580 
  88   0.0000       0.416345        11.3293 
  89   0.0000       0.419445        11.4137 
  90   0.0000       0.425863        11.5883 
  91   0.0000       0.438866        11.9422 
  92   0.0000       0.454483        12.3671 
  93   0.0000       0.459096        12.4926 
  94   0.0000       0.469298        12.7702 
  95   0.0000       0.478027        13.0078 
  96   0.0000       0.494384        13.4529 
  97   0.0000       0.503930        13.7126 
  98   0.0000       0.518394        14.1062 
  99   0.0000       0.525962        14.3122 
 100   0.0000       0.529587        14.4108 
 101   0.0000       0.539054        14.6684 
 102   0.0000       0.550749        14.9867 
 103   0.0000       0.556273        15.1370 
 104   0.0000       0.574556        15.6345 
 105   0.0000       0.577171        15.7056 
 106   0.0000       0.593201        16.1418 
 107   0.0000       0.595805        16.2127 
 108   0.0000       0.611832        16.6488 
 109   0.0000       0.626818        17.0566 
 110   0.0000       0.641760        17.4632 
 111   0.0000       0.644426        17.5357 
 112   0.0000       0.656768        17.8716 
 113   0.0000       0.658892        17.9294 
 114   0.0000       0.681063        18.5327 
 115   0.0000       0.687278        18.7018 
 116   0.0000       0.708193        19.2709 
 117   0.0000       0.715259        19.4632 
 118   0.0000       0.744638        20.2626 
 119   0.0000       0.751958        20.4618 
 120   0.0000       0.766099        20.8466 
 121   0.0000       0.784455        21.3461 
 122   0.0000       0.824401        22.4331 
 123   0.0000       0.835546        22.7363 
 124   0.0000       0.867689        23.6110 
 125   0.0000       0.883155        24.0319 
 126   0.0000       0.889320        24.1996 
 127   0.0000       0.896523        24.3956 
 128   0.0000       0.911262        24.7967 
 129   0.0000       0.919991        25.0342 
 130   0.0000       0.940409        25.5898 
 131   0.0000       0.953382        25.9428 
 132   0.0000       0.962745        26.1976 
 133   0.0000       0.968837        26.3634 
 134   0.0000       0.980628        26.6843 
 135   0.0000       0.982369        26.7316 
 136   0.0000       0.987159        26.8620 
 137   0.0000       0.989999        26.9393 
 138   0.0000       1.000513        27.2253 
 139   0.0000       1.014369        27.6024 
 140   0.0000       1.019746        27.7487 
 141   0.0000       1.025969        27.9180 
 142   0.0000       1.034858        28.1599 
 143   0.0000       1.047222        28.4964 
 144   0.0000       1.050106        28.5748 
 145   0.0000       1.056694        28.7541 
 146   0.0000       1.078764        29.3547 
 147   0.0000       1.096006        29.8238 
 148   0.0000       1.099517        29.9194 
 149   0.0000       1.121058        30.5055 
 150   0.0000       1.123230        30.5646 
 151   0.0000       1.130397        30.7597 
 152   0.0000       1.147639        31.2289 
 153   0.0000       1.157819        31.5059 
 154   0.0000       1.173035        31.9199 
 155   0.0000       1.182534        32.1784 
 156   0.0000       1.185972        32.2719 
 157   0.0000       1.207494        32.8576 
 158   0.0000       1.221202        33.2306 
 159   0.0000       1.240055        33.7436 
 160   0.0000       1.257513        34.2187 
 161   0.0000       1.277701        34.7680 
 162   0.0000       1.289678        35.0939 
 163   0.0000       1.319189        35.8970 
 164   0.0000       1.326714        36.1017 
 165   0.0000       1.342187        36.5228 
 166   0.0000       1.382991        37.6331 
 167   0.0000       1.392493        37.8917 
 168   0.0000       1.412515        38.4365 
 169   0.0000       1.434991        39.0481 
 170   0.0000       1.453252        39.5450 
 171   0.0000       1.460956        39.7546 
 172   0.0000       1.493919        40.6516 
 173   0.0000       1.495769        40.7019 
 174   0.0000       1.510527        41.1035 
 175   0.0000       1.526896        41.5490 
 176   0.0000       1.544458        42.0268 
 177   0.0000       1.568965        42.6937 
 178   0.0000       1.578060        42.9412 
 179   0.0000       1.586498        43.1708 
 180   0.0000       1.601549        43.5804 
 181   0.0000       1.610827        43.8328 
 182   0.0000       1.630781        44.3758 
 183   0.0000       1.633795        44.4578 
 184   0.0000       1.648024        44.8450 
 185   0.0000       1.667680        45.3799 
 186   0.0000       1.682770        45.7905 
 187   0.0000       1.689583        45.9759 
 188   0.0000       1.695369        46.1333 
 189   0.0000       1.713584        46.6290 
 190   0.0000       1.724477        46.9254 
 191   0.0000       1.745756        47.5044 
 192   0.0000       1.756665        47.8013 
 193   0.0000       1.772394        48.2293 
 194   0.0000       1.786376        48.6098 
 195   0.0000       1.795979        48.8711 
 196   0.0000       1.823765        49.6272 
 197   0.0000       1.830644        49.8144 
 198   0.0000       1.836101        49.9628 
 199   0.0000       1.856810        50.5264 
 200   0.0000       1.860447        50.6253 
 201   0.0000       1.889548        51.4172 
 202   0.0000       1.918744        52.2117 
 203   0.0000       1.923505        52.3412 
 204   0.0000       1.937602        52.7248 
 205   0.0000       1.950290        53.0701 
 206   0.0000       1.964944        53.4689 
 207   0.0000       1.974901        53.7398 
 208   0.0000       1.987536        54.0836 
 209   0.0000       2.015256        54.8379 
 210   0.0000       2.030215        55.2450 
 211   0.0000       2.055338        55.9286 
 212   0.0000       2.065478        56.2045 
 213   0.0000       2.102060        57.2000 
 214   0.0000       2.124086        57.7993 
 215   0.0000       2.140405        58.2434 
 216   0.0000       2.149230        58.4835 
 217   0.0000       2.164751        58.9059 
 218   0.0000       2.181448        59.3602 
 219   0.0000       2.222035        60.4646 
 220   0.0000       2.238594        60.9152 
 221   0.0000       2.251013        61.2532 
 222   0.0000       2.254264        61.3416 
 223   0.0000       2.269037        61.7436 
 224   0.0000       2.314670        62.9854 
 225   0.0000       2.334843        63.5343 
 226   0.0000       2.348670        63.9106 
 227   0.0000       2.374853        64.6230 
 228   0.0000       2.395258        65.1783 
 229   0.0000       2.424914        65.9853 
 230   0.0000       2.449216        66.6465 
 231   0.0000       2.468082        67.1599 
 232   0.0000       2.478628        67.4469 
 233   0.0000       2.480165        67.4887 
 234   0.0000       2.501098        68.0583 
 235   0.0000       2.564108        69.7729 
 236   0.0000       2.574923        70.0672 
 237   0.0000       2.592573        70.5475 
 238   0.0000       2.617583        71.2280 
 239   0.0000       2.634467        71.6875 
 240   0.0000       2.648371        72.0658 
 241   0.0000       2.668737        72.6200 
 242   0.0000       2.687213        73.1228 
 243   0.0000       2.712258        73.8043 
 244   0.0000       2.745914        74.7201 
 245   0.0000       2.774985        75.5112 
 246   0.0000       2.813287        76.5534 
 247   0.0000       2.821506        76.7771 
 248   0.0000       2.834254        77.1240 
 249   0.0000       2.861765        77.8726 
 250   0.0000       2.866080        77.9900 
 251   0.0000       2.887626        78.5763 
 252   0.0000       2.898794        78.8802 
 253   0.0000       2.918829        79.4254 
 254   0.0000       2.926453        79.6328 
 255   0.0000       3.030944        82.4762 
 256   0.0000       3.100746        84.3756 
 257   0.0000       3.130150        85.1757 
 258   0.0000       3.218589        87.5823 
 259   0.0000       3.226041        87.7850 
 260   0.0000       3.258352        88.6643 
 261   0.0000       3.361996        91.4846 
 262   0.0000       3.374987        91.8381 
 263   0.0000       3.493377        95.0596 
 264   0.0000       3.502875        95.3181 
 265   0.0000       3.533793        96.1594 
 266   0.0000       3.552052        96.6562 
 267   0.0000       3.570987        97.1715 
 268   0.0000       3.629091        98.7526 
 269   0.0000       3.698795       100.6493 
 270   0.0000       5.071300       137.9971 
 271   0.0000       5.099452       138.7631 
 272   0.0000       5.111760       139.0981 
 273   0.0000       5.119480       139.3081 
 274   0.0000       5.136834       139.7803 
 275   0.0000       5.168853       140.6516 
 276   0.0000       5.197071       141.4195 
 277   0.0000       5.282275       143.7380 
 278   0.0000       5.308864       144.4615 
 279   0.0000       5.351816       145.6303 
 280   0.0000       5.365446       146.0012 
 281   0.0000       5.386087       146.5629 
 282   0.0000       5.424450       147.6068 
 283   0.0000       5.438077       147.9776 
 284   0.0000       5.478457       149.0764 
 285   0.0000       5.629715       153.1923 
 286   0.0000       5.737787       156.1331 
 287   0.0000       5.796856       157.7405 
 288   0.0000       5.826550       158.5485 
 289   0.0000       5.933778       161.4663 
 290   0.0000       7.427187       202.1040 
 291   0.0000       7.489840       203.8089 
 292   0.0000       9.163705       249.3571 
 293   0.0000       9.178335       249.7552 
 294   0.0000       9.239048       251.4073 
 295   0.0000       9.356590       254.6057 
 296   0.0000      29.677399       807.5631 
 297   0.0000      29.713782       808.5531 
 298   0.0000      29.804619       811.0249 
 299   0.0000      30.003059       816.4247 
 300   0.0000      30.093284       818.8799 
 301   0.0000      30.159172       820.6728 
 302   0.0000      30.219264       822.3080 
 303   0.0000      30.349710       825.8576 
 304   0.0000      36.692262       998.4472 
 305   0.0000      36.720372       999.2121 
 306   0.0000      36.733566       999.5712 
 307   0.0000      36.749758      1000.0117 
 308   0.0000      36.789931      1001.1049 
 309   0.0000      36.818114      1001.8718 
 310   0.0000      36.897877      1004.0423 
 311   0.0000      36.910657      1004.3900 
 312   0.0000      36.933065      1004.9998 
 313   0.0000      37.005743      1006.9775 
 314   0.0000      37.019799      1007.3599 
 315   0.0000      37.058535      1008.4140 
 316   0.0000      41.360445      1125.4749 
 317   0.0000      41.435482      1127.5168 
 318   0.0000      53.706554      1461.4296 
 319   0.0000      53.717087      1461.7162 
 320   0.0000      53.776195      1463.3247 
 321   0.0000      53.893475      1466.5160 

                 SPIN DOWN ORBITALS
  NO   OCC          E(Eh)            E(eV) 
   0   1.0000     -19.002816      -517.0929 
   1   1.0000     -18.993346      -516.8352 
   2   1.0000     -18.922055      -514.8953 
   3   1.0000     -18.917280      -514.7654 
   4   1.0000     -14.244479      -387.6120 
   5   1.0000     -14.217104      -386.8671 
   6   1.0000     -10.187871      -277.2261 
   7   1.0000     -10.168814      -276.7075 
   8   1.0000     -10.118799      -275.3465 
   9   1.0000     -10.115094      -275.2457 
  10   1.0000     -10.099478      -274.8208 
  11   1.0000     -10.095413      -274.7102 
  12   1.0000     -10.062744      -273.8212 
  13   1.0000     -10.042274      -273.2642 
  14   1.0000      -0.933144       -25.3921 
  15   1.0000      -0.919069       -25.0091 
  16   1.0000      -0.859579       -23.3903 
  17   1.0000      -0.815125       -22.1807 
  18   1.0000      -0.793042       -21.5798 
  19   1.0000      -0.770237       -20.9592 
  20   1.0000      -0.669743       -18.2246 
  21   1.0000      -0.629892       -17.1402 
  22   1.0000      -0.588868       -16.0239 
  23   1.0000      -0.553644       -15.0654 
  24   1.0000      -0.489952       -13.3323 
  25   1.0000      -0.459747       -12.5104 
  26   1.0000      -0.440062       -11.9747 
  27   1.0000      -0.419702       -11.4207 
  28   1.0000      -0.376585       -10.2474 
  29   1.0000      -0.367415        -9.9979 
  30   1.0000      -0.348028        -9.4703 
  31   1.0000      -0.342379        -9.3166 
  32   1.0000      -0.334438        -9.1005 
  33   1.0000      -0.327488        -8.9114 
  34   1.0000      -0.314170        -8.5490 
  35   1.0000      -0.305706        -8.3187 
  36   1.0000      -0.292709        -7.9650 
  37   1.0000      -0.289066        -7.8659 
  38   1.0000      -0.280878        -7.6431 
  39   1.0000      -0.269489        -7.3332 
  40   1.0000      -0.262703        -7.1485 
  41   1.0000      -0.250238        -6.8093 
  42   1.0000      -0.240542        -6.5455 
  43   1.0000      -0.231190        -6.2910 
  44   1.0000      -0.222330        -6.0499 
  45   1.0000      -0.214227        -5.8294 
  46   1.0000      -0.153345        -4.1727 
  47   1.0000      -0.149381        -4.0649 
  48   1.0000      -0.143295        -3.8993 
  49   1.0000      -0.131513        -3.5787 
  50   1.0000      -0.083016        -2.2590 
  51   1.0000      -0.081460        -2.2166 
  52   1.0000      -0.065723        -1.7884 
  53   0.0000       0.065246         1.7754 
  54   0.0000       0.102689         2.7943 
  55   0.0000       0.123018         3.3475 
  56   0.0000       0.130114         3.5406 
  57   0.0000       0.140687         3.8283 
  58   0.0000       0.154901         4.2151 
  59   0.0000       0.166927         4.5423 
  60   0.0000       0.175913         4.7868 
  61   0.0000       0.184738         5.0270 
  62   0.0000       0.205657         5.5962 
  63   0.0000       0.213785         5.8174 
  64   0.0000       0.226772         6.1708 
  65   0.0000       0.236714         6.4413 
  66   0.0000       0.248869         6.7721 
  67   0.0000       0.256621         6.9830 
  68   0.0000       0.273684         7.4473 
  69   0.0000       0.284338         7.7372 
  70   0.0000       0.297304         8.0900 
  71   0.0000       0.299307         8.1446 
  72   0.0000       0.303954         8.2710 
  73   0.0000       0.312332         8.4990 
  74   0.0000       0.320830         8.7302 
  75   0.0000       0.324965         8.8427 
  76   0.0000       0.331054         9.0084 
  77   0.0000       0.346495         9.4286 
  78   0.0000       0.349571         9.5123 
  79   0.0000       0.359644         9.7864 
  80   0.0000       0.364630         9.9221 
  81   0.0000       0.367239         9.9931 
  82   0.0000       0.377835        10.2814 
  83   0.0000       0.383989        10.4489 
  84   0.0000       0.392261        10.6740 
  85   0.0000       0.399297        10.8654 
  86   0.0000       0.406629        11.0649 
  87   0.0000       0.408576        11.1179 
  88   0.0000       0.417515        11.3611 
  89   0.0000       0.422554        11.4983 
  90   0.0000       0.428280        11.6541 
  91   0.0000       0.439644        11.9633 
  92   0.0000       0.456977        12.4350 
  93   0.0000       0.459830        12.5126 
  94   0.0000       0.470823        12.8117 
  95   0.0000       0.481399        13.0995 
  96   0.0000       0.498780        13.5725 
  97   0.0000       0.506075        13.7710 
  98   0.0000       0.521143        14.1810 
  99   0.0000       0.527725        14.3601 
 100   0.0000       0.533515        14.5177 
 101   0.0000       0.543549        14.7907 
 102   0.0000       0.552981        15.0474 
 103   0.0000       0.557179        15.1616 
 104   0.0000       0.575501        15.6602 
 105   0.0000       0.582326        15.8459 
 106   0.0000       0.594753        16.1840 
 107   0.0000       0.598315        16.2810 
 108   0.0000       0.625327        17.0160 
 109   0.0000       0.629757        17.1366 
 110   0.0000       0.644404        17.5351 
 111   0.0000       0.646399        17.5894 
 112   0.0000       0.658841        17.9280 
 113   0.0000       0.664537        18.0830 
 114   0.0000       0.686097        18.6696 
 115   0.0000       0.689914        18.7735 
 116   0.0000       0.710036        19.3211 
 117   0.0000       0.717582        19.5264 
 118   0.0000       0.746451        20.3120 
 119   0.0000       0.753180        20.4951 
 120   0.0000       0.768702        20.9175 
 121   0.0000       0.787053        21.4168 
 122   0.0000       0.824993        22.4492 
 123   0.0000       0.836344        22.7581 
 124   0.0000       0.868036        23.6205 
 125   0.0000       0.885390        24.0927 
 126   0.0000       0.890195        24.2235 
 127   0.0000       0.897210        24.4143 
 128   0.0000       0.912730        24.8366 
 129   0.0000       0.920824        25.0569 
 130   0.0000       0.941214        25.6117 
 131   0.0000       0.953632        25.9496 
 132   0.0000       0.965926        26.2842 
 133   0.0000       0.970744        26.4153 
 134   0.0000       0.982010        26.7219 
 135   0.0000       0.985379        26.8135 
 136   0.0000       0.990133        26.9429 
 137   0.0000       0.991160        26.9708 
 138   0.0000       1.001713        27.2580 
 139   0.0000       1.015227        27.6257 
 140   0.0000       1.022099        27.8127 
 141   0.0000       1.028372        27.9834 
 142   0.0000       1.035894        28.1881 
 143   0.0000       1.048465        28.5302 
 144   0.0000       1.052974        28.6529 
 145   0.0000       1.059345        28.8262 
 146   0.0000       1.080805        29.4102 
 147   0.0000       1.097704        29.8700 
 148   0.0000       1.101360        29.9695 
 149   0.0000       1.122185        30.5362 
 150   0.0000       1.125503        30.6265 
 151   0.0000       1.132002        30.8033 
 152   0.0000       1.148746        31.2590 
 153   0.0000       1.160409        31.5763 
 154   0.0000       1.177116        32.0310 
 155   0.0000       1.187982        32.3266 
 156   0.0000       1.190634        32.3988 
 157   0.0000       1.210830        32.9484 
 158   0.0000       1.225172        33.3386 
 159   0.0000       1.247262        33.9397 
 160   0.0000       1.260657        34.3042 
 161   0.0000       1.280965        34.8568 
 162   0.0000       1.290954        35.1286 
 163   0.0000       1.321575        35.9619 
 164   0.0000       1.332085        36.2479 
 165   0.0000       1.346247        36.6332 
 166   0.0000       1.383922        37.6584 
 167   0.0000       1.395213        37.9657 
 168   0.0000       1.414670        38.4951 
 169   0.0000       1.436520        39.0897 
 170   0.0000       1.453494        39.5516 
 171   0.0000       1.461403        39.7668 
 172   0.0000       1.494772        40.6748 
 173   0.0000       1.498349        40.7721 
 174   0.0000       1.512509        41.1575 
 175   0.0000       1.527472        41.5646 
 176   0.0000       1.549251        42.1572 
 177   0.0000       1.569615        42.7114 
 178   0.0000       1.580696        43.0129 
 179   0.0000       1.588562        43.2270 
 180   0.0000       1.607104        43.7315 
 181   0.0000       1.612250        43.8716 
 182   0.0000       1.632955        44.4350 
 183   0.0000       1.637271        44.5524 
 184   0.0000       1.651623        44.9430 
 185   0.0000       1.668684        45.4072 
 186   0.0000       1.684701        45.8431 
 187   0.0000       1.692347        46.0511 
 188   0.0000       1.698690        46.2237 
 189   0.0000       1.714545        46.6551 
 190   0.0000       1.726592        46.9830 
 191   0.0000       1.747353        47.5479 
 192   0.0000       1.759938        47.8904 
 193   0.0000       1.774617        48.2898 
 194   0.0000       1.790495        48.7219 
 195   0.0000       1.803956        49.0881 
 196   0.0000       1.826337        49.6972 
 197   0.0000       1.831330        49.8330 
 198   0.0000       1.837470        50.0001 
 199   0.0000       1.860812        50.6353 
 200   0.0000       1.863889        50.7190 
 201   0.0000       1.893214        51.5170 
 202   0.0000       1.919309        52.2270 
 203   0.0000       1.928096        52.4662 
 204   0.0000       1.940625        52.8071 
 205   0.0000       1.952133        53.1202 
 206   0.0000       1.966485        53.5108 
 207   0.0000       1.976397        53.7805 
 208   0.0000       1.991737        54.1979 
 209   0.0000       2.018456        54.9250 
 210   0.0000       2.033253        55.3276 
 211   0.0000       2.058561        56.0163 
 212   0.0000       2.071102        56.3576 
 213   0.0000       2.103100        57.2283 
 214   0.0000       2.129318        57.9417 
 215   0.0000       2.144305        58.3495 
 216   0.0000       2.149937        58.5027 
 217   0.0000       2.167860        58.9905 
 218   0.0000       2.183318        59.4111 
 219   0.0000       2.229899        60.6786 
 220   0.0000       2.240698        60.9725 
 221   0.0000       2.252437        61.2919 
 222   0.0000       2.257384        61.4265 
 223   0.0000       2.271259        61.8041 
 224   0.0000       2.317227        63.0550 
 225   0.0000       2.337471        63.6058 
 226   0.0000       2.349428        63.9312 
 227   0.0000       2.375835        64.6498 
 228   0.0000       2.396484        65.2117 
 229   0.0000       2.426899        66.0393 
 230   0.0000       2.451326        66.7040 
 231   0.0000       2.469489        67.1982 
 232   0.0000       2.478698        67.4488 
 233   0.0000       2.480595        67.5004 
 234   0.0000       2.501541        68.0704 
 235   0.0000       2.564653        69.7878 
 236   0.0000       2.575064        70.0711 
 237   0.0000       2.593820        70.5814 
 238   0.0000       2.617773        71.2332 
 239   0.0000       2.636950        71.7550 
 240   0.0000       2.648638        72.0731 
 241   0.0000       2.670162        72.6588 
 242   0.0000       2.688254        73.1511 
 243   0.0000       2.715542        73.8937 
 244   0.0000       2.747420        74.7611 
 245   0.0000       2.776200        75.5442 
 246   0.0000       2.813751        76.5661 
 247   0.0000       2.822206        76.7961 
 248   0.0000       2.840852        77.3035 
 249   0.0000       2.864626        77.9504 
 250   0.0000       2.867627        78.0321 
 251   0.0000       2.890376        78.6511 
 252   0.0000       2.900306        78.9213 
 253   0.0000       2.919482        79.4431 
 254   0.0000       2.931329        79.7655 
 255   0.0000       3.033625        82.5491 
 256   0.0000       3.102239        84.4162 
 257   0.0000       3.132113        85.2291 
 258   0.0000       3.218650        87.5839 
 259   0.0000       3.226357        87.7936 
 260   0.0000       3.259666        88.7000 
 261   0.0000       3.364863        91.5626 
 262   0.0000       3.380313        91.9830 
 263   0.0000       3.494843        95.0995 
 264   0.0000       3.503880        95.3454 
 265   0.0000       3.533985        96.1646 
 266   0.0000       3.552182        96.6598 
 267   0.0000       3.571153        97.1760 
 268   0.0000       3.631249        98.8113 
 269   0.0000       3.700528       100.6965 
 270   0.0000       5.071308       137.9973 
 271   0.0000       5.099485       138.7640 
 272   0.0000       5.111794       139.0990 
 273   0.0000       5.120819       139.3446 
 274   0.0000       5.137853       139.8081 
 275   0.0000       5.173112       140.7675 
 276   0.0000       5.203763       141.6016 
 277   0.0000       5.281687       143.7220 
 278   0.0000       5.309205       144.4708 
 279   0.0000       5.352845       145.6583 
 280   0.0000       5.365758       146.0097 
 281   0.0000       5.386806       146.5825 
 282   0.0000       5.424878       147.6184 
 283   0.0000       5.438122       147.9788 
 284   0.0000       5.481709       149.1649 
 285   0.0000       5.630255       153.2070 
 286   0.0000       5.739386       156.1766 
 287   0.0000       5.797818       157.7666 
 288   0.0000       5.836506       158.8194 
 289   0.0000       5.938878       161.6051 
 290   0.0000       7.427179       202.1038 
 291   0.0000       7.489946       203.8118 
 292   0.0000       9.168086       249.4763 
 293   0.0000       9.178431       249.7578 
 294   0.0000       9.239118       251.4092 
 295   0.0000       9.360963       254.7247 
 296   0.0000      29.682314       807.6968 
 297   0.0000      29.713825       808.5543 
 298   0.0000      29.804999       811.0353 
 299   0.0000      30.003498       816.4367 
 300   0.0000      30.096095       818.9564 
 301   0.0000      30.159394       820.6788 
 302   0.0000      30.227319       822.5272 
 303   0.0000      30.350864       825.8890 
 304   0.0000      36.692273       998.4475 
 305   0.0000      36.720382       999.2124 
 306   0.0000      36.733611       999.5724 
 307   0.0000      36.749826      1000.0136 
 308   0.0000      36.795963      1001.2691 
 309   0.0000      36.818116      1001.8719 
 310   0.0000      36.893912      1003.9344 
 311   0.0000      36.908569      1004.3332 
 312   0.0000      36.933648      1005.0156 
 313   0.0000      37.005858      1006.9806 
 314   0.0000      37.019944      1007.3639 
 315   0.0000      37.061616      1008.4978 
 316   0.0000      41.360390      1125.4734 
 317   0.0000      41.435529      1127.5181 
 318   0.0000      53.708827      1461.4915 
 319   0.0000      53.717142      1461.7177 
 320   0.0000      53.776237      1463.3258 
 321   0.0000      53.895795      1466.5791 

                    ********************************
                    * MULLIKEN POPULATION ANALYSIS *
                    ********************************

--------------------------------------------
MULLIKEN ATOMIC CHARGES AND SPIN POPULATIONS
--------------------------------------------
   0 N :   -0.075897   -0.002119
   1 C :   -0.056278    0.048381
   2 C :    0.018738    0.007652
   3 O :   -0.392158   -0.001262
   4 C :   -0.339564   -0.051213
   5 C :   -0.150290    0.943300
   6 C :    0.090133   -0.070942
   7 O :   -0.445776    0.035052
   8 O :   -0.424072    0.107927
   9 H :    0.235455    0.000289
  10 C :    0.172342   -0.001198
  11 N :   -0.041770   -0.002933
  12 H :    0.252816   -0.001553
  13 O :   -0.341189    0.001405
  14 C :   -0.578035    0.000108
  15 H :    0.171002    0.000032
  16 H :    0.145369    0.000020
  17 H :    0.175224    0.000015
  18 C :   -0.471059   -0.000565
  19 H :    0.149579    0.000107
  20 H :    0.156327   -0.000003
  21 H :    0.161226    0.000325
  22 H :    0.156653    0.004883
  23 H :    0.164896    0.004053
  24 H :    0.146860    0.022421
  25 H :    0.119468   -0.044181
Sum of atomic charges         :   -1.0000000
Sum of atomic spin populations:    1.0000000

-----------------------------------------------------
MULLIKEN REDUCED ORBITAL CHARGES AND SPIN POPULATIONS
-----------------------------------------------------
CHARGE
  0 N s       :     3.352006  s :     3.352006
      pz      :     1.094327  p :     3.688147
      px      :     1.004161
      py      :     1.589658
      dz2     :     0.009739  d :     0.035744
      dxz     :     0.012640
      dyz     :     0.002222
      dx2y2   :     0.005376
      dxy     :     0.005767
  1 C s       :     3.133352  s :     3.133352
      pz      :     0.966287  p :     2.818498
      px      :     0.830901
      py      :     1.021310
      dz2     :     0.021089  d :     0.104428
      dxz     :     0.016360
      dyz     :     0.016467
      dx2y2   :     0.029839
      dxy     :     0.020672
[...]
  16 H :    0.031326    0.000013
  17 H :    0.048528    0.000046
  18 C :   -0.014417   -0.000002
  19 H :    0.027417    0.000118
  20 H :    0.034295   -0.000004
  21 H :    0.032092    0.000072
  22 H :    0.067036    0.003091
  23 H :    0.057159    0.003000
  24 H :    0.056113    0.016750
  25 H :    0.036781    0.006009

----------------------------------------------------
LOEWDIN REDUCED ORBITAL CHARGES AND SPIN POPULATIONS
----------------------------------------------------
CHARGE
  0 N s       :     3.072009  s :     3.072009
      pz      :     1.137481  p :     3.779310
      px      :     1.141400
      py      :     1.500429
      dz2     :     0.020114  d :     0.082209
      dxz     :     0.027998
      dyz     :     0.006038
      dx2y2   :     0.014737
      dxy     :     0.013323
  1 C s       :     2.860932  s :     2.860932
      pz      :     1.020661  p :     2.927072
      px      :     0.882648
      py      :     1.023763
      dz2     :     0.056392  d :     0.251733
      dxz     :     0.042328
      dyz     :     0.037121
      dx2y2   :     0.064749
      dxy     :     0.051143
  2 C s       :     2.844081  s :     2.844081
      pz      :     0.989423  p :     2.781218
      px      :     0.963123
      py      :     0.828672
      dz2     :     0.136400  d :     0.480695
      dxz     :     0.110685
      dyz     :     0.053717
      dx2y2   :     0.091682
      dxy     :     0.088211
  3 O s       :     3.592141  s :     3.592141
      pz      :     1.569912  p :     4.627309
      px      :     1.586048
      py      :     1.471348
      dz2     :     0.005879  d :     0.030122
      dxz     :     0.010160
      dyz     :     0.006147
      dx2y2   :     0.003374
      dxy     :     0.004563
  4 C s       :     2.865077  s :     2.865077
      pz      :     1.008680  p :     3.036961
      px      :     1.014399
      py      :     1.013882
      dz2     :     0.030890  d :     0.173977
      dxz     :     0.022109
      dyz     :     0.044797
      dx2y2   :     0.043549
      dxy     :     0.032632
  5 C s       :     2.944885  s :     2.944885
      pz      :     0.932005  p :     2.935192
      px      :     1.015396
      py      :     0.987791
      dz2     :     0.015473  d :     0.141830
      dxz     :     0.015766
      dyz     :     0.021710
      dx2y2   :     0.040956
      dxy     :     0.047925
  6 C s       :     2.845535  s :     2.845535
      pz      :     0.835977  p :     2.791208
      px      :     0.975643
      py      :     0.979589
      dz2     :     0.039952  d :     0.578084
      dxz     :     0.054417
      dyz     :     0.112459
      dx2y2   :     0.169504
      dxy     :     0.201752
  7 O s       :     3.616404  s :     3.616404
      pz      :     1.580329  p :     4.683042
      px      :     1.548379
      py      :     1.554333
      dz2     :     0.003529  d :     0.025353
      dxz     :     0.003785
      dyz     :     0.002571
      dx2y2   :     0.005030
      dxy     :     0.010437
  8 O s       :     3.610949  s :     3.610949
      pz      :     1.481459  p :     4.636363
      px      :     1.730115
      py      :     1.424789
      dz2     :     0.004170  d :     0.028192
      dxz     :     0.000072
      dyz     :     0.005686
      dx2y2   :     0.012780
      dxy     :     0.005484
  9 H s       :     0.757427  s :     0.757427
      pz      :     0.083426  p :     0.153999
      px      :     0.025559
      py      :     0.045014
 10 C s       :     2.844531  s :     2.844531
      pz      :     0.965744  p :     2.778975
      px      :     1.001960
      py      :     0.811271
      dz2     :     0.127078  d :     0.488526
      dxz     :     0.167939
      dyz     :     0.101113
      dx2y2   :     0.048792
      dxy     :     0.043605
 11 N s       :     3.101144  s :     3.101144
      pz      :     1.201033  p :     3.784900
      px      :     1.226888
      py      :     1.356979
      dz2     :     0.021051  d :     0.081744
      dxz     :     0.021222
      dyz     :     0.010741
      dx2y2   :     0.016702
      dxy     :     0.012028
 12 H s       :     0.693618  s :     0.693618
      pz      :     0.061460  p :     0.225127
      px      :     0.048358
      py      :     0.115309
 13 O s       :     3.587955  s :     3.587955
      pz      :     1.446953  p :     4.595233
      px      :     1.709224
      py      :     1.439056
      dz2     :     0.013616  d :     0.031413
      dxz     :     0.008136
      dyz     :     0.007559
      dx2y2   :     0.000981
      dxy     :     0.001121
 14 C s       :     2.878085  s :     2.878085
      pz      :     1.024746  p :     3.071728
      px      :     1.007489
      py      :     1.039493
      dz2     :     0.026234  d :     0.106215
      dxz     :     0.018297
      dyz     :     0.011927
      dx2y2   :     0.027590
      dxy     :     0.022167
 15 H s       :     0.872894  s :     0.872894
      pz      :     0.018540  p :     0.080931
      px      :     0.022419
      py      :     0.039972
 16 H s       :     0.887335  s :     0.887335
      pz      :     0.045300  p :     0.081338
      px      :     0.017795
      py      :     0.018244
 17 H s       :     0.870192  s :     0.870192
      pz      :     0.025763  p :     0.081280
      px      :     0.022967
      py      :     0.032550
 18 C s       :     2.864127  s :     2.864127
      pz      :     0.918341  p :     2.986719
      px      :     1.023075
      py      :     1.045303
      dz2     :     0.050889  d :     0.163571
      dxz     :     0.037071
      dyz     :     0.040394
      dx2y2   :     0.021645
      dxy     :     0.013572
 19 H s       :     0.894429  s :     0.894429
      pz      :     0.016466  p :     0.078153
      px      :     0.016376
      py      :     0.045311
 20 H s       :     0.887273  s :     0.887273
      pz      :     0.013374  p :     0.078432
      px      :     0.043099
      py      :     0.021959
 21 H s       :     0.888735  s :     0.888735
      pz      :     0.028006  p :     0.079173
      px      :     0.026609
      py      :     0.024558
 22 H s       :     0.851501  s :     0.851501
      pz      :     0.024147  p :     0.081463
      px      :     0.014249
      py      :     0.043066
 23 H s       :     0.858894  s :     0.858894
      pz      :     0.018071  p :     0.083948
      px      :     0.048095
      py      :     0.017782
 24 H s       :     0.860792  s :     0.860792
      pz      :     0.040839  p :     0.083096
      px      :     0.025180
      py      :     0.017077
 25 H s       :     0.874206  s :     0.874206
      pz      :     0.021710  p :     0.089013
      px      :     0.039589
      py      :     0.027714

SPIN
  0 N s       :     0.000453  s :     0.000453
      pz      :    -0.000082  p :    -0.000858
      px      :    -0.000766
      py      :    -0.000009
      dz2     :     0.000025  d :     0.000479
      dxz     :     0.000128
      dyz     :     0.000001
      dx2y2   :     0.000130
      dxy     :     0.000195
  1 C s       :     0.015716  s :     0.015716
      pz      :     0.006809  p :     0.032212
      px      :     0.006818
      py      :     0.018586
      dz2     :    -0.000428  d :    -0.000478
      dxz     :    -0.000052
      dyz     :     0.000024
      dx2y2   :     0.000123
      dxy     :    -0.000145
  2 C s       :     0.002532  s :     0.002532
      pz      :    -0.000811  p :    -0.000382
      px      :    -0.000083
      py      :     0.000513
      dz2     :     0.000217  d :     0.000600
      dxz     :     0.000065
      dyz     :     0.000287
      dx2y2   :     0.000018
      dxy     :     0.000013
  3 O s       :     0.000071  s :     0.000071
      pz      :     0.000735  p :     0.000460
      px      :     0.000110
      py      :    -0.000386
      dz2     :    -0.000001  d :    -0.000004
      dxz     :     0.000000
      dyz     :     0.000000
      dx2y2   :    -0.000002
      dxy     :    -0.000001
  4 C s       :    -0.002682  s :    -0.002682
      pz      :    -0.005661  p :    -0.019732
      px      :    -0.002914
      py      :    -0.011157
      dz2     :     0.007400  d :     0.034490
      dxz     :     0.000996
      dyz     :     0.016610
      dx2y2   :     0.005780
      dxy     :     0.003703
  5 C s       :     0.023459  s :     0.023459
      pz      :     0.594880  p :     0.742019
      px      :     0.051428
      py      :     0.095712
      dz2     :    -0.000928  d :    -0.003892
      dxz     :    -0.000550
      dyz     :    -0.000658
      dx2y2   :    -0.000871
      dxy     :    -0.000884
  6 C s       :    -0.005641  s :    -0.005641
      pz      :    -0.021421  p :    -0.035469
      px      :    -0.010373
      py      :    -0.003675
      dz2     :     0.007665  d :     0.028163
      dxz     :     0.012660
      dyz     :     0.005270
      dx2y2   :     0.000755
      dxy     :     0.001813
  7 O s       :    -0.000455  s :    -0.000455
      pz      :     0.020125  p :     0.035342
      px      :     0.011111
      py      :     0.004106
      dz2     :    -0.000042  d :    -0.000302
      dxz     :    -0.000064
      dyz     :    -0.000075
      dx2y2   :    -0.000091
      dxy     :    -0.000031
  8 O s       :     0.001145  s :     0.001145
      pz      :     0.120876  p :     0.120197
      px      :    -0.002067
      py      :     0.001388
      dz2     :     0.000007  d :    -0.000425
      dxz     :     0.000012
      dyz     :    -0.000283
      dx2y2   :    -0.000069
      dxy     :    -0.000092
  9 H s       :     0.000772  s :     0.000772
      pz      :    -0.000014  p :    -0.000020
      px      :    -0.000020
      py      :     0.000014
 10 C s       :     0.000307  s :     0.000307
      pz      :     0.000085  p :     0.000131
      px      :     0.000033
      py      :     0.000013
      dz2     :     0.000004  d :     0.000032
      dxz     :     0.000049
      dyz     :    -0.000025
      dx2y2   :     0.000013
      dxy     :    -0.000009
 11 N s       :     0.000082  s :     0.000082
      pz      :     0.000149  p :     0.001349
      px      :     0.000623
      py      :     0.000578
      dz2     :    -0.000003  d :    -0.000005
      dxz     :    -0.000015
      dyz     :    -0.000012
      dx2y2   :     0.000007
      dxy     :     0.000019
 12 H s       :     0.000101  s :     0.000101
      pz      :    -0.000129  p :     0.000021
      px      :     0.000125
      py      :     0.000026
 13 O s       :     0.000321  s :     0.000321
      pz      :     0.000005  p :     0.000768
      px      :     0.000439
      py      :     0.000324
      dz2     :     0.000001  d :    -0.000000
      dxz     :    -0.000000
      dyz     :     0.000000
      dx2y2   :    -0.000000
      dxy     :    -0.000000
 14 C s       :     0.000002  s :     0.000002
      pz      :     0.000012  p :     0.000014
      px      :    -0.000004
      py      :     0.000006
      dz2     :     0.000000  d :     0.000018
      dxz     :     0.000009
      dyz     :     0.000003
      dx2y2   :     0.000001
      dxy     :     0.000005
 15 H s       :    -0.000005  s :    -0.000005
      pz      :    -0.000000  p :     0.000000
      px      :    -0.000001
      py      :     0.000001
 16 H s       :     0.000010  s :     0.000010
      pz      :    -0.000001  p :     0.000003
      px      :     0.000004
      py      :    -0.000000
 17 H s       :     0.000048  s :     0.000048
      pz      :     0.000000  p :    -0.000002
      px      :    -0.000003
      py      :     0.000000
 18 C s       :     0.000006  s :     0.000006
      pz      :    -0.000083  p :    -0.000078
      px      :     0.000001
      py      :     0.000004
      dz2     :     0.000007  d :     0.000070
      dxz     :     0.000024
      dyz     :     0.000045
      dx2y2   :    -0.000000
      dxy     :    -0.000005
 19 H s       :     0.000127  s :     0.000127
      pz      :    -0.000006  p :    -0.000010
      px      :    -0.000002
      py      :    -0.000002
 20 H s       :     0.000006  s :     0.000006
      pz      :    -0.000004  p :    -0.000009
      px      :    -0.000002
      py      :    -0.000003
 21 H s       :     0.000068  s :     0.000068
      pz      :     0.000000  p :     0.000004
      px      :    -0.000001
      py      :     0.000004
 22 H s       :     0.001685  s :     0.001685
      pz      :     0.000143  p :     0.001406
      px      :     0.000174
      py      :     0.001090
 23 H s       :     0.003551  s :     0.003551
      pz      :     0.000127  p :    -0.000551
      px      :    -0.000198
      py      :    -0.000481
 24 H s       :     0.017532  s :     0.017532
      pz      :    -0.000224  p :    -0.000782
      px      :    -0.000162
      py      :    -0.000396
 25 H s       :    -0.017910  s :    -0.017910
      pz      :     0.017096  p :     0.023919
      px      :     0.003624
      py      :     0.003199


                      *****************************
                      * MAYER POPULATION ANALYSIS *
                      *****************************

  NA   - Mulliken gross atomic population
  ZA   - Total nuclear charge
  QA   - Mulliken gross atomic charge
  VA   - Mayer's total valence
  BVA  - Mayer's bonded valence
  FA   - Mayer's free valence

  ATOM       NA         ZA         QA         VA         BVA        FA
  0 N      7.0954     7.0000    -0.0954     3.2783     3.2783     0.0000
  1 C      6.0502     6.0000    -0.0502     4.0215     4.0187     0.0028
  2 C      5.9721     6.0000     0.0279     4.0317     4.0317     0.0001
  3 O      8.4050     8.0000    -0.4050     2.0023     2.0023    -0.0000
  4 C      6.3411     6.0000    -0.3411     3.9817     3.9796     0.0020
  5 C      6.1420     6.0000    -0.1420     3.9419     3.2777     0.6642
  6 C      5.8974     6.0000     0.1026     4.1151     4.1126     0.0025
  7 O      8.4503     8.0000    -0.4503     1.8578     1.8563     0.0015
  8 O      8.4249     8.0000    -0.4249     1.9093     1.8933     0.0159
  9 H      0.7628     1.0000     0.2372     0.9838     0.9838     0.0000
 10 C      5.8216     6.0000     0.1784     3.9472     3.9472     0.0000
 11 N      7.0613     7.0000    -0.0613     3.0577     3.0576     0.0000
 12 H      0.7423     1.0000     0.2577     1.0088     1.0088     0.0000
 13 O      8.3480     8.0000    -0.3480     2.0766     2.0766     0.0000
 14 C      6.5743     6.0000    -0.5743     3.8741     3.8741     0.0000
 15 H      0.8280     1.0000     0.1720     0.9618     0.9618     0.0000
 16 H      0.8522     1.0000     0.1478     0.9719     0.9719     0.0000
 17 H      0.8241     1.0000     0.1759     0.9605     0.9605     0.0000
 18 C      6.4710     6.0000    -0.4710     3.9907     3.9907    -0.0000
 19 H      0.8491     1.0000     0.1509     0.9551     0.9551     0.0000
 20 H      0.8431     1.0000     0.1569     0.9643     0.9643     0.0000
 21 H      0.8385     1.0000     0.1615     0.9588     0.9588     0.0000
 22 H      0.8418     1.0000     0.1582     0.9551     0.9551     0.0000
 23 H      0.8329     1.0000     0.1671     0.9653     0.9653     0.0000
 24 H      0.8529     1.0000     0.1471     0.9725     0.9720     0.0005
 25 H      0.8778     1.0000     0.1222     0.9736     0.9713     0.0023

  Mayer bond orders larger than 0.100000
B(  0-N ,  1-C ) :   1.0058 B(  0-N ,  9-H ) :   0.8963 B(  0-N , 10-C ) :   1.2328 
B(  1-C ,  2-C ) :   0.9128 B(  1-C ,  4-C ) :   0.9315 B(  1-C , 13-O ) :   0.1107 
B(  1-C , 22-H ) :   0.9770 B(  2-C ,  3-O ) :   1.7250 B(  2-C , 11-N ) :   1.2871 
B(  4-C ,  5-C ) :   0.9833 B(  4-C , 23-H ) :   0.9588 B(  4-C , 24-H ) :   0.9719 
B(  5-C ,  6-C ) :   1.0395 B(  5-C ,  8-O ) :   0.1370 B(  5-C , 25-H ) :   1.0017 
B(  6-C ,  7-O ) :   1.4094 B(  6-C ,  8-O ) :   1.6359 B(  7-O , 12-H ) :   0.2287 
B( 10-C , 13-O ) :   1.8209 B( 10-C , 14-C ) :   0.8790 B( 11-N , 12-H ) :   0.7461 
B( 11-N , 18-C ) :   0.9590 B( 14-C , 15-H ) :   0.9693 B( 14-C , 16-H ) :   0.9770 
B( 14-C , 17-H ) :   0.9649 B( 18-C , 19-H ) :   0.9655 B( 18-C , 20-H ) :   0.9693 
B( 18-C , 21-H ) :   0.9554 

-------
TIMINGS
-------

Total SCF time: 0 days 0 hours 0 min 13 sec 

Total time                  ....      13.989 sec
Sum of individual times     ....      13.382 sec  ( 95.7%)

Fock matrix formation       ....      11.522 sec  ( 82.4%)
  Split-RI-J                ....       0.969 sec  (  8.4% of F)
  Chain of spheres X        ....       7.828 sec  ( 67.9% of F)
  XC integration            ....       2.429 sec  ( 21.1% of F)
    Basis function eval.    ....       0.246 sec  ( 10.2% of XC)
    Density eval.           ....       0.345 sec  ( 14.2% of XC)
    XC-Functional eval.     ....       0.057 sec  (  2.4% of XC)
    XC-Potential eval.      ....       0.212 sec  (  8.7% of XC)
Diagonalization             ....       0.378 sec  (  2.7%)
Density matrix formation    ....       0.052 sec  (  0.4%)
Population analysis         ....       0.054 sec  (  0.4%)
Initial guess               ....       0.046 sec  (  0.3%)
Orbital Transformation      ....       0.000 sec  (  0.0%)
Orbital Orthonormalization  ....       0.030 sec  (  0.2%)
DIIS solution               ....       0.197 sec  (  1.4%)
Grid generation             ....       1.133 sec  (  8.1%)

Maximum memory used throughout the entire SCF-calculation: 76.6 MB

-------------------------   --------------------
FINAL SINGLE POINT ENERGY      -722.312654368007
-------------------------   --------------------

                                *** OPTIMIZATION RUN DONE ***

                            ***************************************
                            *     ORCA property calculations      *
                            ***************************************

                                    ---------------------
                                    Active property flags
                                    ---------------------
   (+) Dipole Moment


------------------------------------------------------------------------------
                       ORCA ELECTRIC PROPERTIES CALCULATION
------------------------------------------------------------------------------

Dipole Moment Calculation                       ... on
Quadrupole Moment Calculation                   ... off
Polarizability Calculation                      ... off
GBWName                                         ... opt.gbw
Electron density                                ... opt.scfp
The origin for moment calculation is the CENTER OF MASS  = (-3.936033,  1.395271  0.421832)

-------------
DIPOLE MOMENT
-------------
                                X             Y             Z
Electronic contribution:      2.82217       2.81664      -2.12334
Nuclear contribution   :     -5.11705      -5.17099       2.57788
                        -----------------------------------------
Total Dipole Moment    :     -2.29488      -2.35435       0.45454
                        -----------------------------------------
Magnitude (a.u.)       :      3.31904
Magnitude (Debye)      :      8.43633



--------------------
Rotational spectrum 
--------------------
 
Rotational constants in cm-1:     0.030761     0.014478     0.011085 
Rotational constants in MHz :   922.179571   434.038479   332.329440 

 Dipole components along the rotational axes: 
x,y,z [a.u.] :    -2.877138     1.641668    -0.207438 
x,y,z [Debye]:    -7.313103     4.172788    -0.527266 

 

Timings for individual modules:

Sum of individual times         ...      410.506 sec (=   6.842 min)
GTO integral calculation        ...       34.907 sec (=   0.582 min)   8.5 %
SCF iterations                  ...      290.198 sec (=   4.837 min)  70.7 %
SCF Gradient evaluation         ...       84.950 sec (=   1.416 min)  20.7 %
Geometry relaxation             ...        0.451 sec (=   0.008 min)   0.1 %
                             ****ORCA TERMINATED NORMALLY****
TOTAL RUN TIME: 0 days 0 hours 7 minutes 21 seconds 35 msec
