
                                 *****************
                                 * O   R   C   A *
                                 *****************

                                            #,                                       
                                            ###                                      
                                            ####                                     
                                            #####                                    
                                            ######                                   
                                           ########,                                 
                                     ,,################,,,,,                         
                               ,,#################################,,                 
                          ,,##########################################,,             
                       ,#########################################, ''#####,          
                    ,#############################################,,   '####,        
                  ,##################################################,,,,####,       
                ,###########''''           ''''###############################       
              ,#####''   ,,,,##########,,,,          '''####'''          '####       
            ,##' ,,,,###########################,,,                        '##       
           ' ,,###''''                  '''############,,,                           
         ,,##''                                '''############,,,,        ,,,,,,###''
      ,#''                                            '''#######################'''  
     '                                                          ''''####''''         
             ,#######,   #######,   ,#######,      ##                                
            ,#'     '#,  ##    ##  ,#'     '#,    #''#        ######   ,####,        
            ##       ##  ##   ,#'  ##            #'  '#       #        #'  '#        
            ##       ##  #######   ##           ,######,      #####,   #    #        
            '#,     ,#'  ##    ##  '#,     ,#' ,#      #,         ##   #,  ,#        
             '#######'   ##     ##  '#######'  #'      '#     #####' # '####'        



                  #######################################################
                  #                        -***-                        #
                  #          Department of theory and spectroscopy      #
                  #    Directorship and core code : Frank Neese         #
                  #        Max Planck Institute fuer Kohlenforschung    #
                  #                Kaiser Wilhelm Platz 1               #
                  #                 D-45470 Muelheim/Ruhr               #
                  #                      Germany                        #
                  #                                                     #
                  #                  All rights reserved                #
                  #                        -***-                        #
                  #######################################################


                         Program Version 5.0.4 -  RELEASE  -


 With contributions from (in alphabetic order):
   Daniel Aravena         : Magnetic Suceptibility
   Michael Atanasov       : Ab Initio Ligand Field Theory (pilot matlab implementation)
   Alexander A. Auer      : GIAO ZORA, VPT2 properties, NMR spectrum
   Ute Becker             : Parallelization
   Giovanni Bistoni       : ED, misc. LED, open-shell LED, HFLD
   Martin Brehm           : Molecular dynamics
   Dmytro Bykov           : SCF Hessian
   Vijay G. Chilkuri      : MRCI spin determinant printing, contributions to CSF-ICE
   Dipayan Datta          : RHF DLPNO-CCSD density
   Achintya Kumar Dutta   : EOM-CC, STEOM-CC
   Dmitry Ganyushin       : Spin-Orbit,Spin-Spin,Magnetic field MRCI
   Miquel Garcia          : C-PCM and meta-GGA Hessian, CC/C-PCM, Gaussian charge scheme
   Yang Guo               : DLPNO-NEVPT2, F12-NEVPT2, CIM, IAO-localization
   Andreas Hansen         : Spin unrestricted coupled pair/coupled cluster methods
   Benjamin Helmich-Paris : MC-RPA, TRAH-SCF, COSX integrals
   Lee Huntington         : MR-EOM, pCC
   Robert Izsak           : Overlap fitted RIJCOSX, COSX-SCS-MP3, EOM
   Marcus Kettner         : VPT2
   Christian Kollmar      : KDIIS, OOCD, Brueckner-CCSD(T), CCSD density, CASPT2, CASPT2-K
   Simone Kossmann        : Meta GGA functionals, TD-DFT gradient, OOMP2, MP2 Hessian
   Martin Krupicka        : Initial AUTO-CI
   Lucas Lang             : DCDCAS
   Marvin Lechner         : AUTO-CI (C++ implementation), FIC-MRCC
   Dagmar Lenk            : GEPOL surface, SMD
   Dimitrios Liakos       : Extrapolation schemes; Compound Job, initial MDCI parallelization
   Dimitrios Manganas     : Further ROCIS development; embedding schemes
   Dimitrios Pantazis     : SARC Basis sets
   Anastasios Papadopoulos: AUTO-CI, single reference methods and gradients
   Taras Petrenko         : DFT Hessian,TD-DFT gradient, ASA, ECA, R-Raman, ABS, FL, XAS/XES, NRVS
   Peter Pinski           : DLPNO-MP2, DLPNO-MP2 Gradient
   Christoph Reimann      : Effective Core Potentials
   Marius Retegan         : Local ZFS, SOC
   Christoph Riplinger    : Optimizer, TS searches, QM/MM, DLPNO-CCSD(T), (RO)-DLPNO pert. Triples
   Tobias Risthaus        : Range-separated hybrids, TD-DFT gradient, RPA, STAB
   Michael Roemelt        : Original ROCIS implementation
   Masaaki Saitow         : Open-shell DLPNO-CCSD energy and density
   Barbara Sandhoefer     : DKH picture change effects
   Avijit Sen             : IP-ROCIS
   Kantharuban Sivalingam : CASSCF convergence, NEVPT2, FIC-MRCI
   Bernardo de Souza      : ESD, SOC TD-DFT
   Georgi Stoychev        : AutoAux, RI-MP2 NMR, DLPNO-MP2 response
   Willem Van den Heuvel  : Paramagnetic NMR
   Boris Wezisla          : Elementary symmetry handling
   Frank Wennmohs         : Technical directorship


 We gratefully acknowledge several colleagues who have allowed us to
 interface, adapt or use parts of their codes:
   Stefan Grimme, W. Hujo, H. Kruse, P. Pracht,  : VdW corrections, initial TS optimization,
                  C. Bannwarth, S. Ehlert          DFT functionals, gCP, sTDA/sTD-DF
   Ed Valeev, F. Pavosevic, A. Kumar             : LibInt (2-el integral package), F12 methods
   Garnet Chan, S. Sharma, J. Yang, R. Olivares  : DMRG
   Ulf Ekstrom                                   : XCFun DFT Library
   Mihaly Kallay                                 : mrcc  (arbitrary order and MRCC methods)
   Jiri Pittner, Ondrej Demel                    : Mk-CCSD
   Frank Weinhold                                : gennbo (NPA and NBO analysis)
   Christopher J. Cramer and Donald G. Truhlar   : smd solvation model
   Lars Goerigk                                  : TD-DFT with DH, B97 family of functionals
   V. Asgeirsson, H. Jonsson                     : NEB implementation
   FAccTs GmbH                                   : IRC, NEB, NEB-TS, DLPNO-Multilevel, CI-OPT
                                                   MM, QMMM, 2- and 3-layer-ONIOM, Crystal-QMMM,
                                                   LR-CPCM, SF, NACMEs, symmetry and pop. for TD-DFT,
                                                   nearIR, NL-DFT gradient (VV10), updates on ESD,
                                                   ML-optimized integration grids
   S Lehtola, MJT Oliveira, MAL Marques          : LibXC Library
   Liviu Ungur et al                             : ANISO software


 Your calculation uses the libint2 library for the computation of 2-el integrals
 For citations please refer to: http://libint.valeyev.net

 Your ORCA version has been built with support for libXC version: 5.1.0
 For citations please refer to: https://tddft.org/programs/libxc/

 This ORCA versions uses:
   CBLAS   interface :  Fast vector & matrix operations
   LAPACKE interface :  Fast linear algebra routines
   SCALAPACK package :  Parallel linear algebra routines
   Shared memory     :  Shared parallel matrices
   BLAS/LAPACK       :  OpenBLAS 0.3.15  USE64BITINT DYNAMIC_ARCH NO_AFFINITY Zen SINGLE_THREADED
        Core in use  :  Zen
   Copyright (c) 2011-2014, The OpenBLAS Project




***************************************
The coordinates will be read from file: opt.xyz
***************************************


XCFun DFT library Copyright 2009-2010 Ulf Ekstrom and contributors.
See http://admol.org/xcfun for more information.
This is free software; see the source code for copying conditions.
There is ABSOLUTELY NO WARRANTY; not even for MERCHANTABILITY or FITNESS FOR A PARTICULAR PURPOSE.
For details see the documentation.
Scientific users of this library should cite U. Ekstrom, L. Visscher, R. Bast, A. J. Thorvaldsen and K. Ruud;
J.Chem.Theor.Comp. 2010, DOI: 10.1021/ct100117s
XCFun Version 0.99 

================================================================================

----- Orbital basis set information -----
Your calculation utilizes the basis: def2-TZVP
   F. Weigend and R. Ahlrichs, Phys. Chem. Chem. Phys. 7, 3297 (2005).

----- AuxJ basis set information -----
Your calculation utilizes the auxiliary basis: def2/J
   F. Weigend, Phys. Chem. Chem. Phys. 8, 1057 (2006).

================================================================================
                                        WARNINGS
                       Please study these warnings very carefully!
================================================================================


WARNING: your system is open-shell and RHF/RKS was chosen
  ===> : WILL SWITCH to UHF/UKS


WARNING: Geometry Optimization
  ===> : Switching off AutoStart
         For restart on a previous wavefunction, please use MOREAD

WARNING: Minnesota functionals are quite sensitive to the integration grid.
         see SE Wheeler, KN Houk, JCTC 2010, 6, 395,
             N Mardirossian, M Head-Gordon, JCTC 2016, 12, 4303.
         DEFGRID3 seems to be a minimum grid for reliable results with these functionals!
  ===> : Please increase the integration grid!


INFO   : the flag for use of the SHARK integral package has been found!

================================================================================
                                       INPUT FILE
================================================================================
NAME = freq.inp
|  1> ! M062X def2-TZVP OPT FREQ
|  2> %pal nprocs 16 end
|  3> *XYZFile 0 2 opt.xyz
|  4> 
|  5>                          ****END OF INPUT****
================================================================================

                       *****************************
                       * Geometry Optimization Run *
                       *****************************

Geometry optimization settings:
Update method            Update   .... BFGS
Choice of coordinates    CoordSys .... Z-matrix Internals
Initial Hessian          InHess   .... Almoef's Model

Convergence Tolerances:
Energy Change            TolE     ....  5.0000e-06 Eh
Max. Gradient            TolMAXG  ....  3.0000e-04 Eh/bohr
RMS Gradient             TolRMSG  ....  1.0000e-04 Eh/bohr
Max. Displacement        TolMAXD  ....  4.0000e-03 bohr
RMS Displacement         TolRMSD  ....  2.0000e-03 bohr
Strict Convergence                ....  False
------------------------------------------------------------------------------
                        ORCA OPTIMIZATION COORDINATE SETUP
------------------------------------------------------------------------------

The optimization will be done in new redundant internal coordinates
Making redundant internal coordinates   ...  (new redundants) done
Evaluating the initial hessian          ...  (Almloef) done
Evaluating the coordinates              ...  done
Calculating the B-matrix                .... done
Calculating the G-matrix                .... done
Diagonalizing the G-matrix              .... done
Small eigenvalue found = 7.166e-03
Small eigenvalue found = 7.300e-03
Small eigenvalue found = 1.001e-02
Small eigenvalue found = 2.417e-02
Small eigenvalue found = 2.807e-02
The first mode is                       ....   67
The number of degrees of freedom        ....   90

    -----------------------------------------------------------------
                    Redundant Internal Coordinates


    -----------------------------------------------------------------
         Definition                    Initial Value    Approx d2E/dq
    -----------------------------------------------------------------
      1. B(C   1,N   0)                  1.4533         0.443445   
      2. B(C   2,C   1)                  1.5433         0.355823   
      3. B(O   3,C   2)                  1.2326         0.997534   
      4. B(C   4,C   1)                  1.5541         0.341967   
      5. B(C   5,C   4)                  1.5378         0.363061   
      6. B(C   6,C   5)                  1.5394         0.360945   
      7. B(C   7,C   6)                  1.5468         0.351240   
      8. B(N   8,C   7)                  1.4509         0.447433   
      9. B(H   9,C   1)                  1.0972         0.350728   
     10. B(H  10,C   4)                  1.0951         0.353453   
     11. B(H  11,C   4)                  1.0980         0.349653   
     12. B(H  12,C   5)                  1.0976         0.350171   
     13. B(H  13,C   5)                  1.0967         0.351361   
     14. B(H  14,C   6)                  1.0988         0.348682   
     15. B(H  15,C   6)                  1.0975         0.350362   
     16. B(H  16,C   7)                  1.0967         0.351384   
     17. B(H  17,C   7)                  1.1065         0.338938   
     18. B(H  18,N   8)                  1.0305         0.401328   
     19. B(H  19,N   0)                  1.0122         0.429260   
     20. B(C  20,N   0)                  1.3675         0.607855   
     21. B(N  21,C   2)                  1.3640         0.615579   
     22. B(H  22,N  21)                  1.0087         0.434725   
     23. B(O  23,C  20)                  1.2320         0.999962   
     24. B(C  24,C  20)                  1.5258         0.379405   
     25. B(H  25,C  24)                  1.0935         0.355529   
     26. B(H  26,C  24)                  1.0933         0.355715   
     27. B(H  27,C  24)                  1.0933         0.355811   
     28. B(C  28,N  21)                  1.4593         0.433770   
     29. B(H  29,C  28)                  1.0954         0.353068   
     30. B(H  30,C  28)                  1.0946         0.354028   
     31. B(H  31,C  28)                  1.0900         0.360118   
     32. A(C   1,N   0,H  19)          115.2730         0.338517   
     33. A(H  19,N   0,C  20)          121.5258         0.356978   
     34. A(C   1,N   0,C  20)          122.1138         0.402211   
     35. A(N   0,C   1,H   9)          108.2000         0.330174   
     36. A(C   2,C   1,H   9)          109.4215         0.320355   
     37. A(C   4,C   1,H   9)          107.4878         0.318285   
     38. A(N   0,C   1,C   2)          107.0295         0.368761   
     39. A(C   2,C   1,C   4)          111.8342         0.354970   
     40. A(N   0,C   1,C   4)          112.7887         0.366257   
     41. A(O   3,C   2,N  21)          123.4794         0.466371   
     42. A(C   1,C   2,O   3)          121.6142         0.425107   
     43. A(C   1,C   2,N  21)          114.8892         0.390320   
     44. A(C   5,C   4,H  11)          109.6279         0.321250   
     45. A(C   1,C   4,H  11)          108.6738         0.318125   
     46. A(C   5,C   4,H  10)          110.1668         0.321819   
     47. A(C   1,C   4,C   5)          114.6797         0.356185   
     48. A(C   1,C   4,H  10)          106.6842         0.318687   
     49. A(H  10,C   4,H  11)          106.6747         0.288655   
     50. A(C   4,C   5,C   6)          112.2486         0.359471   
     51. A(H  12,C   5,H  13)          106.4880         0.288454   
     52. A(C   6,C   5,H  13)          109.4205         0.321199   
     53. A(C   4,C   5,H  13)          109.2337         0.321507   
     54. A(C   6,C   5,H  12)          109.2276         0.321021   
     55. A(C   4,C   5,H  12)          110.0543         0.321328   
     56. A(C   5,C   6,C   7)          112.6322         0.357452   
     57. A(H  14,C   6,H  15)          106.7906         0.288133   
     58. A(C   7,C   6,H  15)          108.6649         0.319623   
     59. A(C   5,C   6,H  15)          109.7452         0.321050   
     60. A(C   7,C   6,H  14)          109.1354         0.319372   
     61. A(C   5,C   6,H  14)          109.6962         0.320797   
     62. A(H  16,C   7,H  17)          106.9045         0.286990   
     63. A(N   8,C   7,H  17)          108.3549         0.328800   
     64. A(C   6,C   7,H  17)          108.2845         0.317899   
     65. A(N   8,C   7,H  16)          108.7382         0.330765   
     66. A(C   6,C   7,H  16)          110.2365         0.319775   
     67. A(C   6,C   7,N   8)          114.0647         0.368507   
     68. A(C   7,N   8,H  18)          106.1283         0.335244   
     69. A(O  23,C  20,C  24)          121.8927         0.430212   
     70. A(N   0,C  20,C  24)          115.7547         0.393855   
     71. A(N   0,C  20,O  23)          122.3500         0.465501   
     72. A(H  22,N  21,C  28)          118.6319         0.337986   
     73. A(C   2,N  21,C  28)          123.2152         0.401543   
     74. A(C   2,N  21,H  22)          118.0680         0.358516   
     75. A(H  26,C  24,H  27)          109.3428         0.289735   
     76. A(H  25,C  24,H  27)          109.2391         0.289712   
     77. A(C  20,C  24,H  27)          113.5464         0.324506   
     78. A(H  25,C  24,H  26)          107.5591         0.289699   
     79. A(C  20,C  24,H  26)          108.4553         0.324491   
     80. A(C  20,C  24,H  25)          108.5251         0.324463   
     81. A(H  29,C  28,H  31)          108.8983         0.289943   
     82. A(N  21,C  28,H  31)          107.7565         0.330412   
     83. A(H  29,C  28,H  30)          109.0893         0.289169   
     84. A(N  21,C  28,H  30)          110.6730         0.329482   
     85. A(H  30,C  28,H  31)          109.2264         0.290066   
     86. A(N  21,C  28,H  29)          111.1531         0.329334   
     87. D(C   4,C   1,N   0,C  20)     81.3152         0.016770   
     88. D(H   9,C   1,N   0,H  19)    130.7864         0.016770   
     89. D(H   9,C   1,N   0,C  20)    -37.4515         0.016770   
     90. D(C   4,C   1,N   0,H  19)   -110.4470         0.016770   
     91. D(C   2,C   1,N   0,H  19)     12.9608         0.016770   
     92. D(C   2,C   1,N   0,C  20)   -155.2770         0.016770   
     93. D(N  21,C   2,C   1,H   9)     48.7189         0.009539   
     94. D(N  21,C   2,C   1,C   4)    -70.2623         0.009539   
     95. D(O   3,C   2,C   1,H   9)   -132.7369         0.009539   
     96. D(O   3,C   2,C   1,C   4)    108.2819         0.009539   
     97. D(N  21,C   2,C   1,N   0)    165.7426         0.009539   
     98. D(O   3,C   2,C   1,N   0)    -15.7132         0.009539   
     99. D(C   5,C   4,C   1,C   2)    -58.1363         0.009459   
    100. D(C   5,C   4,C   1,H   9)   -178.2558         0.009459   
    101. D(C   5,C   4,C   1,N   0)     62.5635         0.009459   
    102. D(H  11,C   4,C   1,H   9)    -55.1953         0.009459   
    103. D(H  11,C   4,C   1,C   2)     64.9242         0.009459   
    104. D(H  10,C   4,C   1,H   9)     59.4809         0.009459   
    105. D(H  10,C   4,C   1,C   2)    179.6004         0.009459   
    106. D(H  10,C   4,C   1,N   0)    -59.6998         0.009459   
    107. D(H  11,C   4,C   1,N   0)   -174.3760         0.009459   
    108. D(H  13,C   5,C   4,H  11)   -178.4289         0.010563   
    109. D(H  13,C   5,C   4,H  10)     64.4729         0.010563   
    110. D(H  13,C   5,C   4,C   1)    -55.8824         0.010563   
    111. D(H  12,C   5,C   4,H  11)    -61.8546         0.010563   
    112. D(H  12,C   5,C   4,H  10)   -178.9528         0.010563   
    113. D(H  12,C   5,C   4,C   1)     60.6919         0.010563   
    114. D(C   6,C   5,C   4,H  11)     60.0233         0.010563   
    115. D(C   6,C   5,C   4,H  10)    -57.0749         0.010563   
    116. D(C   6,C   5,C   4,C   1)   -177.4302         0.010563   
    117. D(C   7,C   6,C   5,C   4)   -179.8777         0.010448   
    118. D(H  15,C   6,C   5,H  12)     63.6714         0.010448   
    119. D(H  15,C   6,C   5,C   4)    -58.6767         0.010448   
    120. D(H  14,C   6,C   5,H  13)    -63.0856         0.010448   
    121. D(H  14,C   6,C   5,H  12)   -179.2967         0.010448   
    122. D(H  14,C   6,C   5,C   4)     58.3552         0.010448   
    123. D(C   7,C   6,C   5,H  13)     58.6814         0.010448   
    124. D(H  15,C   6,C   5,H  13)    179.8825         0.010448   
    125. D(C   7,C   6,C   5,H  12)    -57.5297         0.010448   
    126. D(H  17,C   7,C   6,H  15)    176.9896         0.009934   
    127. D(H  17,C   7,C   6,C   5)    -61.1954         0.009934   
    128. D(H  16,C   7,C   6,H  15)    -66.3825         0.009934   
    129. D(H  16,C   7,C   6,H  14)    177.5168         0.009934   
    130. D(H  16,C   7,C   6,C   5)     55.4325         0.009934   
    131. D(N   8,C   7,C   6,H  15)     56.2741         0.009934   
    132. D(H  17,C   7,C   6,H  14)     60.8889         0.009934   
    133. D(N   8,C   7,C   6,H  14)    -59.8266         0.009934   
    134. D(N   8,C   7,C   6,C   5)    178.0891         0.009934   
    135. D(H  18,N   8,C   7,H  17)    -70.6493         0.015766   
    136. D(H  18,N   8,C   7,H  16)    173.4980         0.015766   
    137. D(H  18,N   8,C   7,C   6)     50.0269         0.015766   
    138. D(C  24,C  20,N   0,H  19)      8.1715         0.029829   
    139. D(C  24,C  20,N   0,C   1)    175.6823         0.029829   
    140. D(O  23,C  20,N   0,H  19)   -172.4118         0.029829   
    141. D(O  23,C  20,N   0,C   1)     -4.9010         0.029829   
    142. D(C  28,N  21,C   2,O   3)      0.1242         0.030650   
    143. D(C  28,N  21,C   2,C   1)    178.6378         0.030650   
    144. D(H  22,N  21,C   2,O   3)    176.7227         0.030650   
    145. D(H  22,N  21,C   2,C   1)     -4.7637         0.030650   
    146. D(H  26,C  24,C  20,O  23)     57.5233         0.010744   
    147. D(H  26,C  24,C  20,N   0)   -123.0571         0.010744   
    148. D(H  25,C  24,C  20,O  23)    -59.0443         0.010744   
    149. D(H  25,C  24,C  20,N   0)    120.3753         0.010744   
    150. D(H  27,C  24,C  20,O  23)    179.2806         0.010744   
    151. D(H  27,C  24,C  20,N   0)     -1.2999         0.010744   
    152. D(H  31,C  28,N  21,H  22)    176.8825         0.016042   
    153. D(H  31,C  28,N  21,C   2)     -6.5372         0.016042   
    154. D(H  30,C  28,N  21,H  22)     57.5154         0.016042   
    155. D(H  30,C  28,N  21,C   2)   -125.9043         0.016042   
    156. D(H  29,C  28,N  21,H  22)    -63.8709         0.016042   
    157. D(H  29,C  28,N  21,C   2)    112.7094         0.016042   
    -----------------------------------------------------------------

Number of atoms                         .... 32
Number of degrees of freedom            .... 157

         *************************************************************
         *                GEOMETRY OPTIMIZATION CYCLE   1            *
         *************************************************************
---------------------------------
CARTESIAN COORDINATES (ANGSTROEM)
---------------------------------
  N     -1.836986    0.779515    0.765584
  C     -1.498665   -0.110725   -0.332220
  C     -1.654939   -1.553918    0.191613
  O     -1.725883   -1.799499    1.397460
  C     -0.075052    0.147253   -0.899573
  C      1.067841   -0.089957    0.101560
  C      2.446202    0.242055   -0.498044
  C      3.602898    0.003656    0.500832
  N      4.920789    0.265334   -0.046681
  H     -2.214114    0.061484   -1.146024
  H     -0.059865    1.184258   -1.251100
  H      0.071386   -0.487277   -1.783633
  H      1.062334   -1.134567    0.438472
  H      0.900346    0.525669    0.993565
  H      2.464339    1.290401   -0.826587
  H      2.620269   -0.372843   -1.390247
  H      3.574967   -1.026974    0.874604
  H      3.450190    0.666620    1.373454
  H      4.869491    1.197353   -0.483288
  H     -1.899344    0.339718    1.675086
  C     -2.282996    2.055130    0.556082
  N     -1.675301   -2.516363   -0.774775
  H     -1.663016   -2.220927   -1.739197
  O     -2.341449    2.556841   -0.567594
  C     -2.692875    2.827868    1.806239
  H     -2.071978    3.724998    1.879298
  H     -3.729910    3.153219    1.687552
  H     -2.598468    2.248344    2.728444
  C     -1.786173   -3.941590   -0.481371
  H     -2.742782   -4.344039   -0.831750
  H     -0.969637   -4.497817   -0.952640
  H     -1.726549   -4.063967    0.600081

----------------------------
CARTESIAN COORDINATES (A.U.)
----------------------------
  NO LB      ZA    FRAG     MASS         X           Y           Z
   0 N     7.0000    0    14.007   -3.471400    1.473069    1.446744
   1 C     6.0000    0    12.011   -2.832066   -0.209241   -0.627805
   2 C     6.0000    0    12.011   -3.127381   -2.936480    0.362097
   3 O     8.0000    0    15.999   -3.261445   -3.400561    2.640817
   4 C     6.0000    0    12.011   -0.141827    0.278267   -1.699946
   5 C     6.0000    0    12.011    2.017928   -0.169994    0.191920
   6 C     6.0000    0    12.011    4.622652    0.457417   -0.941167
   7 C     6.0000    0    12.011    6.808490    0.006909    0.946434
   8 N     7.0000    0    14.007    9.298944    0.501409   -0.088215
   9 H     1.0000    0     1.008   -4.184069    0.116187   -2.165671
  10 H     1.0000    0     1.008   -0.113128    2.237923   -2.364237
  11 H     1.0000    0     1.008    0.134900   -0.920820   -3.370578
  12 H     1.0000    0     1.008    2.007520   -2.144020    0.828592
  13 H     1.0000    0     1.008    1.701408    0.993370    1.877566
  14 H     1.0000    0     1.008    4.656926    2.438504   -1.562023
  15 H     1.0000    0     1.008    4.951591   -0.704572   -2.627186
  16 H     1.0000    0     1.008    6.755709   -1.940700    1.652763
  17 H     1.0000    0     1.008    6.519913    1.259730    2.595453
  18 H     1.0000    0     1.008    9.202005    2.262670   -0.913283
  19 H     1.0000    0     1.008   -3.589239    0.641974    3.165454
  20 C     6.0000    0    12.011   -4.314238    3.883632    1.050844
  21 N     7.0000    0    14.007   -3.165861   -4.755237   -1.464112
  22 H     1.0000    0     1.008   -3.142645   -4.196943   -3.286606
  23 O     8.0000    0    15.999   -4.424698    4.831730   -1.072596
  24 C     6.0000    0    12.011   -5.088796    5.343896    3.413298
  25 H     1.0000    0     1.008   -3.915471    7.039225    3.551358
  26 H     1.0000    0     1.008   -7.048508    5.958721    3.189011
  27 H     1.0000    0     1.008   -4.910393    4.248754    5.156011
  28 C     6.0000    0    12.011   -3.375378   -7.448526   -0.909660
  29 H     1.0000    0     1.008   -5.183108   -8.209044   -1.571780
  30 H     1.0000    0     1.008   -1.832349   -8.499643   -1.800229
  31 H     1.0000    0     1.008   -3.262705   -7.679785    1.133989

--------------------------------
INTERNAL COORDINATES (ANGSTROEM)
--------------------------------
 N      0   0   0     0.000000000000     0.00000000     0.00000000
 C      1   0   0     1.453327938721     0.00000000     0.00000000
 C      2   1   0     1.543252527362   107.02949601     0.00000000
 O      3   2   1     1.232643409675   121.61424409   344.28678276
 C      2   1   3     1.554064066716   112.78869465   236.59221080
 C      5   2   1     1.537771114018   114.67969198    62.56349150
 C      6   5   2     1.539361680090   112.24862629   182.56979048
 C      7   6   5     1.546781313200   112.63216405   180.12226264
 N      8   7   6     1.450890681303   114.06473135   178.08909926
 H      2   1   3     1.097178210163   108.20003844   117.82557210
 H      5   2   1     1.095071733964   106.68424496   300.30020106
 H      5   2   1     1.098013815193   108.67381790   185.62402362
 H      6   5   2     1.097610756228   110.05432918    60.69185063
 H      6   5   2     1.096687542870   109.23368254   304.11755960
 H      7   6   5     1.098771147328   109.69616858    58.35520372
 H      7   6   5     1.097462849033   109.74524940   301.32331321
 H      8   7   6     1.096669959816   110.23649725    55.43247381
 H      8   7   6     1.106486221356   108.28447035   298.80457245
 H      9   8   7     1.030493384585   106.12831130    50.02689428
 H      1   2   3     1.012177528304   115.27298784    12.96080788
 C      1   2   3     1.367483117014   122.11377363   204.72295682
 N      3   2   1     1.364045777696   114.88921360   165.74261927
 H     22   3   2     1.008733867409   118.06799071   355.23626334
 O     21   1   2     1.231981785957   122.34999135   355.09897007
 C     21   1   2     1.525784194058   115.75469436   175.68230543
 H     25  21   1     1.093477263013   108.52512638   120.37525995
 H     25  21   1     1.093334759837   108.45531570   236.94286332
 H     25  21   1     1.093261667042   113.54638313   358.70013078
 C     22   3   2     1.459332461878   123.21518409   178.63782809
 H     29  22   3     1.095368469990   111.15309438   112.70943127
 H     29  22   3     1.094629221006   110.67304382   234.09570736
 H     29  22   3     1.089986179557   107.75654540   353.46280523

---------------------------
INTERNAL COORDINATES (A.U.)
---------------------------
 N      0   0   0     0.000000000000     0.00000000     0.00000000
 C      1   0   0     2.746391786959     0.00000000     0.00000000
 C      2   1   0     2.916324632195   107.02949601     0.00000000
 O      3   2   1     2.329358465069   121.61424409   344.28678276
 C      2   1   3     2.936755480661   112.78869465   236.59221080
 C      5   2   1     2.905966262148   114.67969198    62.56349150
 C      6   5   2     2.908971996422   112.24862629   182.56979048
 C      7   6   5     2.922993071014   112.63216405   180.12226264
 N      8   7   6     2.741786037921   114.06473135   178.08909926
 H      2   1   3     2.073366337315   108.20003844   117.82557210
 H      5   2   1     2.069385674190   106.68424496   300.30020106
 H      5   2   1     2.074945401976   108.67381790   185.62402362
 H      6   5   2     2.074183730916   110.05432918    60.69185063
 H      6   5   2     2.072439110508   109.23368254   304.11755960
 H      7   6   5     2.076376552304   109.69616858    58.35520372
 H      7   6   5     2.073904226826   109.74524940   301.32331321
 H      8   7   6     2.072405883350   110.23649725    55.43247381
 H      8   7   6     2.090955929321   108.28447035   298.80457245
 H      9   8   7     1.947350279683   106.12831130    50.02689428
 H      1   2   3     1.912738327405   115.27298784    12.96080788
 C      1   2   3     2.584168583917   122.11377363   204.72295682
 N      3   2   1     2.577672953977   114.88921360   165.74261927
 H     22   3   2     1.906230751415   118.06799071   355.23626334
 O     21   1   2     2.328108177437   122.34999135   355.09897007
 C     21   1   2     2.883314266235   115.75469436   175.68230543
 H     25  21   1     2.066372560764   108.52512638   120.37525995
 H     25  21   1     2.066103268788   108.45531570   236.94286332
 H     25  21   1     2.065965143424   113.54638313   358.70013078
 C     22   3   2     2.757738691290   123.21518409   178.63782809
 H     29  22   3     2.069946424013   111.15309438   112.70943127
 H     29  22   3     2.068549445888   110.67304382   234.09570736
 H     29  22   3     2.059775369122   107.75654540   353.46280523

---------------------
BASIS SET INFORMATION
---------------------
There are 4 groups of distinct atoms

 Group   1 Type N   : 11s6p2d1f contracted to 5s3p2d1f pattern {62111/411/11/1}
 Group   2 Type C   : 11s6p2d1f contracted to 5s3p2d1f pattern {62111/411/11/1}
 Group   3 Type O   : 11s6p2d1f contracted to 5s3p2d1f pattern {62111/411/11/1}
 Group   4 Type H   : 5s1p contracted to 3s1p pattern {311/1}

Atom   0N    basis set group =>   1
Atom   1C    basis set group =>   2
Atom   2C    basis set group =>   2
Atom   3O    basis set group =>   3
Atom   4C    basis set group =>   2
Atom   5C    basis set group =>   2
Atom   6C    basis set group =>   2
Atom   7C    basis set group =>   2
Atom   8N    basis set group =>   1
Atom   9H    basis set group =>   4
Atom  10H    basis set group =>   4
Atom  11H    basis set group =>   4
Atom  12H    basis set group =>   4
Atom  13H    basis set group =>   4
Atom  14H    basis set group =>   4
Atom  15H    basis set group =>   4
Atom  16H    basis set group =>   4
Atom  17H    basis set group =>   4
Atom  18H    basis set group =>   4
Atom  19H    basis set group =>   4
Atom  20C    basis set group =>   2
Atom  21N    basis set group =>   1
Atom  22H    basis set group =>   4
Atom  23O    basis set group =>   3
Atom  24C    basis set group =>   2
Atom  25H    basis set group =>   4
Atom  26H    basis set group =>   4
Atom  27H    basis set group =>   4
Atom  28C    basis set group =>   2
Atom  29H    basis set group =>   4
Atom  30H    basis set group =>   4
Atom  31H    basis set group =>   4
---------------------------------
AUXILIARY/J BASIS SET INFORMATION
---------------------------------
There are 4 groups of distinct atoms

 Group   1 Type N   : 12s5p4d2f1g contracted to 6s4p3d1f1g pattern {711111/2111/211/2/1}
 Group   2 Type C   : 12s5p4d2f1g contracted to 6s4p3d1f1g pattern {711111/2111/211/2/1}
 Group   3 Type O   : 12s5p4d2f1g contracted to 6s4p3d1f1g pattern {711111/2111/211/2/1}
 Group   4 Type H   : 5s2p1d contracted to 3s1p1d pattern {311/2/1}

Atom   0N    basis set group =>   1
Atom   1C    basis set group =>   2
Atom   2C    basis set group =>   2
Atom   3O    basis set group =>   3
Atom   4C    basis set group =>   2
Atom   5C    basis set group =>   2
Atom   6C    basis set group =>   2
Atom   7C    basis set group =>   2
Atom   8N    basis set group =>   1
Atom   9H    basis set group =>   4
Atom  10H    basis set group =>   4
Atom  11H    basis set group =>   4
Atom  12H    basis set group =>   4
Atom  13H    basis set group =>   4
Atom  14H    basis set group =>   4
Atom  15H    basis set group =>   4
Atom  16H    basis set group =>   4
Atom  17H    basis set group =>   4
Atom  18H    basis set group =>   4
Atom  19H    basis set group =>   4
Atom  20C    basis set group =>   2
Atom  21N    basis set group =>   1
Atom  22H    basis set group =>   4
Atom  23O    basis set group =>   3
Atom  24C    basis set group =>   2
Atom  25H    basis set group =>   4
Atom  26H    basis set group =>   4
Atom  27H    basis set group =>   4
Atom  28C    basis set group =>   2
Atom  29H    basis set group =>   4
Atom  30H    basis set group =>   4
Atom  31H    basis set group =>   4


           ************************************************************
           *        Program running with 16 parallel MPI-processes    *
           *              working on a common directory               *
           ************************************************************
------------------------------------------------------------------------------
                           ORCA GTO INTEGRAL CALCULATION
                           -- RI-GTO INTEGRALS CHOSEN --
------------------------------------------------------------------------------
------------------------------------------------------------------------------
                   ___                                                        
                  /   \      - P O W E R E D   B Y -                         
                 /     \                                                     
                 |  |  |   _    _      __       _____    __    __             
                 |  |  |  | |  | |    /  \     |  _  \  |  |  /  |          
                  \  \/   | |  | |   /    \    | | | |  |  | /  /          
                 / \  \   | |__| |  /  /\  \   | |_| |  |  |/  /          
                |  |  |   |  __  | /  /__\  \  |    /   |      \           
                |  |  |   | |  | | |   __   |  |    \   |  |\   \          
                \     /   | |  | | |  |  |  |  | |\  \  |  | \   \       
                 \___/    |_|  |_| |__|  |__|  |_| \__\ |__|  \__/        
                                                                              
                      - O R C A' S   B I G   F R I E N D -                    
                                      &                                       
                       - I N T E G R A L  F E E D E R -                       
                                                                              
 v1 FN, 2020, v2 2021                                                         
------------------------------------------------------------------------------


Reading SHARK input file freq.SHARKINP.tmp ... ok
----------------------
SHARK INTEGRAL PACKAGE
----------------------

Number of atoms                             ...     32
Number of basis functions                   ...    542
Number of shells                            ...    226
Maximum angular momentum                    ...      3
Integral batch strategy                     ... SHARK/LIBINT Hybrid
RI-J (if used) integral strategy            ... SPLIT-RIJ (Revised 2003 algorithm where possible)
Printlevel                                  ...      1
Contraction scheme used                     ... SEGMENTED contraction
Coulomb Range Separation                    ... NOT USED
Exchange Range Separation                   ... NOT USED
Finite Nucleus Model                        ... NOT USED
Auxiliary Coulomb fitting basis             ... AVAILABLE
   # of basis functions in Aux-J            ...    884
   # of shells in Aux-J                     ...    300
   Maximum angular momentum in Aux-J        ...      4
Auxiliary J/K fitting basis                 ... NOT available
Auxiliary Correlation fitting basis         ... NOT available
Auxiliary 'external' fitting basis          ... NOT available
Integral threshold                          ...     2.500000e-11
Primitive cut-off                           ...     2.500000e-12
Primitive pair pre-selection threshold      ...     2.500000e-12

Calculating pre-screening integrals         ... done (  0.0 sec) Dimension = 226
Organizing shell pair data                  ... done (  0.1 sec)
Shell pair information
Total number of shell pairs                 ...     25651
Shell pairs after pre-screening             ...     19413
Total number of primitive shell pairs       ...     75828
Primitive shell pairs kept                  ...     39943
          la=0 lb=0:   5814 shell pairs
          la=1 lb=0:   5760 shell pairs
          la=1 lb=1:   1471 shell pairs
          la=2 lb=0:   2577 shell pairs
          la=2 lb=1:   1291 shell pairs
          la=2 lb=2:    307 shell pairs
          la=3 lb=0:   1225 shell pairs
          la=3 lb=1:    621 shell pairs
          la=3 lb=2:    276 shell pairs
          la=3 lb=3:     71 shell pairs

Calculating one electron integrals          ... done (  0.0 sec)
Calculating RI/J V-Matrix + Cholesky decomp.... done (  0.0 sec)
Calculating Nuclear repulsion               ... done (  0.0 sec) ENN=    916.981521488375 Eh

SHARK setup successfully completed in   0.4 seconds

Maximum memory used throughout the entire GTOINT-calculation: 31.1 MB


           ************************************************************
           *        Program running with 16 parallel MPI-processes    *
           *              working on a common directory               *
           ************************************************************
-------------------------------------------------------------------------------
                                 ORCA SCF
-------------------------------------------------------------------------------

------------
SCF SETTINGS
------------
Hamiltonian:
 Density Functional     Method          .... DFT(GTOs)
 Exchange Functional    Exchange        .... M062X
 Correlation Functional Correlation     .... M062X
 Gradients option       PostSCFGGA      .... off
 Hybrid DFT is turned on
   Fraction HF Exchange ScalHFX         ....  0.540000
   Scaling of DF-GGA-X  ScalDFX         ....  0.460000
   Scaling of DF-GGA-C  ScalDFC         ....  1.000000
   Scaling of DF-LDA-C  ScalLDAC        ....  1.000000
   Perturbative correction              ....  0.000000
   Density functional embedding theory  .... OFF
 RI-approximation to the Coulomb term is turned on
   Number of AuxJ basis functions       .... 884
   RIJ-COSX (HFX calculated with COS-X)).... on


General Settings:
 Integral files         IntName         .... freq
 Hartree-Fock type      HFTyp           .... UHF
 Total Charge           Charge          ....    0
 Multiplicity           Mult            ....    2
 Number of Electrons    NEL             ....  109
 Basis Dimension        Dim             ....  542
 Nuclear Repulsion      ENuc            ....    916.9815214884 Eh

Convergence Acceleration:
 DIIS                   CNVDIIS         .... on
   Start iteration      DIISMaxIt       ....    12
   Startup error        DIISStart       ....  0.200000
   # of expansion vecs  DIISMaxEq       ....     5
   Bias factor          DIISBfac        ....   1.050
   Max. coefficient     DIISMaxC        ....  10.000
 Trust-Rad. Augm. Hess. CNVTRAH         .... auto
   Auto Start mean grad. ratio tolernc. ....  1.125000
   Auto Start start iteration           ....    20
   Auto Start num. interpolation iter.  ....    10
   Max. Number of Micro iterations      ....    16
   Max. Number of Macro iterations      .... Maxiter - #DIIS iter
   Number of Davidson start vectors     ....     2
   Converg. threshold I  (grad. norm)   ....   1.000e-05
   Converg. threshold II (energy diff.) ....   1.000e-08
   Grad. Scal. Fac. for Micro threshold ....   0.100
   Minimum threshold for Micro iter.    ....   0.010
   NR start threshold (gradient norm)   ....   0.001
   Initial trust radius                 ....   0.400
   Minimum AH scaling param. (alpha)    ....   1.000
   Maximum AH scaling param. (alpha)    .... 1000.000
   Orbital update algorithm             .... Taylor
   White noise on init. David. guess    .... on
   Maximum white noise                  ....   0.010
   Quad. conv. algorithm                .... NR
 SOSCF                  CNVSOSCF        .... off
 Level Shifting         CNVShift        .... on
   Level shift para.    LevelShift      ....    0.2500
   Turn off err/grad.   ShiftErr        ....    0.0010
 Zerner damping         CNVZerner       .... off
 Static damping         CNVDamp         .... on
   Fraction old density DampFac         ....    0.7000
   Max. Damping (<1)    DampMax         ....    0.9800
   Min. Damping (>=0)   DampMin         ....    0.0000
   Turn off err/grad.   DampErr         ....    0.1000
 Fernandez-Rico         CNVRico         .... off

SCF Procedure:
 Maximum # iterations   MaxIter         ....   125
 SCF integral mode      SCFMode         .... Direct
   Integral package                     .... SHARK and LIBINT hybrid scheme
 Reset frequency        DirectResetFreq ....    20
 Integral Threshold     Thresh          ....  2.500e-11 Eh
 Primitive CutOff       TCut            ....  2.500e-12 Eh

Convergence Tolerance:
 Convergence Check Mode ConvCheckMode   .... Total+1el-Energy
 Convergence forced     ConvForced      .... 0
 Energy Change          TolE            ....  1.000e-08 Eh
 1-El. energy change                    ....  1.000e-05 Eh
 DIIS Error             TolErr          ....  5.000e-07


Diagonalization of the overlap matrix:
Smallest eigenvalue                        ... 5.928e-05
Time for diagonalization                   ...    0.035 sec
Threshold for overlap eigenvalues          ... 1.000e-08
Number of eigenvalues below threshold      ... 0
Time for construction of square roots      ...    0.024 sec
Total time needed                          ...    0.060 sec

Time for model grid setup =    0.106 sec

------------------------------
INITIAL GUESS: MODEL POTENTIAL
------------------------------
Loading Hartree-Fock densities                     ... done
Calculating cut-offs                               ... done
Initializing the effective Hamiltonian             ... done
Setting up the integral package (SHARK)            ... done
Starting the Coulomb interaction                   ... done (   0.1 sec)
Reading the grid                                   ... done
Mapping shells                                     ... done
Starting the XC term evaluation                    ... done (   0.1 sec)
  promolecular density results
     # of electrons  =    108.988331436
     EX              =    -87.205295986
     EC              =     -3.611058541
     EX+EC           =    -90.816354527
Transforming the Hamiltonian                       ... done (   0.0 sec)
Diagonalizing the Hamiltonian                      ... done (   0.0 sec)
Back transforming the eigenvectors                 ... done (   0.0 sec)
Now organizing SCF variables                       ... done
                      ------------------
                      INITIAL GUESS DONE (   0.4 sec)
                      ------------------
-------------------
DFT GRID GENERATION
-------------------

General Integration Accuracy     IntAcc      ... 4.388
Radial Grid Type                 RadialGrid  ... OptM3 with GC (2021)
Angular Grid (max. ang.)         AngularGrid ... 4 (Lebedev-302)
Angular grid pruning method      GridPruning ... 4 (adaptive)
Weight generation scheme         WeightScheme... Becke
Basis function cutoff            BFCut       ... 1.0000e-11
Integration weight cutoff        WCut        ... 1.0000e-14
Angular grids for H and He will be reduced by one unit
Partially contracted basis set               ... off
Rotationally invariant grid construction     ... off

Total number of grid points                  ...   141535
Total number of batches                      ...     2230
Average number of points per batch           ...       63
Average number of grid points per atom       ...     4423
Time for grid setup =    0.611 sec

--------------------
COSX GRID GENERATION
--------------------

GRIDX 1
-------
General Integration Accuracy     IntAcc      ... 3.816
Radial Grid Type                 RadialGrid  ... OptM3 with GC (2021)
Angular Grid (max. ang.)         AngularGrid ... 1 (Lebedev-50)
Angular grid pruning method      GridPruning ... 4 (adaptive)
Weight generation scheme         WeightScheme... Becke
Basis function cutoff            BFCut       ... 1.0000e-11
Integration weight cutoff        WCut        ... 1.0000e-14
Angular grids for H and He will be reduced by one unit
Partially contracted basis set               ... on
Rotationally invariant grid construction     ... off

Total number of grid points                  ...    18066
Total number of batches                      ...      302
Average number of points per batch           ...       59
Average number of grid points per atom       ...      565
UseSFitting                                  ... on

GRIDX 2
-------
General Integration Accuracy     IntAcc      ... 4.020
Radial Grid Type                 RadialGrid  ... OptM3 with GC (2021)
Angular Grid (max. ang.)         AngularGrid ... 2 (Lebedev-110)
Angular grid pruning method      GridPruning ... 4 (adaptive)
Weight generation scheme         WeightScheme... Becke
Basis function cutoff            BFCut       ... 1.0000e-11
Integration weight cutoff        WCut        ... 1.0000e-14
Angular grids for H and He will be reduced by one unit
Partially contracted basis set               ... on
Rotationally invariant grid construction     ... off

Total number of grid points                  ...    38305
Total number of batches                      ...      616
Average number of points per batch           ...       62
Average number of grid points per atom       ...     1197
UseSFitting                                  ... on

GRIDX 3
-------
General Integration Accuracy     IntAcc      ... 4.338
Radial Grid Type                 RadialGrid  ... OptM3 with GC (2021)
Angular Grid (max. ang.)         AngularGrid ... 3 (Lebedev-194)
Angular grid pruning method      GridPruning ... 4 (adaptive)
Weight generation scheme         WeightScheme... Becke
Basis function cutoff            BFCut       ... 1.0000e-11
Integration weight cutoff        WCut        ... 1.0000e-14
Angular grids for H and He will be reduced by one unit
Partially contracted basis set               ... on
Rotationally invariant grid construction     ... off

Total number of grid points                  ...    83443
Total number of batches                      ...     1318
Average number of points per batch           ...       63
Average number of grid points per atom       ...     2608
UseSFitting                                  ... on

Time for X-Grid setup             =    0.822 sec

--------------
SCF ITERATIONS
--------------
ITER       Energy         Delta-E        Max-DP      RMS-DP      [F,P]     Damp
               ***  Starting incremental Fock matrix formation  ***
  0   -667.9485333893   0.000000000000 0.05141394  0.00044920  0.1515731 0.7000
  1   -668.1613291871  -0.212795797795 0.04558884  0.00036098  0.0722981 0.7000
                               ***Turning on DIIS***
  2   -668.2570436052  -0.095714418106 0.07284090  0.00068334  0.0260129 0.0000
  3   -668.4094604185  -0.152416813259 0.03395379  0.00025455  0.0356281 0.0000
  4   -668.4378179734  -0.028357554909 0.00481512  0.00007564  0.0063044 0.0000
  5   -668.4389431755  -0.001125202106 0.00283690  0.00003398  0.0037907 0.0000
  6   -668.4392229901  -0.000279814562 0.00170263  0.00001757  0.0019608 0.0000
  7   -668.4392920994  -0.000069109344 0.00112497  0.00001004  0.0011675 0.0000
  8   -668.4393188397  -0.000026740245 0.00116292  0.00000853  0.0006244 0.0000
               *** Restarting incremental Fock matrix formation ***
                                   *** Resetting DIIS ***
  9   -668.4393651761  -0.000046336483 0.00142144  0.00000867  0.0002562 0.0000
 10   -668.4393669051  -0.000001728923 0.00007935  0.00000107  0.0001911 0.0000
 11   -668.4393676982  -0.000000793171 0.00016426  0.00000150  0.0001766 0.0000
 12   -668.4393685961  -0.000000897885 0.00015597  0.00000133  0.0001285 0.0000
 13   -668.4393691730  -0.000000576833 0.00015487  0.00000128  0.0000774 0.0000
 14   -668.4393694687  -0.000000295788 0.00005443  0.00000046  0.0000295 0.0000
 15   -668.4393695073  -0.000000038573 0.00002306  0.00000020  0.0000119 0.0000
 16   -668.4393695167  -0.000000009331 0.00000657  0.00000007  0.0000037 0.0000
                 **** Energy Check signals convergence ****

               *****************************************************
               *                     SUCCESS                       *
               *           SCF CONVERGED AFTER  17 CYCLES          *
               *****************************************************

Old exchange energy                            =    -48.238780840 Eh
New exchange energy                            =    -48.238803686 Eh
Exchange energy change after final integration =     -0.000022846 Eh
Total energy after final integration           =   -668.439392355 Eh
Final COS-X integration done in                =     4.735 sec

----------------
TOTAL SCF ENERGY
----------------

Total Energy       :         -668.43939235 Eh          -18189.16059 eV

Components:
Nuclear Repulsion  :          916.98152149 Eh           24952.33575 eV
Electronic Energy  :        -1585.42091384 Eh          -43141.49634 eV
One Electron Energy:        -2727.24363766 Eh          -74212.07225 eV
Two Electron Energy:         1141.82272381 Eh           31070.57591 eV
Max COSX asymmetry :            0.00000104 Eh               0.00003 eV

Virial components:
Potential Energy   :        -1333.22228927 Eh          -36278.82287 eV
Kinetic Energy     :          664.78289692 Eh           18089.66229 eV
Virial Ratio       :            2.00550029


DFT components:
N(Alpha)           :       55.000092445030 electrons
N(Beta)            :       54.000096629291 electrons
N(Total)           :      109.000189074321 electrons
E(XC)              :      -44.988190359652 Eh       
DFET-embed. en.    :        0.000000000000 Eh       

---------------
SCF CONVERGENCE
---------------

  Last Energy change         ...    8.2543e-09  Tolerance :   1.0000e-08
  Last MAX-Density change    ...    0.0000e+00  Tolerance :   1.0000e-07
  Last RMS-Density change    ...    0.0000e+00  Tolerance :   5.0000e-09
  Last DIIS Error            ...    2.3780e-06  Tolerance :   5.0000e-07

             **** THE GBW FILE WAS UPDATED (freq.gbw) ****
             **** DENSITY freq.scfp WAS UPDATED ****
             **** ENERGY FILE WAS UPDATED (freq.en.tmp) ****
----------------------
UHF SPIN CONTAMINATION
----------------------

Warning: in a DFT calculation there is little theoretical justification to 
         calculate <S**2> as in Hartree-Fock theory. We will do it anyways
         but you should keep in mind that the values have only limited relevance

Expectation value of <S**2>     :     0.754323
Ideal value S*(S+1) for S=0.5   :     0.750000
Deviation                       :     0.004323

             **** THE GBW FILE WAS UPDATED (freq.gbw) ****
             **** DENSITY freq.scfp WAS UPDATED ****
----------------
ORBITAL ENERGIES
----------------
                 SPIN UP ORBITALS
  NO   OCC          E(Eh)            E(eV) 
   0   1.0000     -19.612032      -533.6705 
   1   1.0000     -19.589580      -533.0596 
   2   1.0000     -14.793488      -402.5513 
   3   1.0000     -14.772559      -401.9818 
   4   1.0000     -14.762980      -401.7211 
   5   1.0000     -10.662692      -290.1466 
   6   1.0000     -10.646511      -289.7063 
   7   1.0000     -10.599313      -288.4220 
   8   1.0000     -10.583568      -287.9935 
   9   1.0000     -10.565618      -287.5051 
  10   1.0000     -10.550968      -287.1064 
  11   1.0000     -10.547012      -286.9988 
  12   1.0000     -10.543785      -286.9110 
  13   1.0000     -10.543283      -286.8973 
  14   1.0000      -1.175052       -31.9748 
  15   1.0000      -1.151886       -31.3444 
  16   1.0000      -1.047414       -28.5016 
  17   1.0000      -1.033754       -28.1299 
  18   1.0000      -0.994437       -27.0600 
  19   1.0000      -0.909292       -24.7431 
  20   1.0000      -0.864857       -23.5340 
  21   1.0000      -0.828196       -22.5364 
  22   1.0000      -0.809864       -22.0375 
  23   1.0000      -0.761542       -20.7226 
  24   1.0000      -0.709027       -19.2936 
  25   1.0000      -0.685914       -18.6647 
  26   1.0000      -0.683951       -18.6113 
  27   1.0000      -0.652456       -17.7542 
  28   1.0000      -0.622087       -16.9278 
  29   1.0000      -0.568642       -15.4735 
  30   1.0000      -0.566489       -15.4150 
  31   1.0000      -0.554165       -15.0796 
  32   1.0000      -0.551664       -15.0115 
  33   1.0000      -0.541082       -14.7236 
  34   1.0000      -0.529053       -14.3963 
  35   1.0000      -0.520835       -14.1727 
  36   1.0000      -0.509542       -13.8653 
  37   1.0000      -0.504909       -13.7393 
  38   1.0000      -0.483096       -13.1457 
  39   1.0000      -0.478904       -13.0316 
  40   1.0000      -0.472415       -12.8551 
  41   1.0000      -0.467984       -12.7345 
  42   1.0000      -0.465165       -12.6578 
  43   1.0000      -0.450080       -12.2473 
  44   1.0000      -0.439658       -11.9637 
  45   1.0000      -0.436681       -11.8827 
  46   1.0000      -0.412917       -11.2360 
  47   1.0000      -0.409653       -11.1472 
  48   1.0000      -0.402234       -10.9454 
  49   1.0000      -0.355921        -9.6851 
  50   1.0000      -0.351915        -9.5761 
  51   1.0000      -0.341443        -9.2911 
  52   1.0000      -0.332703        -9.0533 
  53   1.0000      -0.331049        -9.0083 
  54   1.0000      -0.318162        -8.6576 
  55   0.0000       0.035757         0.9730 
  56   0.0000       0.045318         1.2332 
  57   0.0000       0.059206         1.6111 
  58   0.0000       0.062364         1.6970 
  59   0.0000       0.070247         1.9115 
  60   0.0000       0.080443         2.1890 
  61   0.0000       0.089662         2.4398 
  62   0.0000       0.099651         2.7116 
  63   0.0000       0.106605         2.9009 
  64   0.0000       0.112773         3.0687 
  65   0.0000       0.119284         3.2459 
  66   0.0000       0.132206         3.5975 
  67   0.0000       0.135692         3.6924 
  68   0.0000       0.143627         3.9083 
  69   0.0000       0.147328         4.0090 
  70   0.0000       0.152678         4.1546 
  71   0.0000       0.157108         4.2751 
  72   0.0000       0.158443         4.3114 
  73   0.0000       0.161455         4.3934 
  74   0.0000       0.168795         4.5931 
  75   0.0000       0.178563         4.8589 
  76   0.0000       0.182511         4.9664 
  77   0.0000       0.189720         5.1626 
  78   0.0000       0.194046         5.2803 
  79   0.0000       0.206667         5.6237 
  80   0.0000       0.215945         5.8762 
  81   0.0000       0.221320         6.0224 
  82   0.0000       0.228745         6.2245 
  83   0.0000       0.234499         6.3810 
  84   0.0000       0.241291         6.5659 
  85   0.0000       0.251983         6.8568 
  86   0.0000       0.254752         6.9322 
  87   0.0000       0.256702         6.9852 
  88   0.0000       0.262154         7.1336 
  89   0.0000       0.281087         7.6488 
  90   0.0000       0.286689         7.8012 
  91   0.0000       0.292535         7.9603 
  92   0.0000       0.298734         8.1290 
  93   0.0000       0.308391         8.3917 
  94   0.0000       0.314711         8.5637 
  95   0.0000       0.319456         8.6928 
  96   0.0000       0.333211         9.0671 
  97   0.0000       0.344130         9.3642 
  98   0.0000       0.346544         9.4299 
  99   0.0000       0.360177         9.8009 
 100   0.0000       0.363994         9.9048 
 101   0.0000       0.374185        10.1821 
 102   0.0000       0.384343        10.4585 
 103   0.0000       0.389459        10.5977 
 104   0.0000       0.395857        10.7718 
 105   0.0000       0.403618        10.9830 
 106   0.0000       0.409719        11.1490 
 107   0.0000       0.410829        11.1792 
 108   0.0000       0.423098        11.5131 
 109   0.0000       0.426252        11.5989 
 110   0.0000       0.436252        11.8710 
 111   0.0000       0.437903        11.9159 
 112   0.0000       0.442868        12.0511 
 113   0.0000       0.448510        12.2046 
 114   0.0000       0.452008        12.2998 
 115   0.0000       0.456114        12.4115 
 116   0.0000       0.459245        12.4967 
 117   0.0000       0.464285        12.6338 
 118   0.0000       0.466781        12.7017 
 119   0.0000       0.471966        12.8428 
 120   0.0000       0.478968        13.0334 
 121   0.0000       0.485793        13.2191 
 122   0.0000       0.489520        13.3205 
 123   0.0000       0.495856        13.4929 
 124   0.0000       0.500453        13.6180 
 125   0.0000       0.503077        13.6894 
 126   0.0000       0.507395        13.8069 
 127   0.0000       0.514613        14.0033 
 128   0.0000       0.517076        14.0704 
 129   0.0000       0.526031        14.3140 
 130   0.0000       0.531711        14.4686 
 131   0.0000       0.539830        14.6895 
 132   0.0000       0.547428        14.8963 
 133   0.0000       0.551345        15.0029 
 134   0.0000       0.554697        15.0941 
 135   0.0000       0.569108        15.4862 
 136   0.0000       0.571617        15.5545 
 137   0.0000       0.588899        16.0247 
 138   0.0000       0.589841        16.0504 
 139   0.0000       0.599213        16.3054 
 140   0.0000       0.608039        16.5456 
 141   0.0000       0.608591        16.5606 
 142   0.0000       0.612687        16.6721 
 143   0.0000       0.616183        16.7672 
 144   0.0000       0.621881        16.9222 
 145   0.0000       0.630168        17.1477 
 146   0.0000       0.640296        17.4233 
 147   0.0000       0.646507        17.5924 
 148   0.0000       0.648702        17.6521 
 149   0.0000       0.660037        17.9605 
 150   0.0000       0.677298        18.4302 
 151   0.0000       0.681906        18.5556 
 152   0.0000       0.714905        19.4536 
 153   0.0000       0.729141        19.8409 
 154   0.0000       0.742844        20.2138 
 155   0.0000       0.755175        20.5494 
 156   0.0000       0.768820        20.9206 
 157   0.0000       0.777874        21.1670 
 158   0.0000       0.794404        21.6168 
 159   0.0000       0.800439        21.7811 
 160   0.0000       0.817247        22.2384 
 161   0.0000       0.827453        22.5162 
 162   0.0000       0.841037        22.8858 
 163   0.0000       0.854145        23.2425 
 164   0.0000       0.856783        23.3142 
 165   0.0000       0.867753        23.6127 
 166   0.0000       0.875657        23.8278 
 167   0.0000       0.890647        24.2357 
 168   0.0000       0.903472        24.5847 
 169   0.0000       0.909504        24.7488 
 170   0.0000       0.916619        24.9425 
 171   0.0000       0.925187        25.1756 
 172   0.0000       0.934481        25.4285 
 173   0.0000       0.957874        26.0651 
 174   0.0000       0.972445        26.4616 
 175   0.0000       0.976346        26.5677 
 176   0.0000       0.988340        26.8941 
 177   0.0000       1.006383        27.3851 
 178   0.0000       1.011347        27.5201 
 179   0.0000       1.024288        27.8723 
 180   0.0000       1.036672        28.2093 
 181   0.0000       1.042189        28.3594 
 182   0.0000       1.048831        28.5401 
 183   0.0000       1.072873        29.1944 
 184   0.0000       1.078953        29.3598 
 185   0.0000       1.090906        29.6851 
 186   0.0000       1.102845        30.0099 
 187   0.0000       1.120803        30.4986 
 188   0.0000       1.125413        30.6240 
 189   0.0000       1.147343        31.2208 
 190   0.0000       1.152682        31.3661 
 191   0.0000       1.156709        31.4756 
 192   0.0000       1.179220        32.0882 
 193   0.0000       1.191407        32.4198 
 194   0.0000       1.197881        32.5960 
 195   0.0000       1.205463        32.8023 
 196   0.0000       1.230608        33.4865 
 197   0.0000       1.239223        33.7210 
 198   0.0000       1.254922        34.1482 
 199   0.0000       1.275144        34.6984 
 200   0.0000       1.289656        35.0933 
 201   0.0000       1.307611        35.5819 
 202   0.0000       1.312600        35.7177 
 203   0.0000       1.327805        36.1314 
 204   0.0000       1.336874        36.3782 
 205   0.0000       1.357359        36.9356 
 206   0.0000       1.374823        37.4108 
 207   0.0000       1.381839        37.6017 
 208   0.0000       1.384520        37.6747 
 209   0.0000       1.396671        38.0053 
 210   0.0000       1.408364        38.3235 
 211   0.0000       1.426062        38.8051 
 212   0.0000       1.449847        39.4524 
 213   0.0000       1.470148        40.0048 
 214   0.0000       1.471308        40.0363 
 215   0.0000       1.475363        40.1467 
 216   0.0000       1.494380        40.6641 
 217   0.0000       1.509261        41.0691 
 218   0.0000       1.522030        41.4165 
 219   0.0000       1.531546        41.6755 
 220   0.0000       1.544298        42.0225 
 221   0.0000       1.548468        42.1360 
 222   0.0000       1.553134        42.2629 
 223   0.0000       1.556906        42.3656 
 224   0.0000       1.559576        42.4382 
 225   0.0000       1.565306        42.5941 
 226   0.0000       1.577530        42.9268 
 227   0.0000       1.586268        43.1645 
 228   0.0000       1.590166        43.2706 
 229   0.0000       1.594380        43.3853 
 230   0.0000       1.612696        43.8837 
 231   0.0000       1.616085        43.9759 
 232   0.0000       1.629986        44.3542 
 233   0.0000       1.633292        44.4441 
 234   0.0000       1.642629        44.6982 
 235   0.0000       1.647424        44.8287 
 236   0.0000       1.668174        45.3933 
 237   0.0000       1.675674        45.5974 
 238   0.0000       1.680652        45.7329 
 239   0.0000       1.689658        45.9779 
 240   0.0000       1.717438        46.7339 
 241   0.0000       1.719754        46.7969 
 242   0.0000       1.754748        47.7491 
 243   0.0000       1.759503        47.8785 
 244   0.0000       1.770426        48.1757 
 245   0.0000       1.772322        48.2273 
 246   0.0000       1.798161        48.9304 
 247   0.0000       1.801169        49.0123 
 248   0.0000       1.818753        49.4908 
 249   0.0000       1.838411        50.0257 
 250   0.0000       1.851074        50.3703 
 251   0.0000       1.854473        50.4628 
 252   0.0000       1.862998        50.6948 
 253   0.0000       1.881226        51.1908 
 254   0.0000       1.885998        51.3206 
 255   0.0000       1.894672        51.5566 
 256   0.0000       1.906041        51.8660 
 257   0.0000       1.911573        52.0165 
 258   0.0000       1.922507        52.3141 
 259   0.0000       1.924886        52.3788 
 260   0.0000       1.941575        52.8329 
 261   0.0000       1.950690        53.0810 
 262   0.0000       1.964168        53.4477 
 263   0.0000       1.971117        53.6368 
 264   0.0000       1.975630        53.7596 
 265   0.0000       1.988500        54.1098 
 266   0.0000       2.003993        54.5314 
 267   0.0000       2.009436        54.6795 
 268   0.0000       2.014832        54.8264 
 269   0.0000       2.026282        55.1379 
 270   0.0000       2.033978        55.3474 
 271   0.0000       2.042336        55.5748 
 272   0.0000       2.051628        55.8276 
 273   0.0000       2.055968        55.9457 
 274   0.0000       2.070808        56.3495 
 275   0.0000       2.084959        56.7346 
 276   0.0000       2.106809        57.3292 
 277   0.0000       2.126855        57.8747 
 278   0.0000       2.152527        58.5732 
 279   0.0000       2.154183        58.6183 
 280   0.0000       2.168374        59.0045 
 281   0.0000       2.183004        59.4026 
 282   0.0000       2.208950        60.1086 
 283   0.0000       2.215846        60.2962 
 284   0.0000       2.225102        60.5481 
 285   0.0000       2.234832        60.8129 
 286   0.0000       2.258169        61.4479 
 287   0.0000       2.280997        62.0691 
 288   0.0000       2.285257        62.1850 
 289   0.0000       2.291468        62.3540 
 290   0.0000       2.299564        62.5743 
 291   0.0000       2.315908        63.0191 
 292   0.0000       2.321484        63.1708 
 293   0.0000       2.327211        63.3266 
 294   0.0000       2.334943        63.5370 
 295   0.0000       2.344984        63.8103 
 296   0.0000       2.363372        64.3106 
 297   0.0000       2.371436        64.5300 
 298   0.0000       2.378594        64.7248 
 299   0.0000       2.390296        65.0433 
 300   0.0000       2.395972        65.1977 
 301   0.0000       2.412323        65.6426 
 302   0.0000       2.425506        66.0014 
 303   0.0000       2.438016        66.3418 
 304   0.0000       2.449820        66.6630 
 305   0.0000       2.459732        66.9327 
 306   0.0000       2.465815        67.0982 
 307   0.0000       2.474790        67.3425 
 308   0.0000       2.489592        67.7452 
 309   0.0000       2.505089        68.1670 
 310   0.0000       2.509473        68.2862 
 311   0.0000       2.523287        68.6621 
 312   0.0000       2.533723        68.9461 
 313   0.0000       2.541226        69.1503 
 314   0.0000       2.550284        69.3968 
 315   0.0000       2.558964        69.6330 
 316   0.0000       2.567081        69.8538 
 317   0.0000       2.574313        70.0506 
 318   0.0000       2.579937        70.2036 
 319   0.0000       2.584053        70.3157 
 320   0.0000       2.608531        70.9817 
 321   0.0000       2.618263        71.2466 
 322   0.0000       2.625437        71.4418 
 323   0.0000       2.632476        71.6333 
 324   0.0000       2.644007        71.9471 
 325   0.0000       2.653786        72.2132 
 326   0.0000       2.664776        72.5122 
 327   0.0000       2.671332        72.6907 
 328   0.0000       2.677156        72.8491 
 329   0.0000       2.685009        73.0628 
 330   0.0000       2.701405        73.5090 
 331   0.0000       2.715841        73.9018 
 332   0.0000       2.723621        74.1135 
 333   0.0000       2.734686        74.4146 
 334   0.0000       2.741590        74.6025 
 335   0.0000       2.755425        74.9789 
 336   0.0000       2.764146        75.2162 
 337   0.0000       2.767469        75.3067 
 338   0.0000       2.777606        75.5825 
 339   0.0000       2.788360        75.8751 
 340   0.0000       2.812402        76.5294 
 341   0.0000       2.815563        76.6154 
 342   0.0000       2.838801        77.2477 
 343   0.0000       2.854530        77.6757 
 344   0.0000       2.878290        78.3222 
 345   0.0000       2.901836        78.9630 
 346   0.0000       2.914666        79.3121 
 347   0.0000       2.943237        80.0895 
 348   0.0000       2.948333        80.2282 
 349   0.0000       2.965557        80.6969 
 350   0.0000       2.978804        81.0574 
 351   0.0000       2.992957        81.4425 
 352   0.0000       2.999331        81.6159 
 353   0.0000       3.009892        81.9033 
 354   0.0000       3.012568        81.9761 
 355   0.0000       3.025428        82.3261 
 356   0.0000       3.046481        82.8990 
 357   0.0000       3.057703        83.2043 
 358   0.0000       3.063627        83.3655 
 359   0.0000       3.086409        83.9854 
 360   0.0000       3.096892        84.2707 
 361   0.0000       3.104709        84.4834 
 362   0.0000       3.120051        84.9009 
 363   0.0000       3.130196        85.1770 
 364   0.0000       3.139885        85.4406 
 365   0.0000       3.150999        85.7430 
 366   0.0000       3.161603        86.0316 
 367   0.0000       3.162872        86.0661 
 368   0.0000       3.171464        86.2999 
 369   0.0000       3.186938        86.7210 
 370   0.0000       3.192680        86.8772 
 371   0.0000       3.203171        87.1627 
 372   0.0000       3.210920        87.3736 
 373   0.0000       3.221774        87.6689 
 374   0.0000       3.232297        87.9553 
 375   0.0000       3.245111        88.3039 
 376   0.0000       3.250471        88.4498 
 377   0.0000       3.259500        88.6955 
 378   0.0000       3.273362        89.0727 
 379   0.0000       3.278412        89.2101 
 380   0.0000       3.287980        89.4705 
 381   0.0000       3.290531        89.5399 
 382   0.0000       3.304356        89.9161 
 383   0.0000       3.313591        90.1674 
 384   0.0000       3.319836        90.3373 
 385   0.0000       3.326700        90.5241 
 386   0.0000       3.330166        90.6184 
 387   0.0000       3.348221        91.1097 
 388   0.0000       3.356760        91.3421 
 389   0.0000       3.362331        91.4937 
 390   0.0000       3.374737        91.8313 
 391   0.0000       3.380662        91.9925 
 392   0.0000       3.396305        92.4182 
 393   0.0000       3.397037        92.4381 
 394   0.0000       3.410199        92.7962 
 395   0.0000       3.411762        92.8388 
 396   0.0000       3.425427        93.2106 
 397   0.0000       3.437388        93.5361 
 398   0.0000       3.442828        93.6841 
 399   0.0000       3.450444        93.8914 
 400   0.0000       3.461035        94.1795 
 401   0.0000       3.480424        94.7072 
 402   0.0000       3.487673        94.9044 
 403   0.0000       3.501211        95.2728 
 404   0.0000       3.503880        95.3454 
 405   0.0000       3.519748        95.7772 
 406   0.0000       3.534126        96.1685 
 407   0.0000       3.542675        96.4011 
 408   0.0000       3.552401        96.6657 
 409   0.0000       3.562821        96.9493 
 410   0.0000       3.570953        97.1706 
 411   0.0000       3.581746        97.4643 
 412   0.0000       3.606407        98.1353 
 413   0.0000       3.647579        99.2557 
 414   0.0000       3.656391        99.4955 
 415   0.0000       3.669903        99.8631 
 416   0.0000       3.714515       101.0771 
 417   0.0000       3.722548       101.2957 
 418   0.0000       3.744176       101.8842 
 419   0.0000       3.761648       102.3596 
 420   0.0000       3.769749       102.5801 
 421   0.0000       3.785407       103.0062 
 422   0.0000       3.792400       103.1965 
 423   0.0000       3.813651       103.7747 
 424   0.0000       3.830516       104.2336 
 425   0.0000       3.838046       104.4385 
 426   0.0000       3.856470       104.9399 
 427   0.0000       3.865298       105.1801 
 428   0.0000       3.867164       105.2309 
 429   0.0000       3.893386       105.9444 
 430   0.0000       3.904917       106.2582 
 431   0.0000       3.925017       106.8051 
 432   0.0000       3.943989       107.3214 
 433   0.0000       3.972887       108.1078 
 434   0.0000       3.988286       108.5268 
 435   0.0000       4.012926       109.1973 
 436   0.0000       4.030387       109.6724 
 437   0.0000       4.053029       110.2885 
 438   0.0000       4.070223       110.7564 
 439   0.0000       4.099444       111.5515 
 440   0.0000       4.121212       112.1439 
 441   0.0000       4.135345       112.5285 
 442   0.0000       4.139513       112.6419 
 443   0.0000       4.145163       112.7956 
 444   0.0000       4.165868       113.3590 
 445   0.0000       4.183546       113.8401 
 446   0.0000       4.217813       114.7725 
 447   0.0000       4.233122       115.1891 
 448   0.0000       4.279824       116.4599 
 449   0.0000       4.305611       117.1616 
 450   0.0000       4.318926       117.5239 
 451   0.0000       4.329691       117.8169 
 452   0.0000       4.353201       118.4566 
 453   0.0000       4.371252       118.9478 
 454   0.0000       4.391867       119.5088 
 455   0.0000       4.395645       119.6116 
 456   0.0000       4.422769       120.3497 
 457   0.0000       4.442711       120.8923 
 458   0.0000       4.479992       121.9068 
 459   0.0000       4.484928       122.0411 
 460   0.0000       4.506967       122.6408 
 461   0.0000       4.518192       122.9463 
 462   0.0000       4.539532       123.5270 
 463   0.0000       4.554817       123.9429 
 464   0.0000       4.568189       124.3067 
 465   0.0000       4.590120       124.9035 
 466   0.0000       4.629310       125.9699 
 467   0.0000       4.639321       126.2423 
 468   0.0000       4.653753       126.6350 
 469   0.0000       4.680291       127.3572 
 470   0.0000       4.708000       128.1112 
 471   0.0000       4.736974       128.8996 
 472   0.0000       4.753669       129.3539 
 473   0.0000       4.771560       129.8407 
 474   0.0000       4.775006       129.9345 
 475   0.0000       4.799747       130.6078 
 476   0.0000       4.805121       130.7540 
 477   0.0000       4.830929       131.4563 
 478   0.0000       4.868016       132.4655 
 479   0.0000       4.953795       134.7996 
 480   0.0000       4.987254       135.7101 
 481   0.0000       4.996679       135.9666 
 482   0.0000       5.014632       136.4551 
 483   0.0000       5.025899       136.7617 
 484   0.0000       5.039924       137.1433 
 485   0.0000       5.049462       137.4028 
 486   0.0000       5.097756       138.7170 
 487   0.0000       5.103904       138.8843 
 488   0.0000       5.115635       139.2035 
 489   0.0000       5.174609       140.8083 
 490   0.0000       5.191080       141.2565 
 491   0.0000       5.196069       141.3922 
 492   0.0000       5.218365       141.9989 
 493   0.0000       5.234006       142.4246 
 494   0.0000       5.261551       143.1741 
 495   0.0000       5.266391       143.3058 
 496   0.0000       5.280534       143.6906 
 497   0.0000       5.296703       144.1306 
 498   0.0000       5.302909       144.2995 
 499   0.0000       5.351534       145.6227 
 500   0.0000       5.422361       147.5499 
 501   0.0000       5.435243       147.9005 
 502   0.0000       5.480131       149.1220 
 503   0.0000       5.526536       150.3847 
 504   0.0000       5.579214       151.8181 
 505   0.0000       5.587507       152.0438 
 506   0.0000       5.644975       153.6076 
 507   0.0000       5.669874       154.2851 
 508   0.0000       5.719092       155.6244 
 509   0.0000       5.767414       156.9393 
 510   0.0000       5.885106       160.1419 
 511   0.0000       5.901652       160.5921 
 512   0.0000       6.082567       165.5151 
 513   0.0000       6.106689       166.1715 
 514   0.0000       6.294856       171.2917 
 515   0.0000       6.299781       171.4257 
 516   0.0000       6.414856       174.5571 
 517   0.0000       6.421740       174.7444 
 518   0.0000       6.545283       178.1062 
 519   0.0000       6.556079       178.4000 
 520   0.0000       6.647897       180.8985 
 521   0.0000       6.658127       181.1769 
 522   0.0000       6.824873       185.7142 
 523   0.0000       6.830942       185.8794 
 524   0.0000       7.043533       191.6643 
 525   0.0000       7.065961       192.2746 
 526   0.0000       7.075383       192.5309 
 527   0.0000       7.096213       193.0978 
 528   0.0000      22.400127       609.5384 
 529   0.0000      22.465505       611.3175 
 530   0.0000      22.473564       611.5368 
 531   0.0000      22.532086       613.1292 
 532   0.0000      22.577931       614.3767 
 533   0.0000      22.631809       615.8428 
 534   0.0000      22.788442       620.1050 
 535   0.0000      23.355591       635.5379 
 536   0.0000      23.375760       636.0868 
 537   0.0000      31.972175       870.0071 
 538   0.0000      32.499161       884.3471 
 539   0.0000      32.679717       889.2603 
 540   0.0000      44.064185      1199.0474 
 541   0.0000      44.103397      1200.1145 

                 SPIN DOWN ORBITALS
  NO   OCC          E(Eh)            E(eV) 
   0   1.0000     -19.612032      -533.6705 
   1   1.0000     -19.589580      -533.0596 
   2   1.0000     -14.793488      -402.5513 
   3   1.0000     -14.772560      -401.9818 
   4   1.0000     -14.752483      -401.4355 
   5   1.0000     -10.662693      -290.1466 
   6   1.0000     -10.646510      -289.7063 
   7   1.0000     -10.599300      -288.4216 
   8   1.0000     -10.583568      -287.9935 
   9   1.0000     -10.566251      -287.5223 
  10   1.0000     -10.550955      -287.1061 
  11   1.0000     -10.546359      -286.9810 
  12   1.0000     -10.543742      -286.9098 
  13   1.0000     -10.543283      -286.8973 
  14   1.0000      -1.175051       -31.9748 
  15   1.0000      -1.151886       -31.3444 
  16   1.0000      -1.047412       -28.5015 
  17   1.0000      -1.033745       -28.1296 
  18   1.0000      -0.956366       -26.0241 
  19   1.0000      -0.905666       -24.6444 
  20   1.0000      -0.860128       -23.4053 
  21   1.0000      -0.827918       -22.5288 
  22   1.0000      -0.805207       -21.9108 
  23   1.0000      -0.756030       -20.5726 
  24   1.0000      -0.703581       -19.1454 
  25   1.0000      -0.685894       -18.6641 
  26   1.0000      -0.679268       -18.4838 
  27   1.0000      -0.652234       -17.7482 
  28   1.0000      -0.622064       -16.9272 
  29   1.0000      -0.568400       -15.4669 
  30   1.0000      -0.561144       -15.2695 
  31   1.0000      -0.553817       -15.0701 
  32   1.0000      -0.551035       -14.9944 
  33   1.0000      -0.538998       -14.6669 
  34   1.0000      -0.527737       -14.3605 
[...]
     62      -0.000217  -0.000734  -0.000002  -0.000000   0.000434   0.000069
     63       0.000007  -0.000004  -0.000071  -0.000013   0.000053   0.004375
     64      -0.000010   0.000010  -0.000031  -0.000009   0.000676   0.020150
     65      -0.000016   0.000028   0.001027  -0.000002  -0.001190  -0.070406
     66      -0.000016  -0.000012  -0.001078  -0.000010  -0.001294  -0.056702
     67      -0.000022  -0.000008  -0.002654   0.000011  -0.005360  -0.280349
     68      -0.000060   0.000111  -0.013117   0.000012   0.022156   0.955047
     69       0.000105   0.000169  -0.000000   0.000011  -0.000206  -0.000001
     70       0.000128  -0.000391  -0.000004   0.000002   0.001064   0.000016
     71      -0.000045   0.000337  -0.000003  -0.000000  -0.001324  -0.000027
     72      -0.080200  -0.040037  -0.000001   0.000012   0.000105  -0.000008
     73      -0.044091   0.062410   0.000042   0.000004  -0.000214   0.000015
     74       0.009519  -0.057089  -0.000031  -0.000001   0.000283  -0.000005
     75       0.510690  -0.094610  -0.000069   0.000019  -0.000002   0.000017
     76       0.582949  -0.083368  -0.000057  -0.000005   0.000472   0.000024
     77       0.085906  -0.023789  -0.000031   0.000001   0.000147   0.000001
     78       0.464791   0.594119   0.000151   0.000006  -0.000620  -0.000017
     79      -0.228356  -0.261174  -0.000040   0.000011   0.000330   0.000028
     80       0.081362   0.091057   0.000012  -0.000002  -0.000035   0.000025
     81      -0.008813  -0.014202   0.000004   0.000012  -0.000486   0.000018
     82       0.180070  -0.411250  -0.000135  -0.000001   0.004383  -0.000083
     83      -0.276063   0.613131   0.000239   0.000005  -0.003631  -0.000004
     84      -0.000029  -0.000008   0.000539  -0.000026   0.000013  -0.000085
     85      -0.000013   0.000001  -0.011117   0.000005  -0.000106  -0.001308
     86      -0.000026   0.000072  -0.091779  -0.000002   0.000038  -0.000479
     87       0.000299   0.000012   0.168511  -0.000013   0.000173  -0.000704
     88       0.000120   0.000008   0.069278  -0.000011   0.000224  -0.000148
     89       0.000079   0.000047   0.038255   0.000004  -0.000046  -0.000442
     90       0.000207   0.000039  -0.272298   0.000021  -0.000239  -0.001136
     91      -0.000121  -0.000027   0.163717  -0.000051   0.000247   0.002276
     92      -0.000147   0.000034   0.158861  -0.000047   0.000213   0.001100
     93       0.000006  -0.000050   0.098068  -0.000034   0.000057   0.001013
     94      -0.000025   0.000046  -0.094323  -0.000004  -0.000360  -0.004563
     95       0.000123  -0.000305   0.901060   0.000035  -0.000290   0.011986


-----------
IR SPECTRUM
-----------

 Mode   freq       eps      Int      T**2         TX        TY        TZ
       cm**-1   L/(mol*cm) km/mol    a.u.
----------------------------------------------------------------------------
  6:     34.80   0.000386    1.95  0.003461  ( 0.048620  0.032641  0.005666)
  7:     49.50   0.000221    1.12  0.001391  ( 0.035820 -0.010408 -0.000101)
  8:     66.20   0.000192    0.97  0.000906  (-0.010457 -0.027728  0.005302)
  9:     72.66   0.000246    1.24  0.001056  ( 0.009771 -0.019094  0.024422)
 10:     86.90   0.001897    9.59  0.006813  ( 0.080906  0.009433 -0.013334)
 11:    101.20   0.001530    7.73  0.004717  ( 0.050234  0.040801  0.022992)
 12:    107.86   0.000391    1.98  0.001132  ( 0.007934  0.032444  0.004070)
 13:    116.46   0.000195    0.99  0.000523  ( 0.017317  0.013750  0.005869)
 14:    116.98   0.000091    0.46  0.000242  (-0.005685  0.013925  0.003987)
 15:    145.92   0.000713    3.60  0.001525  ( 0.035170 -0.016925  0.001409)
 16:    150.31   0.002084   10.53  0.004326  ( 0.030027 -0.057322  0.011766)
 17:    170.78   0.000750    3.79  0.001370  (-0.026307 -0.025539  0.005045)
 18:    212.55   0.000596    3.01  0.000875  (-0.023644 -0.007488  0.016117)
 19:    248.30   0.000831    4.20  0.001044  ( 0.012462 -0.020733 -0.021431)
 20:    300.57   0.000857    4.33  0.000890  (-0.013778  0.026295  0.002990)
 21:    332.10   0.001067    5.39  0.001003  (-0.025850  0.012434 -0.013407)
 22:    356.19   0.000467    2.36  0.000409  ( 0.012649  0.015710 -0.001566)
 23:    385.20   0.009671   48.87  0.007835  (-0.040050 -0.031076 -0.072559)
 24:    392.77   0.003917   19.79  0.003112  (-0.001234 -0.052040 -0.020059)
 25:    433.52   0.003277   16.56  0.002359  ( 0.015523 -0.019759 -0.041560)
 26:    494.78   0.008267   41.78  0.005214  ( 0.070610  0.000632 -0.015095)
 27:    522.35   0.006346   32.07  0.003791  ( 0.053018  0.022533  0.021741)
 28:    550.76   0.018947   95.75  0.010735  (-0.102410 -0.009136 -0.012812)
 29:    576.54   0.002511   12.69  0.001359  (-0.015265 -0.031857 -0.010538)
 30:    637.43   0.003019   15.26  0.001478  ( 0.031973 -0.020811  0.004744)
 31:    666.05   0.000738    3.73  0.000346  (-0.014312 -0.011296 -0.003641)
 32:    699.65   0.000293    1.48  0.000131  ( 0.007399 -0.003756 -0.007870)
 33:    745.27   0.001029    5.20  0.000431  ( 0.008156 -0.018336 -0.005321)
 34:    787.76   0.000330    1.67  0.000131  (-0.007307 -0.007038  0.005262)
 35:    818.29   0.000899    4.54  0.000343  (-0.014361 -0.010999 -0.003968)
 36:    888.08   0.000508    2.57  0.000178  ( 0.008256 -0.001256  0.010423)
 37:    914.74   0.000702    3.55  0.000239  (-0.010738  0.011042 -0.001448)
 38:    950.20   0.001993   10.07  0.000655  (-0.012691  0.009109  0.020260)
 39:   1006.62   0.000415    2.10  0.000129  (-0.008928 -0.006427 -0.002739)
 40:   1020.70   0.002588   13.08  0.000791  ( 0.005073 -0.027663 -0.000589)
 41:   1028.71   0.000972    4.91  0.000295  (-0.006504 -0.001217  0.015843)
 42:   1057.71   0.001660    8.39  0.000490  (-0.019061 -0.010220  0.004693)
 43:   1066.20   0.001363    6.89  0.000399  (-0.019392 -0.004191 -0.002302)
 44:   1072.08   0.000031    0.15  0.000009  (-0.000993 -0.002812  0.000134)
 45:   1078.87   0.001035    5.23  0.000299  (-0.004141  0.006751  0.015383)
 46:   1096.77   0.001455    7.35  0.000414  (-0.016781 -0.010964 -0.003474)
 47:   1098.33   0.002699   13.64  0.000767  ( 0.024709  0.007111 -0.010280)
 48:   1142.21   0.000395    2.00  0.000108  (-0.000329  0.010315  0.001183)
 49:   1159.18   0.001544    7.80  0.000416  (-0.003095  0.017546  0.009916)
 50:   1182.67   0.004502   22.75  0.001188  ( 0.003154  0.029175  0.018081)
 51:   1217.21   0.002217   11.20  0.000568  ( 0.000297 -0.020998 -0.011283)
 52:   1221.22   0.001967    9.94  0.000503  ( 0.021124 -0.005417 -0.005209)
 53:   1250.88   0.006908   34.91  0.001723  ( 0.010500 -0.038835 -0.010247)
 54:   1265.70   0.002344   11.84  0.000578  ( 0.004527  0.023543  0.001743)
 55:   1278.37   0.004920   24.86  0.001201  ( 0.021548  0.027123 -0.001054)
 56:   1295.50   0.005151   26.03  0.001241  (-0.007965  0.033970  0.004839)
 57:   1323.18   0.000582    2.94  0.000137  (-0.006861  0.002347  0.009202)
 58:   1336.48   0.004521   22.85  0.001056  ( 0.022238 -0.022979 -0.005749)
 59:   1341.95   0.000611    3.09  0.000142  ( 0.010166 -0.006078 -0.001369)
 60:   1378.53   0.003872   19.57  0.000877  ( 0.011310  0.027249 -0.002467)
 61:   1388.97   0.000470    2.38  0.000106  (-0.000517 -0.010010  0.002285)
 62:   1400.17   0.001646    8.32  0.000367  ( 0.014276  0.009354 -0.008693)
 63:   1411.47   0.008148   41.18  0.001802  ( 0.011995 -0.036701 -0.017626)
 64:   1419.50   0.000724    3.66  0.000159  ( 0.011035 -0.004968  0.003553)
 65:   1450.53   0.003287   16.61  0.000707  ( 0.005425  0.002249  0.025937)
 66:   1476.63   0.002313   11.69  0.000489  ( 0.018990 -0.010164  0.004980)
 67:   1484.24   0.000376    1.90  0.000079  ( 0.000691 -0.005078  0.007265)
 68:   1486.92   0.001023    5.17  0.000215  ( 0.005106  0.010388 -0.008985)
 69:   1489.09   0.009845   49.75  0.002063  ( 0.004459 -0.044463  0.008149)
 70:   1494.88   0.000117    0.59  0.000024  ( 0.003794 -0.001066 -0.002968)
 71:   1505.22   0.006041   30.53  0.001252  (-0.015254  0.031692  0.003917)
 72:   1508.39   0.002172   10.98  0.000449  ( 0.005175  0.006634 -0.019457)
 73:   1511.60   0.011496   58.10  0.002373  (-0.005897 -0.047882 -0.006773)
 74:   1548.92   0.098461  497.58  0.019837  ( 0.046307 -0.126093 -0.042349)
 75:   1590.57   0.027050  136.70  0.005307  (-0.015625 -0.059638 -0.038811)
 76:   1775.67   0.083911  424.05  0.014747  ( 0.007144 -0.045955  0.112178)
 77:   1789.91   0.019299   97.53  0.003365  ( 0.020478 -0.036749 -0.039935)
 78:   2997.70   0.002527   12.77  0.000263  ( 0.000687 -0.002101 -0.016068)
 79:   3051.63   0.000174    0.88  0.000018  ( 0.001437 -0.000282 -0.003953)
 80:   3058.90   0.003109   15.71  0.000317  ( 0.001165  0.011607 -0.013456)
 81:   3067.93   0.004087   20.65  0.000416  (-0.006553 -0.006491  0.018183)
 82:   3076.14   0.011061   55.90  0.001122  ( 0.006668  0.030337  0.012543)
 83:   3079.06   0.002780   14.05  0.000282  ( 0.002903  0.006214  0.015319)
 84:   3088.88   0.000374    1.89  0.000038  (-0.001715 -0.004990  0.003148)
 85:   3089.06   0.000613    3.10  0.000062  (-0.001247  0.000656  0.007740)
 86:   3098.98   0.002099   10.61  0.000211  ( 0.004986  0.006273 -0.012131)
 87:   3114.48   0.004803   24.27  0.000481  ( 0.002083  0.021328  0.004697)
 88:   3131.23   0.004595   23.22  0.000458  (-0.002827 -0.019517 -0.008311)
 89:   3143.82   0.002840   14.35  0.000282  ( 0.016377 -0.002616 -0.002628)
 90:   3171.71   0.000450    2.27  0.000044  (-0.004628 -0.002998  0.003726)
 91:   3183.11   0.001222    6.18  0.000120  (-0.001986  0.005968 -0.008960)
 92:   3193.80   0.000010    0.05  0.000001  (-0.000226 -0.000419 -0.000876)
 93:   3416.29   0.000466    2.35  0.000043  (-0.000569  0.006114 -0.002202)
 94:   3619.43   0.020379  102.99  0.001757  (-0.000559  0.034351 -0.024017)
 95:   3660.67   0.007955   40.20  0.000678  (-0.000791  0.001641  0.025977)

* The epsilon (eps) is given for a Dirac delta lineshape.
** The dipole moment derivative (T) already includes vibrational overlap.

The first frequency considered to be a vibration is 6
The total number of vibrations considered is 90


--------------------------
THERMOCHEMISTRY AT 298.15K
--------------------------

Temperature         ... 298.15 K
Pressure            ... 1.00 atm
Total Mass          ... 200.26 AMU

Throughout the following assumptions are being made:
  (1) The electronic state is orbitally nondegenerate
      but the spin degeneracy is treated
  (2) There are no thermally accessible electronically excited states
  (3) Hindered rotations indicated by low frequency modes are not
      treated as such but are treated as vibrations and this may
      cause some error
  (4) All equations used are the standard statistical mechanics
      equations for an ideal gas
  (5) All vibrations are strictly harmonic

freq.      34.80  E(vib)   ...       0.54 
freq.      49.50  E(vib)   ...       0.52 
freq.      66.20  E(vib)   ...       0.50 
freq.      72.66  E(vib)   ...       0.49 
freq.      86.90  E(vib)   ...       0.48 
freq.     101.20  E(vib)   ...       0.46 
freq.     107.86  E(vib)   ...       0.45 
freq.     116.46  E(vib)   ...       0.44 
freq.     116.98  E(vib)   ...       0.44 
freq.     145.92  E(vib)   ...       0.41 
freq.     150.31  E(vib)   ...       0.40 
freq.     170.78  E(vib)   ...       0.38 
freq.     212.55  E(vib)   ...       0.34 
freq.     248.30  E(vib)   ...       0.31 
freq.     300.57  E(vib)   ...       0.26 
freq.     332.10  E(vib)   ...       0.24 
freq.     356.19  E(vib)   ...       0.22 
freq.     385.20  E(vib)   ...       0.20 
freq.     392.77  E(vib)   ...       0.20 
freq.     433.52  E(vib)   ...       0.17 
freq.     494.78  E(vib)   ...       0.14 
freq.     522.35  E(vib)   ...       0.13 
freq.     550.76  E(vib)   ...       0.12 
freq.     576.54  E(vib)   ...       0.11 
freq.     637.43  E(vib)   ...       0.09 
freq.     666.05  E(vib)   ...       0.08 
freq.     699.65  E(vib)   ...       0.07 
freq.     745.27  E(vib)   ...       0.06 
freq.     787.76  E(vib)   ...       0.05 
freq.     818.29  E(vib)   ...       0.05 
freq.     888.08  E(vib)   ...       0.04 
freq.     914.74  E(vib)   ...       0.03 
freq.     950.20  E(vib)   ...       0.03 
freq.    1006.62  E(vib)   ...       0.02 
freq.    1020.70  E(vib)   ...       0.02 
freq.    1028.71  E(vib)   ...       0.02 
freq.    1057.71  E(vib)   ...       0.02 
freq.    1066.20  E(vib)   ...       0.02 
freq.    1072.08  E(vib)   ...       0.02 
freq.    1078.87  E(vib)   ...       0.02 
freq.    1096.77  E(vib)   ...       0.02 
freq.    1098.33  E(vib)   ...       0.02 
freq.    1142.21  E(vib)   ...       0.01 
freq.    1159.18  E(vib)   ...       0.01 
freq.    1182.67  E(vib)   ...       0.01 
freq.    1217.21  E(vib)   ...       0.01 
freq.    1221.22  E(vib)   ...       0.01 
freq.    1250.88  E(vib)   ...       0.01 
freq.    1265.70  E(vib)   ...       0.01 
freq.    1278.37  E(vib)   ...       0.01 
freq.    1295.50  E(vib)   ...       0.01 
freq.    1323.18  E(vib)   ...       0.01 
freq.    1336.48  E(vib)   ...       0.01 
freq.    1341.95  E(vib)   ...       0.01 
freq.    1378.53  E(vib)   ...       0.01 
freq.    1388.97  E(vib)   ...       0.00 
freq.    1400.17  E(vib)   ...       0.00 
freq.    1411.47  E(vib)   ...       0.00 
freq.    1419.50  E(vib)   ...       0.00 
freq.    1450.53  E(vib)   ...       0.00 
freq.    1476.63  E(vib)   ...       0.00 
freq.    1484.24  E(vib)   ...       0.00 
freq.    1486.92  E(vib)   ...       0.00 
freq.    1489.09  E(vib)   ...       0.00 
freq.    1494.88  E(vib)   ...       0.00 
freq.    1505.22  E(vib)   ...       0.00 
freq.    1508.39  E(vib)   ...       0.00 
freq.    1511.60  E(vib)   ...       0.00 
freq.    1548.92  E(vib)   ...       0.00 
freq.    1590.57  E(vib)   ...       0.00 
freq.    1775.67  E(vib)   ...       0.00 
freq.    1789.91  E(vib)   ...       0.00 
freq.    2997.70  E(vib)   ...       0.00 
freq.    3051.63  E(vib)   ...       0.00 
freq.    3058.90  E(vib)   ...       0.00 
freq.    3067.93  E(vib)   ...       0.00 
freq.    3076.14  E(vib)   ...       0.00 
freq.    3079.06  E(vib)   ...       0.00 
freq.    3088.88  E(vib)   ...       0.00 
freq.    3089.06  E(vib)   ...       0.00 
freq.    3098.98  E(vib)   ...       0.00 
freq.    3114.48  E(vib)   ...       0.00 
freq.    3131.23  E(vib)   ...       0.00 
freq.    3143.82  E(vib)   ...       0.00 
freq.    3171.71  E(vib)   ...       0.00 
freq.    3183.11  E(vib)   ...       0.00 
freq.    3193.80  E(vib)   ...       0.00 
freq.    3416.29  E(vib)   ...       0.00 
freq.    3619.43  E(vib)   ...       0.00 
freq.    3660.67  E(vib)   ...       0.00 

------------
INNER ENERGY
------------

The inner energy is: U= E(el) + E(ZPE) + E(vib) + E(rot) + E(trans)
    E(el)   - is the total energy from the electronic structure calculation
              = E(kin-el) + E(nuc-el) + E(el-el) + E(nuc-nuc)
    E(ZPE)  - the the zero temperature vibrational energy from the frequency calculation
    E(vib)  - the the finite temperature correction to E(ZPE) due to population
              of excited vibrational states
    E(rot)  - is the rotational thermal energy
    E(trans)- is the translational thermal energy

Summary of contributions to the inner energy U:
Electronic energy                ...   -668.44248738 Eh
Zero point energy                ...      0.27799846 Eh     174.45 kcal/mol
Thermal vibrational correction   ...      0.01402852 Eh       8.80 kcal/mol
Thermal rotational correction    ...      0.00141627 Eh       0.89 kcal/mol
Thermal translational correction ...      0.00141627 Eh       0.89 kcal/mol
-----------------------------------------------------------------------
Total thermal energy                   -668.14762785 Eh


Summary of corrections to the electronic energy:
(perhaps to be used in another calculation)
Total thermal correction                  0.01686107 Eh      10.58 kcal/mol
Non-thermal (ZPE) correction              0.27799846 Eh     174.45 kcal/mol
-----------------------------------------------------------------------
Total correction                          0.29485953 Eh     185.03 kcal/mol


--------
ENTHALPY
--------

The enthalpy is H = U + kB*T
                kB is Boltzmann's constant
Total free energy                 ...   -668.14762785 Eh 
Thermal Enthalpy correction       ...      0.00094421 Eh       0.59 kcal/mol
-----------------------------------------------------------------------
Total Enthalpy                    ...   -668.14668364 Eh


Note: Only C1 symmetry has been detected, increase convergence thresholds 
      if your molecule has a higher symmetry. Symmetry factor of 1.0 is   
      used for the rotational entropy correction. 
 

Note: Rotational entropy computed according to Herzberg 
Infrared and Raman Spectra, Chapter V,1, Van Nostrand Reinhold, 1945 
Point Group:  C1, Symmetry Number:   1  
Rotational constants in cm-1:     0.020147     0.013985     0.009399 

Vibrational entropy computed according to the QRRHO of S. Grimme
Chem.Eur.J. 2012 18 9955


-------
ENTROPY
-------

The entropy contributions are T*S = T*(S(el)+S(vib)+S(rot)+S(trans))
     S(el)   - electronic entropy
     S(vib)  - vibrational entropy
     S(rot)  - rotational entropy
     S(trans)- translational entropy
The entropies will be listed as multiplied by the temperature to get
units of energy

Electronic entropy                ...      0.00065446 Eh      0.41 kcal/mol
Vibrational entropy               ...      0.02553325 Eh     16.02 kcal/mol
Rotational entropy                ...      0.01557323 Eh      9.77 kcal/mol
Translational entropy             ...      0.01985478 Eh     12.46 kcal/mol
-----------------------------------------------------------------------
Final entropy term                ...      0.06161572 Eh     38.66 kcal/mol

In case the symmetry of your molecule has not been determined correctly
or in case you have a reason to use a different symmetry number we print 
out the resulting rotational entropy values for sn=1,12 :
 --------------------------------------------------------
|  sn= 1 | S(rot)=       0.01557323 Eh      9.77 kcal/mol|
|  sn= 2 | S(rot)=       0.01491878 Eh      9.36 kcal/mol|
|  sn= 3 | S(rot)=       0.01453594 Eh      9.12 kcal/mol|
|  sn= 4 | S(rot)=       0.01426432 Eh      8.95 kcal/mol|
|  sn= 5 | S(rot)=       0.01405363 Eh      8.82 kcal/mol|
|  sn= 6 | S(rot)=       0.01388149 Eh      8.71 kcal/mol|
|  sn= 7 | S(rot)=       0.01373594 Eh      8.62 kcal/mol|
|  sn= 8 | S(rot)=       0.01360986 Eh      8.54 kcal/mol|
|  sn= 9 | S(rot)=       0.01349866 Eh      8.47 kcal/mol|
|  sn=10 | S(rot)=       0.01339918 Eh      8.41 kcal/mol|
|  sn=11 | S(rot)=       0.01330919 Eh      8.35 kcal/mol|
|  sn=12 | S(rot)=       0.01322703 Eh      8.30 kcal/mol|
 --------------------------------------------------------


-------------------
GIBBS FREE ENERGY
-------------------

The Gibbs free energy is G = H - T*S

Total enthalpy                    ...   -668.14668364 Eh 
Total entropy correction          ...     -0.06161572 Eh    -38.66 kcal/mol
-----------------------------------------------------------------------
Final Gibbs free energy         ...   -668.20829937 Eh

For completeness - the Gibbs free energy minus the electronic energy
G-E(el)                           ...      0.23418801 Eh    146.95 kcal/mol


Timings for individual modules:

Sum of individual times         ...     1566.650 sec (=  26.111 min)
GTO integral calculation        ...       33.770 sec (=   0.563 min)   2.2 %
SCF iterations                  ...      603.111 sec (=  10.052 min)  38.5 %
SCF Gradient evaluation         ...      144.709 sec (=   2.412 min)   9.2 %
Geometry relaxation             ...        0.535 sec (=   0.009 min)   0.0 %
Analytical frequency calculation...      784.526 sec (=  13.075 min)  50.1 %
                             ****ORCA TERMINATED NORMALLY****
TOTAL RUN TIME: 0 days 0 hours 26 minutes 35 seconds 176 msec
