32
Energy: -6.681515867472414E+02
 N        -1.855191406862      0.790402086653      0.737066696357
 C        -1.511251448127     -0.094391979283     -0.350035212076
 C        -1.639315995485     -1.536130035304      0.171394005705
 O        -1.728615130815     -1.788470471666      1.358545415868
 C        -0.090697812658      0.183080667544     -0.907506981122
 C         1.038438397381     -0.129647546655      0.086213791473
 C         2.418157891693      0.261454896131     -0.467196295905
 C         3.558647206885     -0.080487910245      0.517821920034
 N         4.873400879767      0.225738240617      0.017117520331
 H        -2.230612439480      0.066054692421     -1.165297383869
 H        -0.070673475917      1.242631058802     -1.193882141166
 H         0.052879996520     -0.401935493566     -1.827718619589
 H         1.034682468271     -1.202849130467      0.328581782839
 H         0.855443965230      0.406650954824      1.028432328397
 H         2.439197997177      1.340306825187     -0.683356436258
 H         2.601299273405     -0.261244628118     -1.417121874657
 H         3.519230545424     -1.144683616747      0.786614191336
 H         3.397445414110      0.494525151202      1.451250151717
 H         4.842840416016      1.187647390756     -0.343119518276
 H        -1.917734546410      0.366028131879      1.652480704960
 C        -2.255790685301      2.067981943043      0.516350640874
 N        -1.606963753215     -2.498862648902     -0.776316033709
 H        -1.601578090460     -2.230021194685     -1.747210571582
 O        -2.272597690911      2.558251441683     -0.597327301450
 C        -2.698109260898      2.844734693679      1.748892069375
 H        -2.253302547052      3.844042727802      1.708542435059
 H        -3.788309782136      2.960328971998      1.710597104730
 H        -2.423231479255      2.351937836742      2.687306940884
 C        -1.705121682074     -3.905591648836     -0.432517475045
 H        -2.706659150028     -4.155155349035     -0.059063589194
 H        -1.492451496256     -4.502869034591     -1.323947524541
 H        -0.978385578540     -4.150207022864      0.349612258499
