
                                 *****************
                                 * O   R   C   A *
                                 *****************

                                            #,                                       
                                            ###                                      
                                            ####                                     
                                            #####                                    
                                            ######                                   
                                           ########,                                 
                                     ,,################,,,,,                         
                               ,,#################################,,                 
                          ,,##########################################,,             
                       ,#########################################, ''#####,          
                    ,#############################################,,   '####,        
                  ,##################################################,,,,####,       
                ,###########''''           ''''###############################       
              ,#####''   ,,,,##########,,,,          '''####'''          '####       
            ,##' ,,,,###########################,,,                        '##       
           ' ,,###''''                  '''############,,,                           
         ,,##''                                '''############,,,,        ,,,,,,###''
      ,#''                                            '''#######################'''  
     '                                                          ''''####''''         
             ,#######,   #######,   ,#######,      ##                                
            ,#'     '#,  ##    ##  ,#'     '#,    #''#        ######   ,####,        
            ##       ##  ##   ,#'  ##            #'  '#       #        #'  '#        
            ##       ##  #######   ##           ,######,      #####,   #    #        
            '#,     ,#'  ##    ##  '#,     ,#' ,#      #,         ##   #,  ,#        
             '#######'   ##     ##  '#######'  #'      '#     #####' # '####'        



                  #######################################################
                  #                        -***-                        #
                  #          Department of theory and spectroscopy      #
                  #    Directorship and core code : Frank Neese         #
                  #        Max Planck Institute fuer Kohlenforschung    #
                  #                Kaiser Wilhelm Platz 1               #
                  #                 D-45470 Muelheim/Ruhr               #
                  #                      Germany                        #
                  #                                                     #
                  #                  All rights reserved                #
                  #                        -***-                        #
                  #######################################################


                         Program Version 5.0.4 -  RELEASE  -


 With contributions from (in alphabetic order):
   Daniel Aravena         : Magnetic Suceptibility
   Michael Atanasov       : Ab Initio Ligand Field Theory (pilot matlab implementation)
   Alexander A. Auer      : GIAO ZORA, VPT2 properties, NMR spectrum
   Ute Becker             : Parallelization
   Giovanni Bistoni       : ED, misc. LED, open-shell LED, HFLD
   Martin Brehm           : Molecular dynamics
   Dmytro Bykov           : SCF Hessian
   Vijay G. Chilkuri      : MRCI spin determinant printing, contributions to CSF-ICE
   Dipayan Datta          : RHF DLPNO-CCSD density
   Achintya Kumar Dutta   : EOM-CC, STEOM-CC
   Dmitry Ganyushin       : Spin-Orbit,Spin-Spin,Magnetic field MRCI
   Miquel Garcia          : C-PCM and meta-GGA Hessian, CC/C-PCM, Gaussian charge scheme
   Yang Guo               : DLPNO-NEVPT2, F12-NEVPT2, CIM, IAO-localization
   Andreas Hansen         : Spin unrestricted coupled pair/coupled cluster methods
   Benjamin Helmich-Paris : MC-RPA, TRAH-SCF, COSX integrals
   Lee Huntington         : MR-EOM, pCC
   Robert Izsak           : Overlap fitted RIJCOSX, COSX-SCS-MP3, EOM
   Marcus Kettner         : VPT2
   Christian Kollmar      : KDIIS, OOCD, Brueckner-CCSD(T), CCSD density, CASPT2, CASPT2-K
   Simone Kossmann        : Meta GGA functionals, TD-DFT gradient, OOMP2, MP2 Hessian
   Martin Krupicka        : Initial AUTO-CI
   Lucas Lang             : DCDCAS
   Marvin Lechner         : AUTO-CI (C++ implementation), FIC-MRCC
   Dagmar Lenk            : GEPOL surface, SMD
   Dimitrios Liakos       : Extrapolation schemes; Compound Job, initial MDCI parallelization
   Dimitrios Manganas     : Further ROCIS development; embedding schemes
   Dimitrios Pantazis     : SARC Basis sets
   Anastasios Papadopoulos: AUTO-CI, single reference methods and gradients
   Taras Petrenko         : DFT Hessian,TD-DFT gradient, ASA, ECA, R-Raman, ABS, FL, XAS/XES, NRVS
   Peter Pinski           : DLPNO-MP2, DLPNO-MP2 Gradient
   Christoph Reimann      : Effective Core Potentials
   Marius Retegan         : Local ZFS, SOC
   Christoph Riplinger    : Optimizer, TS searches, QM/MM, DLPNO-CCSD(T), (RO)-DLPNO pert. Triples
   Tobias Risthaus        : Range-separated hybrids, TD-DFT gradient, RPA, STAB
   Michael Roemelt        : Original ROCIS implementation
   Masaaki Saitow         : Open-shell DLPNO-CCSD energy and density
   Barbara Sandhoefer     : DKH picture change effects
   Avijit Sen             : IP-ROCIS
   Kantharuban Sivalingam : CASSCF convergence, NEVPT2, FIC-MRCI
   Bernardo de Souza      : ESD, SOC TD-DFT
   Georgi Stoychev        : AutoAux, RI-MP2 NMR, DLPNO-MP2 response
   Willem Van den Heuvel  : Paramagnetic NMR
   Boris Wezisla          : Elementary symmetry handling
   Frank Wennmohs         : Technical directorship


 We gratefully acknowledge several colleagues who have allowed us to
 interface, adapt or use parts of their codes:
   Stefan Grimme, W. Hujo, H. Kruse, P. Pracht,  : VdW corrections, initial TS optimization,
                  C. Bannwarth, S. Ehlert          DFT functionals, gCP, sTDA/sTD-DF
   Ed Valeev, F. Pavosevic, A. Kumar             : LibInt (2-el integral package), F12 methods
   Garnet Chan, S. Sharma, J. Yang, R. Olivares  : DMRG
   Ulf Ekstrom                                   : XCFun DFT Library
   Mihaly Kallay                                 : mrcc  (arbitrary order and MRCC methods)
   Jiri Pittner, Ondrej Demel                    : Mk-CCSD
   Frank Weinhold                                : gennbo (NPA and NBO analysis)
   Christopher J. Cramer and Donald G. Truhlar   : smd solvation model
   Lars Goerigk                                  : TD-DFT with DH, B97 family of functionals
   V. Asgeirsson, H. Jonsson                     : NEB implementation
   FAccTs GmbH                                   : IRC, NEB, NEB-TS, DLPNO-Multilevel, CI-OPT
                                                   MM, QMMM, 2- and 3-layer-ONIOM, Crystal-QMMM,
                                                   LR-CPCM, SF, NACMEs, symmetry and pop. for TD-DFT,
                                                   nearIR, NL-DFT gradient (VV10), updates on ESD,
                                                   ML-optimized integration grids
   S Lehtola, MJT Oliveira, MAL Marques          : LibXC Library
   Liviu Ungur et al                             : ANISO software


 Your calculation uses the libint2 library for the computation of 2-el integrals
 For citations please refer to: http://libint.valeyev.net

 Your ORCA version has been built with support for libXC version: 5.1.0
 For citations please refer to: https://tddft.org/programs/libxc/

 This ORCA versions uses:
   CBLAS   interface :  Fast vector & matrix operations
   LAPACKE interface :  Fast linear algebra routines
   SCALAPACK package :  Parallel linear algebra routines
   Shared memory     :  Shared parallel matrices
   BLAS/LAPACK       :  OpenBLAS 0.3.15  USE64BITINT DYNAMIC_ARCH NO_AFFINITY Zen SINGLE_THREADED
        Core in use  :  Zen
   Copyright (c) 2011-2014, The OpenBLAS Project




***************************************
The coordinates will be read from file: model.xyz
***************************************


================================================================================

----- Orbital basis set information -----
Your calculation utilizes the basis: EPR-II
   V. Barone, in Recent Advances in Density Functional Methods, Part 1 (ed. D. P. Chong), World Scientific, Singapore, 1995, p. 287.

----- AuxJ basis set information -----
Your calculation utilizes the auxiliary basis: def2/J
   F. Weigend, Phys. Chem. Chem. Phys. 8, 1057 (2006).

================================================================================
                                        WARNINGS
                       Please study these warnings very carefully!
================================================================================


WARNING: your system is open-shell and RHF/RKS was chosen
  ===> : WILL SWITCH to UHF/UKS


WARNING: Geometry Optimization
  ===> : Switching off AutoStart
         For restart on a previous wavefunction, please use MOREAD

INFO   : the flag for use of the SHARK integral package has been found!

================================================================================
                                       INPUT FILE
================================================================================
NAME = opt.inp
|  1> ! B3LYP EPR-II OPT
|  2> %pal nprocs 16 end
|  3> *XYZFile 0 2 model.xyz
|  4> 
|  5>                          ****END OF INPUT****
================================================================================

                       *****************************
                       * Geometry Optimization Run *
                       *****************************

Geometry optimization settings:
Update method            Update   .... BFGS
Choice of coordinates    CoordSys .... Z-matrix Internals
Initial Hessian          InHess   .... Almoef's Model

Convergence Tolerances:
Energy Change            TolE     ....  5.0000e-06 Eh
Max. Gradient            TolMAXG  ....  3.0000e-04 Eh/bohr
RMS Gradient             TolRMSG  ....  1.0000e-04 Eh/bohr
Max. Displacement        TolMAXD  ....  4.0000e-03 bohr
RMS Displacement         TolRMSD  ....  2.0000e-03 bohr
Strict Convergence                ....  False
------------------------------------------------------------------------------
                        ORCA OPTIMIZATION COORDINATE SETUP
------------------------------------------------------------------------------

The optimization will be done in new redundant internal coordinates
Making redundant internal coordinates   ...  (new redundants) done
Evaluating the initial hessian          ...  (Almloef) done
Evaluating the coordinates              ...  done
Calculating the B-matrix                .... done
Calculating the G-matrix                .... done
Diagonalizing the G-matrix              .... done
Small eigenvalue found = 6.776e-03
Small eigenvalue found = 7.780e-03
Small eigenvalue found = 9.885e-03
Small eigenvalue found = 2.444e-02
Small eigenvalue found = 2.852e-02
The first mode is                       ....   67
The number of degrees of freedom        ....   90

    -----------------------------------------------------------------
                    Redundant Internal Coordinates


    -----------------------------------------------------------------
         Definition                    Initial Value    Approx d2E/dq
    -----------------------------------------------------------------
      1. B(C   1,N   0)                  1.4432         0.460185   
      2. B(C   2,C   1)                  1.5385         0.362126   
      3. B(O   3,C   2)                  1.2170         1.056716   
      4. B(C   4,C   1)                  1.5510         0.345782   
      5. B(C   5,C   4)                  1.5363         0.365023   
      6. B(C   6,C   5)                  1.5372         0.363881   
      7. B(C   7,C   6)                  1.5453         0.353178   
      8. B(N   8,C   7)                  1.4398         0.466020   
      9. B(H   9,C   1)                  1.0990         0.348345   
     10. B(H  10,C   4)                  1.0978         0.349990   
     11. B(H  11,C   4)                  1.0998         0.347315   
     12. B(H  12,C   5)                  1.1002         0.346811   
     13. B(H  13,C   5)                  1.0995         0.347762   
     14. B(H  14,C   6)                  1.1005         0.346481   
     15. B(H  15,C   6)                  1.0996         0.347625   
     16. B(H  16,C   7)                  1.0983         0.349255   
     17. B(H  17,C   7)                  1.1081         0.336919   
     18. B(H  18,N   8)                  1.0276         0.405607   
     19. B(H  19,N   0)                  1.0109         0.431226   
     20. B(C  20,N   0)                  1.3570         0.631757   
     21. B(N  21,C   2)                  1.3513         0.645050   
     22. B(H  22,N  21)                  1.0074         0.436792   
     23. B(O  23,C  20)                  1.2169         1.056801   
     24. B(C  24,C  20)                  1.5225         0.383945   
     25. B(H  25,C  24)                  1.0946         0.354097   
     26. B(H  26,C  24)                  1.0970         0.350983   
     27. B(H  27,C  24)                  1.0950         0.353544   
     28. B(C  28,N  21)                  1.4515         0.446508   
     29. B(H  29,C  28)                  1.0976         0.350126   
     30. B(H  30,C  28)                  1.0939         0.354978   
     31. B(H  31,C  28)                  1.0953         0.353141   
     32. A(C   1,N   0,H  19)          116.0692         0.340879   
     33. A(H  19,N   0,C  20)          121.6171         0.359607   
     34. A(C   1,N   0,C  20)          121.6699         0.407618   
     35. A(N   0,C   1,H   9)          108.2562         0.331830   
     36. A(C   2,C   1,H   9)          109.4959         0.320918   
     37. A(C   4,C   1,H   9)          107.8629         0.318507   
     38. A(N   0,C   1,C   2)          107.4206         0.372240   
     39. A(C   2,C   1,C   4)          111.4507         0.356700   
     40. A(N   0,C   1,C   4)          112.2912         0.369295   
     41. A(O   3,C   2,N  21)          122.5597         0.475395   
     42. A(C   1,C   2,O   3)          122.0765         0.430876   
     43. A(C   1,C   2,N  21)          115.3378         0.394739   
     44. A(C   5,C   4,H  11)          109.6920         0.321181   
     45. A(C   1,C   4,H  11)          108.9730         0.318353   
     46. A(C   5,C   4,H  10)          110.5980         0.321585   
     47. A(C   1,C   4,C   5)          113.8435         0.357183   
     48. A(C   1,C   4,H  10)          106.4476         0.318751   
     49. A(H  10,C   4,H  11)          107.0227         0.287909   
     50. A(C   4,C   5,C   6)          112.0262         0.360298   
     51. A(H  12,C   5,H  13)          106.6449         0.287556   
     52. A(C   6,C   5,H  13)          109.5001         0.321084   
     53. A(C   4,C   5,H  13)          109.4320         0.321249   
     54. A(C   6,C   5,H  12)          109.3024         0.320940   
     55. A(C   4,C   5,H  12)          109.7877         0.321105   
     56. A(C   5,C   6,C   7)          112.1271         0.358280   
     57. A(H  14,C   6,H  15)          107.0459         0.287495   
     58. A(C   7,C   6,H  15)          108.8178         0.319501   
     59. A(C   5,C   6,H  15)          109.8505         0.321063   
     60. A(C   7,C   6,H  14)          109.1489         0.319329   
     61. A(C   5,C   6,H  14)          109.7128         0.320890   
     62. A(H  16,C   7,H  17)          106.9428         0.286451   
     63. A(N   8,C   7,H  17)          108.3856         0.330692   
     64. A(C   6,C   7,H  17)          108.3461         0.317874   
     65. A(N   8,C   7,H  16)          108.9022         0.332667   
     66. A(C   6,C   7,H  16)          110.1158         0.319745   
     67. A(C   6,C   7,N   8)          113.9040         0.371445   
     68. A(C   7,N   8,H  18)          107.0880         0.338121   
     69. A(O  23,C  20,C  24)          122.0930         0.435440   
     70. A(N   0,C  20,C  24)          115.7475         0.397357   
     71. A(N   0,C  20,O  23)          122.1561         0.473585   
     72. A(H  22,N  21,C  28)          119.1610         0.339892   
     73. A(C   2,N  21,C  28)          121.5169         0.406945   
     74. A(C   2,N  21,H  22)          119.0708         0.361676   
     75. A(H  26,C  24,H  27)          109.0758         0.288839   
     76. A(H  25,C  24,H  27)          109.9044         0.289238   
     77. A(C  20,C  24,H  27)          113.0316         0.324799   
     78. A(H  25,C  24,H  26)          107.8407         0.288909   
     79. A(C  20,C  24,H  26)          108.3135         0.324411   
     80. A(C  20,C  24,H  25)          108.5339         0.324882   
     81. A(H  29,C  28,H  31)          108.1602         0.288676   
     82. A(N  21,C  28,H  31)          109.9205         0.330925   
     83. A(H  29,C  28,H  30)          109.2996         0.288911   
     84. A(N  21,C  28,H  30)          108.8451         0.331209   
     85. A(H  30,C  28,H  31)          109.3277         0.289299   
     86. A(N  21,C  28,H  29)          111.2631         0.330456   
     87. D(C   4,C   1,N   0,C  20)     78.5995         0.018078   
     88. D(H   9,C   1,N   0,H  19)    130.5724         0.018078   
     89. D(H   9,C   1,N   0,C  20)    -40.3683         0.018078   
     90. D(C   4,C   1,N   0,H  19)   -110.4598         0.018078   
     91. D(C   2,C   1,N   0,H  19)     12.4194         0.018078   
     92. D(C   2,C   1,N   0,C  20)   -158.5213         0.018078   
     93. D(N  21,C   2,C   1,H   9)     50.3725         0.009852   
     94. D(N  21,C   2,C   1,C   4)    -68.8841         0.009852   
     95. D(O   3,C   2,C   1,H   9)   -131.4395         0.009852   
     96. D(O   3,C   2,C   1,C   4)    109.3039         0.009852   
     97. D(N  21,C   2,C   1,N   0)    167.7199         0.009852   
     98. D(O   3,C   2,C   1,N   0)    -14.0922         0.009852   
     99. D(C   5,C   4,C   1,C   2)    -54.3108         0.009652   
    100. D(C   5,C   4,C   1,H   9)   -174.5338         0.009652   
    101. D(C   5,C   4,C   1,N   0)     66.2679         0.009652   
    102. D(H  11,C   4,C   1,H   9)    -51.7469         0.009652   
    103. D(H  11,C   4,C   1,C   2)     68.4761         0.009652   
    104. D(H  10,C   4,C   1,H   9)     63.3578         0.009652   
    105. D(H  10,C   4,C   1,C   2)   -176.4191         0.009652   
    106. D(H  10,C   4,C   1,N   0)    -55.8404         0.009652   
    107. D(H  11,C   4,C   1,N   0)   -170.9452         0.009652   
    108. D(H  13,C   5,C   4,H  11)   -176.3372         0.010670   
    109. D(H  13,C   5,C   4,H  10)     65.8438         0.010670   
    110. D(H  13,C   5,C   4,C   1)    -53.9449         0.010670   
    111. D(H  12,C   5,C   4,H  11)    -59.6111         0.010670   
    112. D(H  12,C   5,C   4,H  10)   -177.4300         0.010670   
    113. D(H  12,C   5,C   4,C   1)     62.7813         0.010670   
    114. D(C   6,C   5,C   4,H  11)     62.0239         0.010670   
    115. D(C   6,C   5,C   4,H  10)    -55.7950         0.010670   
    116. D(C   6,C   5,C   4,C   1)   -175.5837         0.010670   
    117. D(C   7,C   6,C   5,C   4)   -178.7501         0.010607   
    118. D(H  15,C   6,C   5,H  12)     64.2939         0.010607   
    119. D(H  15,C   6,C   5,C   4)    -57.6193         0.010607   
    120. D(H  14,C   6,C   5,H  13)    -61.8055         0.010607   
    121. D(H  14,C   6,C   5,H  12)   -178.2925         0.010607   
    122. D(H  14,C   6,C   5,C   4)     59.7943         0.010607   
    123. D(C   7,C   6,C   5,H  13)     59.6501         0.010607   
    124. D(H  15,C   6,C   5,H  13)   -179.2191         0.010607   
    125. D(C   7,C   6,C   5,H  12)    -56.8369         0.010607   
    126. D(H  17,C   7,C   6,H  15)    176.8371         0.010035   
    127. D(H  17,C   7,C   6,C   5)    -61.4391         0.010035   
    128. D(H  16,C   7,C   6,H  15)    -66.5203         0.010035   
    129. D(H  16,C   7,C   6,H  14)    176.9822         0.010035   
    130. D(H  16,C   7,C   6,C   5)     55.2035         0.010035   
    131. D(N   8,C   7,C   6,H  15)     56.1430         0.010035   
    132. D(H  17,C   7,C   6,H  14)     60.3396         0.010035   
    133. D(N   8,C   7,C   6,H  14)    -60.3545         0.010035   
    134. D(N   8,C   7,C   6,C   5)    177.8668         0.010035   
    135. D(H  18,N   8,C   7,H  17)    -71.5246         0.017114   
    136. D(H  18,N   8,C   7,H  16)    172.4730         0.017114   
    137. D(H  18,N   8,C   7,C   6)     49.1475         0.017114   
    138. D(C  24,C  20,N   0,H  19)      4.5727         0.032416   
    139. D(C  24,C  20,N   0,C   1)    175.0121         0.032416   
    140. D(O  23,C  20,N   0,H  19)   -174.7636         0.032416   
    141. D(O  23,C  20,N   0,C   1)     -4.3242         0.032416   
    142. D(C  28,N  21,C   2,O   3)      1.2788         0.033912   
    143. D(C  28,N  21,C   2,C   1)    179.4570         0.033912   
    144. D(H  22,N  21,C   2,O   3)    175.4706         0.033912   
    145. D(H  22,N  21,C   2,C   1)     -6.3511         0.033912   
    146. D(H  26,C  24,C  20,O  23)     71.5101         0.010986   
    147. D(H  26,C  24,C  20,N   0)   -107.8267         0.010986   
    148. D(H  25,C  24,C  20,O  23)    -45.3190         0.010986   
    149. D(H  25,C  24,C  20,N   0)    135.3442         0.010986   
    150. D(H  27,C  24,C  20,O  23)   -167.5071         0.010986   
    151. D(H  27,C  24,C  20,N   0)     13.1561         0.010986   
    152. D(H  31,C  28,N  21,H  22)    134.7693         0.017005   
    153. D(H  31,C  28,N  21,C   2)    -51.0439         0.017005   
    154. D(H  30,C  28,N  21,H  22)     15.0559         0.017005   
    155. D(H  30,C  28,N  21,C   2)   -170.7574         0.017005   
    156. D(H  29,C  28,N  21,H  22)   -105.4453         0.017005   
    157. D(H  29,C  28,N  21,C   2)     68.7414         0.017005   
    -----------------------------------------------------------------

Number of atoms                         .... 32
Number of degrees of freedom            .... 157

         *************************************************************
         *                GEOMETRY OPTIMIZATION CYCLE   1            *
         *************************************************************
---------------------------------
CARTESIAN COORDINATES (ANGSTROEM)
---------------------------------
  N     -1.855191    0.790402    0.737067
  C     -1.511251   -0.094392   -0.350035
  C     -1.639316   -1.536130    0.171394
  O     -1.728615   -1.788470    1.358545
  C     -0.090698    0.183081   -0.907507
  C      1.038438   -0.129648    0.086214
  C      2.418158    0.261455   -0.467196
  C      3.558647   -0.080488    0.517822
  N      4.873401    0.225738    0.017118
  H     -2.230612    0.066055   -1.165297
  H     -0.070673    1.242631   -1.193882
  H      0.052880   -0.401935   -1.827719
  H      1.034682   -1.202849    0.328582
  H      0.855444    0.406651    1.028432
  H      2.439198    1.340307   -0.683356
  H      2.601299   -0.261245   -1.417122
  H      3.519231   -1.144684    0.786614
  H      3.397445    0.494525    1.451250
  H      4.842840    1.187647   -0.343120
  H     -1.917735    0.366028    1.652481
  C     -2.255791    2.067982    0.516351
  N     -1.606964   -2.498863   -0.776316
  H     -1.601578   -2.230021   -1.747211
  O     -2.272598    2.558251   -0.597327
  C     -2.698109    2.844735    1.748892
  H     -2.253303    3.844043    1.708542
  H     -3.788310    2.960329    1.710597
  H     -2.423231    2.351938    2.687307
  C     -1.705122   -3.905592   -0.432517
  H     -2.706659   -4.155155   -0.059064
  H     -1.492451   -4.502869   -1.323948
  H     -0.978386   -4.150207    0.349612

----------------------------
CARTESIAN COORDINATES (A.U.)
----------------------------
  NO LB      ZA    FRAG     MASS         X           Y           Z
   0 N     7.0000    0    14.007   -3.505804    1.493643    1.392854
   1 C     6.0000    0    12.011   -2.855851   -0.178375   -0.661471
   2 C     6.0000    0    12.011   -3.097858   -2.902865    0.323888
   3 O     8.0000    0    15.999   -3.266609   -3.379719    2.567279
   4 C     6.0000    0    12.011   -0.171394    0.345972   -1.714940
   5 C     6.0000    0    12.011    1.962364   -0.244998    0.162920
   6 C     6.0000    0    12.011    4.569656    0.494078   -0.882873
   7 C     6.0000    0    12.011    6.724869   -0.152100    0.978542
   8 N     7.0000    0    14.007    9.209393    0.426583    0.032347
   9 H     1.0000    0     1.008   -4.215247    0.124825   -2.202093
  10 H     1.0000    0     1.008   -0.133554    2.348232   -2.256110
  11 H     1.0000    0     1.008    0.099929   -0.759548   -3.453888
  12 H     1.0000    0     1.008    1.955267   -2.273055    0.620930
  13 H     1.0000    0     1.008    1.616555    0.768459    1.943455
  14 H     1.0000    0     1.008    4.609416    2.532813   -1.291357
  15 H     1.0000    0     1.008    4.915743   -0.493681   -2.677972
  16 H     1.0000    0     1.008    6.650382   -2.163139    1.486485
  17 H     1.0000    0     1.008    6.420241    0.934517    2.742465
  18 H     1.0000    0     1.008    9.151642    2.244328   -0.648402
  19 H     1.0000    0     1.008   -3.623993    0.691693    3.122736
  20 C     6.0000    0    12.011   -4.262827    3.907920    0.975761
  21 N     7.0000    0    14.007   -3.036721   -4.722166   -1.467025
  22 H     1.0000    0     1.008   -3.026544   -4.214129   -3.301749
  23 O     8.0000    0    15.999   -4.294587    4.834395   -1.128785
  24 C     6.0000    0    12.011   -5.098688    5.375769    3.304927
  25 H     1.0000    0     1.008   -4.258125    7.264188    3.228677
  26 H     1.0000    0     1.008   -7.158868    5.594211    3.232560
  27 H     1.0000    0     1.008   -4.579244    4.444518    5.078274
  28 C     6.0000    0    12.011   -3.222213   -7.380499   -0.817340
  29 H     1.0000    0     1.008   -5.114845   -7.852106   -0.111614
  30 H     1.0000    0     1.008   -2.820325   -8.509189   -2.501898
  31 H     1.0000    0     1.008   -1.848881   -7.842755    0.660671

--------------------------------
INTERNAL COORDINATES (ANGSTROEM)
--------------------------------
 N      0   0   0     0.000000000000     0.00000000     0.00000000
 C      1   0   0     1.443241419046     0.00000000     0.00000000
 C      2   1   0     1.538472482570   107.42059929     0.00000000
 O      3   2   1     1.216954601473   122.07647399   345.90784641
 C      2   1   3     1.551044317312   112.29123354   237.12080181
 C      5   2   1     1.536303515151   113.84352148    66.26790869
 C      6   5   2     1.537156377390   112.02615386   184.41626804
 C      7   6   5     1.545283678368   112.12708074   181.24988075
 N      8   7   6     1.439811297258   113.90398204   177.86680086
 H      2   1   3     1.099034020901   108.25617439   118.15304538
 H      5   2   1     1.097751674090   106.44757270   304.15955063
 H      5   2   1     1.099839968186   108.97297405   189.05484855
 H      6   5   2     1.100235424688   109.78769256    62.78125429
 H      6   5   2     1.099490252895   109.43203057   306.05511440
 H      7   6   5     1.100495060027   109.71276497    59.79429782
 H      7   6   5     1.099597273329   109.85045752   302.38070161
 H      8   7   6     1.098323932203   110.11575532    55.20349600
 H      8   7   6     1.108112946649   108.34612789   298.56091539
 H      9   8   7     1.027605896757   107.08803353    49.14749897
 H      1   2   3     1.010934075468   116.06917269    12.41938612
 C      1   2   3     1.356984026615   121.66986450   201.47868995
 N      3   2   1     1.351316051733   115.33781695   167.71988329
 H     22   3   2     1.007442770851   119.07082289   353.64886115
 O     21   1   2     1.216932708063   122.15606724   355.67580415
 C     21   1   2     1.522546856721   115.74751867   175.01213711
 H     25  21   1     1.094576471853   108.53387261   135.34420139
 H     25  21   1     1.096980272386   108.31346227   252.17332129
 H     25  21   1     1.095001830189   113.03161451    13.15606937
 C     22   3   2     1.451454066511   121.51686607   179.45703834
 H     29  22   3     1.097646183900   111.26312462    68.74141246
 H     29  22   3     1.093899637359   108.84514078   189.24261429
 H     29  22   3     1.095312268481   109.92046277   308.95605128

---------------------------
INTERNAL COORDINATES (A.U.)
---------------------------
 N      0   0   0     0.000000000000     0.00000000     0.00000000
 C      1   0   0     2.727331027128     0.00000000     0.00000000
 C      2   1   0     2.907291656631   107.42059929     0.00000000
 O      3   2   1     2.299710914199   122.07647399   345.90784641
 C      2   1   3     2.931048981294   112.29123354   237.12080181
 C      5   2   1     2.903192902215   113.84352148    66.26790869
 C      6   5   2     2.904804578277   112.02615386   184.41626804
 C      7   6   5     2.920162951334   112.12708074   181.24988075
 N      8   7   6     2.720849036343   113.90398204   177.86680086
 H      2   1   3     2.076873311365   108.25617439   118.15304538
 H      5   2   1     2.074450027083   106.44757270   304.15955063
 H      5   2   1     2.078396331011   108.97297405   189.05484855
 H      6   5   2     2.079143635499   109.78769256    62.78125429
 H      6   5   2     2.077735464886   109.43203057   306.05511440
 H      7   6   5     2.079634275184   109.71276497    59.79429782
 H      7   6   5     2.077937704199   109.85045752   302.38070161
 H      8   7   6     2.075531438195   110.11575532    55.20349600
 H      8   7   6     2.094029994619   108.34612789   298.56091539
 H      9   8   7     1.941893718474   107.08803353    49.14749897
 H      1   2   3     1.910388542083   116.06917269    12.41938612
 C      1   2   3     2.564328178407   121.66986450   201.47868995
 N      3   2   1     2.553617258147   115.33781695   167.71988329
 H     22   3   2     1.903790932508   119.07082289   353.64886115
 O     21   1   2     2.299669541650   122.15606724   355.67580415
 C     21   1   2     2.877196585265   115.74751867   175.01213711
 H     25  21   1     2.068449764436   108.53387261   135.34420139
 H     25  21   1     2.072992289125   108.31346227   252.17332129
 H     25  21   1     2.069253575200   113.03161451    13.15606937
 C     22   3   2     2.742850681673   121.51686607   179.45703834
 H     29  22   3     2.074250679515   111.26312462    68.74141246
 H     29  22   3     2.067170732605   108.84514078   189.24261429
 H     29  22   3     2.069840218552   109.92046277   308.95605128

---------------------
BASIS SET INFORMATION
---------------------
There are 4 groups of distinct atoms

 Group   1 Type N   : 10s5p1d contracted to 6s2p1d pattern {511111/41/1}
 Group   2 Type C   : 10s5p1d contracted to 6s2p1d pattern {511111/41/1}
 Group   3 Type O   : 10s5p1d contracted to 6s2p1d pattern {511111/41/1}
 Group   4 Type H   : 6s1p contracted to 4s1p pattern {3111/1}

Atom   0N    basis set group =>   1
Atom   1C    basis set group =>   2
Atom   2C    basis set group =>   2
Atom   3O    basis set group =>   3
Atom   4C    basis set group =>   2
Atom   5C    basis set group =>   2
Atom   6C    basis set group =>   2
Atom   7C    basis set group =>   2
Atom   8N    basis set group =>   1
Atom   9H    basis set group =>   4
Atom  10H    basis set group =>   4
Atom  11H    basis set group =>   4
Atom  12H    basis set group =>   4
Atom  13H    basis set group =>   4
Atom  14H    basis set group =>   4
Atom  15H    basis set group =>   4
Atom  16H    basis set group =>   4
Atom  17H    basis set group =>   4
Atom  18H    basis set group =>   4
Atom  19H    basis set group =>   4
Atom  20C    basis set group =>   2
Atom  21N    basis set group =>   1
Atom  22H    basis set group =>   4
Atom  23O    basis set group =>   3
Atom  24C    basis set group =>   2
Atom  25H    basis set group =>   4
Atom  26H    basis set group =>   4
Atom  27H    basis set group =>   4
Atom  28C    basis set group =>   2
Atom  29H    basis set group =>   4
Atom  30H    basis set group =>   4
Atom  31H    basis set group =>   4
---------------------------------
AUXILIARY/J BASIS SET INFORMATION
---------------------------------
There are 4 groups of distinct atoms

 Group   1 Type N   : 12s5p4d2f1g contracted to 6s4p3d1f1g pattern {711111/2111/211/2/1}
 Group   2 Type C   : 12s5p4d2f1g contracted to 6s4p3d1f1g pattern {711111/2111/211/2/1}
 Group   3 Type O   : 12s5p4d2f1g contracted to 6s4p3d1f1g pattern {711111/2111/211/2/1}
 Group   4 Type H   : 5s2p1d contracted to 3s1p1d pattern {311/2/1}

Atom   0N    basis set group =>   1
Atom   1C    basis set group =>   2
Atom   2C    basis set group =>   2
Atom   3O    basis set group =>   3
Atom   4C    basis set group =>   2
Atom   5C    basis set group =>   2
Atom   6C    basis set group =>   2
Atom   7C    basis set group =>   2
Atom   8N    basis set group =>   1
Atom   9H    basis set group =>   4
Atom  10H    basis set group =>   4
Atom  11H    basis set group =>   4
Atom  12H    basis set group =>   4
Atom  13H    basis set group =>   4
Atom  14H    basis set group =>   4
Atom  15H    basis set group =>   4
Atom  16H    basis set group =>   4
Atom  17H    basis set group =>   4
Atom  18H    basis set group =>   4
Atom  19H    basis set group =>   4
Atom  20C    basis set group =>   2
Atom  21N    basis set group =>   1
Atom  22H    basis set group =>   4
Atom  23O    basis set group =>   3
Atom  24C    basis set group =>   2
Atom  25H    basis set group =>   4
Atom  26H    basis set group =>   4
Atom  27H    basis set group =>   4
Atom  28C    basis set group =>   2
Atom  29H    basis set group =>   4
Atom  30H    basis set group =>   4
Atom  31H    basis set group =>   4


           ************************************************************
           *        Program running with 16 parallel MPI-processes    *
           *              working on a common directory               *
           ************************************************************
------------------------------------------------------------------------------
                           ORCA GTO INTEGRAL CALCULATION
                           -- RI-GTO INTEGRALS CHOSEN --
------------------------------------------------------------------------------
------------------------------------------------------------------------------
                   ___                                                        
                  /   \      - P O W E R E D   B Y -                         
                 /     \                                                     
                 |  |  |   _    _      __       _____    __    __             
                 |  |  |  | |  | |    /  \     |  _  \  |  |  /  |          
                  \  \/   | |  | |   /    \    | | | |  |  | /  /          
                 / \  \   | |__| |  /  /\  \   | |_| |  |  |/  /          
                |  |  |   |  __  | /  /__\  \  |    /   |      \           
                |  |  |   | |  | | |   __   |  |    \   |  |\   \          
                \     /   | |  | | |  |  |  |  | |\  \  |  | \   \       
                 \___/    |_|  |_| |__|  |__|  |_| \__\ |__|  \__/        
                                                                              
                      - O R C A' S   B I G   F R I E N D -                    
                                      &                                       
                       - I N T E G R A L  F E E D E R -                       
                                                                              
 v1 FN, 2020, v2 2021                                                         
------------------------------------------------------------------------------


Reading SHARK input file opt.SHARKINP.tmp ... ok
----------------------
SHARK INTEGRAL PACKAGE
----------------------

Number of atoms                             ...     32
Number of basis functions                   ...    364
Number of shells                            ...    216
Maximum angular momentum                    ...      2
Integral batch strategy                     ... SHARK/LIBINT Hybrid
RI-J (if used) integral strategy            ... SPLIT-RIJ (Revised 2003 algorithm where possible)
Printlevel                                  ...      1
Contraction scheme used                     ... SEGMENTED contraction
Coulomb Range Separation                    ... NOT USED
Exchange Range Separation                   ... NOT USED
Finite Nucleus Model                        ... NOT USED
Auxiliary Coulomb fitting basis             ... AVAILABLE
   # of basis functions in Aux-J            ...    884
   # of shells in Aux-J                     ...    300
   Maximum angular momentum in Aux-J        ...      4
Auxiliary J/K fitting basis                 ... NOT available
Auxiliary Correlation fitting basis         ... NOT available
Auxiliary 'external' fitting basis          ... NOT available
Integral threshold                          ...     2.500000e-11
Primitive cut-off                           ...     2.500000e-12
Primitive pair pre-selection threshold      ...     2.500000e-12

Calculating pre-screening integrals         ... done (  0.0 sec) Dimension = 216
Organizing shell pair data                  ... done (  0.1 sec)
Shell pair information
Total number of shell pairs                 ...     23436
Shell pairs after pre-screening             ...     15560
Total number of primitive shell pairs       ...     61703
Primitive shell pairs kept                  ...     29737
          la=0 lb=0:   7309 shell pairs
          la=1 lb=0:   5305 shell pairs
          la=1 lb=1:    913 shell pairs
          la=2 lb=0:   1440 shell pairs
          la=2 lb=1:    514 shell pairs
          la=2 lb=2:     79 shell pairs

Calculating one electron integrals          ... done (  0.0 sec)
Calculating RI/J V-Matrix + Cholesky decomp.... done (  0.0 sec)
Calculating Nuclear repulsion               ... done (  0.0 sec) ENN=    923.325490310282 Eh

SHARK setup successfully completed in   0.3 seconds

Maximum memory used throughout the entire GTOINT-calculation: 22.4 MB


           ************************************************************
           *        Program running with 16 parallel MPI-processes    *
           *              working on a common directory               *
           ************************************************************
-------------------------------------------------------------------------------
                                 ORCA SCF
-------------------------------------------------------------------------------

------------
SCF SETTINGS
------------
Hamiltonian:
 Density Functional     Method          .... DFT(GTOs)
 Exchange Functional    Exchange        .... B88
   X-Alpha parameter    XAlpha          ....  0.666667
   Becke's b parameter  XBeta           ....  0.004200
 Correlation Functional Correlation     .... LYP
 LDA part of GGA corr.  LDAOpt          .... VWN-5
 Gradients option       PostSCFGGA      .... off
 Hybrid DFT is turned on
   Fraction HF Exchange ScalHFX         ....  0.200000
   Scaling of DF-GGA-X  ScalDFX         ....  0.720000
   Scaling of DF-GGA-C  ScalDFC         ....  0.810000
   Scaling of DF-LDA-C  ScalLDAC        ....  1.000000
   Perturbative correction              ....  0.000000
   Density functional embedding theory  .... OFF
   NL short-range parameter             ....  4.800000
 RI-approximation to the Coulomb term is turned on
   Number of AuxJ basis functions       .... 884
   RIJ-COSX (HFX calculated with COS-X)).... on


General Settings:
 Integral files         IntName         .... opt
 Hartree-Fock type      HFTyp           .... UHF
 Total Charge           Charge          ....    0
 Multiplicity           Mult            ....    2
 Number of Electrons    NEL             ....  109
 Basis Dimension        Dim             ....  364
 Nuclear Repulsion      ENuc            ....    923.3254903103 Eh

Convergence Acceleration:
 DIIS                   CNVDIIS         .... on
   Start iteration      DIISMaxIt       ....    12
   Startup error        DIISStart       ....  0.200000
   # of expansion vecs  DIISMaxEq       ....     5
   Bias factor          DIISBfac        ....   1.050
   Max. coefficient     DIISMaxC        ....  10.000
 Trust-Rad. Augm. Hess. CNVTRAH         .... auto
   Auto Start mean grad. ratio tolernc. ....  1.125000
   Auto Start start iteration           ....    20
   Auto Start num. interpolation iter.  ....    10
   Max. Number of Micro iterations      ....    16
   Max. Number of Macro iterations      .... Maxiter - #DIIS iter
   Number of Davidson start vectors     ....     2
   Converg. threshold I  (grad. norm)   ....   1.000e-05
   Converg. threshold II (energy diff.) ....   1.000e-08
   Grad. Scal. Fac. for Micro threshold ....   0.100
   Minimum threshold for Micro iter.    ....   0.010
   NR start threshold (gradient norm)   ....   0.001
   Initial trust radius                 ....   0.400
   Minimum AH scaling param. (alpha)    ....   1.000
   Maximum AH scaling param. (alpha)    .... 1000.000
   Orbital update algorithm             .... Taylor
   White noise on init. David. guess    .... on
   Maximum white noise                  ....   0.010
   Quad. conv. algorithm                .... NR
 SOSCF                  CNVSOSCF        .... off
 Level Shifting         CNVShift        .... on
   Level shift para.    LevelShift      ....    0.2500
   Turn off err/grad.   ShiftErr        ....    0.0010
 Zerner damping         CNVZerner       .... off
 Static damping         CNVDamp         .... on
   Fraction old density DampFac         ....    0.7000
   Max. Damping (<1)    DampMax         ....    0.9800
   Min. Damping (>=0)   DampMin         ....    0.0000
   Turn off err/grad.   DampErr         ....    0.1000
 Fernandez-Rico         CNVRico         .... off

SCF Procedure:
 Maximum # iterations   MaxIter         ....   125
 SCF integral mode      SCFMode         .... Direct
   Integral package                     .... SHARK and LIBINT hybrid scheme
 Reset frequency        DirectResetFreq ....    20
 Integral Threshold     Thresh          ....  2.500e-11 Eh
 Primitive CutOff       TCut            ....  2.500e-12 Eh

Convergence Tolerance:
 Convergence Check Mode ConvCheckMode   .... Total+1el-Energy
 Convergence forced     ConvForced      .... 0
 Energy Change          TolE            ....  1.000e-08 Eh
 1-El. energy change                    ....  1.000e-05 Eh
 DIIS Error             TolErr          ....  5.000e-07


Diagonalization of the overlap matrix:
Smallest eigenvalue                        ... 9.177e-04
Time for diagonalization                   ...    0.015 sec
Threshold for overlap eigenvalues          ... 1.000e-08
Number of eigenvalues below threshold      ... 0
Time for construction of square roots      ...    0.011 sec
Total time needed                          ...    0.027 sec

Time for model grid setup =    0.117 sec

------------------------------
INITIAL GUESS: MODEL POTENTIAL
------------------------------
Loading Hartree-Fock densities                     ... done
Calculating cut-offs                               ... done
Initializing the effective Hamiltonian             ... done
Setting up the integral package (SHARK)            ... done
Starting the Coulomb interaction                   ... done (   0.1 sec)
Reading the grid                                   ... done
Mapping shells                                     ... done
Starting the XC term evaluation                    ... done (   0.0 sec)
  promolecular density results
     # of electrons  =    108.986800711
     EX              =    -87.719758430
     EC              =     -3.659183380
     EX+EC           =    -91.378941810
Transforming the Hamiltonian                       ... done (   0.0 sec)
Diagonalizing the Hamiltonian                      ... done (   0.0 sec)
Back transforming the eigenvectors                 ... done (   0.0 sec)
Now organizing SCF variables                       ... done
                      ------------------
                      INITIAL GUESS DONE (   0.3 sec)
                      ------------------
-------------------
DFT GRID GENERATION
-------------------

General Integration Accuracy     IntAcc      ... 4.388
Radial Grid Type                 RadialGrid  ... OptM3 with GC (2021)
Angular Grid (max. ang.)         AngularGrid ... 4 (Lebedev-302)
Angular grid pruning method      GridPruning ... 4 (adaptive)
Weight generation scheme         WeightScheme... Becke
Basis function cutoff            BFCut       ... 1.0000e-11
Integration weight cutoff        WCut        ... 1.0000e-14
Angular grids for H and He will be reduced by one unit
Partially contracted basis set               ... off
Rotationally invariant grid construction     ... off

Total number of grid points                  ...   141501
Total number of batches                      ...     2226
Average number of points per batch           ...       63
Average number of grid points per atom       ...     4422
Time for grid setup =    0.582 sec

--------------------
COSX GRID GENERATION
--------------------

GRIDX 1
-------
General Integration Accuracy     IntAcc      ... 3.816
Radial Grid Type                 RadialGrid  ... OptM3 with GC (2021)
Angular Grid (max. ang.)         AngularGrid ... 1 (Lebedev-50)
Angular grid pruning method      GridPruning ... 4 (adaptive)
Weight generation scheme         WeightScheme... Becke
Basis function cutoff            BFCut       ... 1.0000e-11
Integration weight cutoff        WCut        ... 1.0000e-14
Angular grids for H and He will be reduced by one unit
Partially contracted basis set               ... on
Rotationally invariant grid construction     ... off

Total number of grid points                  ...    18086
Total number of batches                      ...      300
Average number of points per batch           ...       60
Average number of grid points per atom       ...      565
UseSFitting                                  ... on

GRIDX 2
-------
General Integration Accuracy     IntAcc      ... 4.020
Radial Grid Type                 RadialGrid  ... OptM3 with GC (2021)
Angular Grid (max. ang.)         AngularGrid ... 2 (Lebedev-110)
Angular grid pruning method      GridPruning ... 4 (adaptive)
Weight generation scheme         WeightScheme... Becke
Basis function cutoff            BFCut       ... 1.0000e-11
Integration weight cutoff        WCut        ... 1.0000e-14
Angular grids for H and He will be reduced by one unit
Partially contracted basis set               ... on
Rotationally invariant grid construction     ... off

Total number of grid points                  ...    38284
Total number of batches                      ...      614
Average number of points per batch           ...       62
Average number of grid points per atom       ...     1196
UseSFitting                                  ... on

GRIDX 3
-------
General Integration Accuracy     IntAcc      ... 4.338
Radial Grid Type                 RadialGrid  ... OptM3 with GC (2021)
Angular Grid (max. ang.)         AngularGrid ... 3 (Lebedev-194)
Angular grid pruning method      GridPruning ... 4 (adaptive)
Weight generation scheme         WeightScheme... Becke
Basis function cutoff            BFCut       ... 1.0000e-11
Integration weight cutoff        WCut        ... 1.0000e-14
Angular grids for H and He will be reduced by one unit
Partially contracted basis set               ... on
Rotationally invariant grid construction     ... off

Total number of grid points                  ...    83424
Total number of batches                      ...     1320
Average number of points per batch           ...       63
Average number of grid points per atom       ...     2607
UseSFitting                                  ... on

Time for X-Grid setup             =    0.668 sec

--------------
SCF ITERATIONS
--------------
ITER       Energy         Delta-E        Max-DP      RMS-DP      [F,P]     Damp
               ***  Starting incremental Fock matrix formation  ***
  0   -667.7287213657   0.000000000000 0.06269748  0.00094732  0.1304413 0.7000
  1   -667.9602182030  -0.231496837303 0.04972989  0.00068070  0.0514168 0.7000
                               ***Turning on DIIS***
  2   -668.0458706316  -0.085652428557 0.07911906  0.00106829  0.0179851 0.0000
  3   -668.1839251837  -0.138054552117 0.04476200  0.00050729  0.0256475 0.0000
  4   -668.2149626972  -0.031037513507 0.01655195  0.00017592  0.0077374 0.0000
  5   -668.2166364020  -0.001673704755 0.00741085  0.00007048  0.0057243 0.0000
  6   -668.2170607286  -0.000424326602 0.00481879  0.00004316  0.0009395 0.0000
               *** Restarting incremental Fock matrix formation ***
                                   *** Resetting DIIS ***
  7   -668.2170979385  -0.000037209962 0.00201404  0.00001889  0.0006584 0.0000
  8   -668.2170882990   0.000009639488 0.00090126  0.00000729  0.0010609 0.0000
  9   -668.2171086944  -0.000020395392 0.00036484  0.00000442  0.0002844 0.0000
 10   -668.2171104179  -0.000001723497 0.00019134  0.00000184  0.0000776 0.0000
 11   -668.2171105913  -0.000000173372 0.00009367  0.00000112  0.0000869 0.0000
 12   -668.2171107166  -0.000000125347 0.00008878  0.00000069  0.0000280 0.0000
 13   -668.2171107521  -0.000000035439 0.00005166  0.00000038  0.0000158 0.0000
 14   -668.2171107557  -0.000000003581 0.00003571  0.00000023  0.0000089 0.0000
 15   -668.2171107529   0.000000002807 0.00001380  0.00000011  0.0000060 0.0000
 16   -668.2171107449   0.000000007936 0.00000829  0.00000006  0.0000019 0.0000
 17   -668.2171107408   0.000000004168 0.00000425  0.00000003  0.0000011 0.0000
                            ***DIIS convergence achieved***

               *****************************************************
               *                     SUCCESS                       *
               *           SCF CONVERGED AFTER  18 CYCLES          *
               *****************************************************

Old exchange energy                            =    -17.865824323 Eh
New exchange energy                            =    -17.865898664 Eh
Exchange energy change after final integration =     -0.000074341 Eh
Total energy after final integration           =   -668.217185093 Eh
Final COS-X integration done in                =     2.233 sec

----------------
TOTAL SCF ENERGY
----------------

Total Energy       :         -668.21718509 Eh          -18183.11402 eV

Components:
Nuclear Repulsion  :          923.32549031 Eh           25124.96392 eV
Electronic Energy  :        -1591.54267540 Eh          -43308.07794 eV
One Electron Energy:        -2740.10943331 Eh          -74562.16835 eV
Two Electron Energy:         1148.56675790 Eh           31254.09041 eV
Max COSX asymmetry :            0.00000115 Eh               0.00003 eV

Virial components:
Potential Energy   :        -1332.05554386 Eh          -36247.07411 eV
Kinetic Energy     :          663.83835876 Eh           18063.96010 eV
Virial Ratio       :            2.00659622


DFT components:
N(Alpha)           :       55.000050107615 electrons
N(Beta)            :       54.000048407069 electrons
N(Total)           :      109.000098514685 electrons
E(X)               :      -70.951239212577 Eh       
E(C)               :       -4.312909989669 Eh       
E(XC)              :      -75.264149202246 Eh       
DFET-embed. en.    :        0.000000000000 Eh       

---------------
SCF CONVERGENCE
---------------

  Last Energy change         ...   -1.0656e-08  Tolerance :   1.0000e-08
  Last MAX-Density change    ...    0.0000e+00  Tolerance :   1.0000e-07
  Last RMS-Density change    ...    0.0000e+00  Tolerance :   5.0000e-09
  Last DIIS Error            ...    9.0303e-07  Tolerance :   5.0000e-07

             **** THE GBW FILE WAS UPDATED (opt.gbw) ****
             **** DENSITY opt.scfp WAS UPDATED ****
             **** ENERGY FILE WAS UPDATED (opt.en.tmp) ****
----------------------
UHF SPIN CONTAMINATION
----------------------

Warning: in a DFT calculation there is little theoretical justification to 
         calculate <S**2> as in Hartree-Fock theory. We will do it anyways
         but you should keep in mind that the values have only limited relevance

Expectation value of <S**2>     :     0.753613
Ideal value S*(S+1) for S=0.5   :     0.750000
Deviation                       :     0.003613

             **** THE GBW FILE WAS UPDATED (opt.gbw) ****
             **** DENSITY opt.scfp WAS UPDATED ****
----------------
ORBITAL ENERGIES
----------------
                 SPIN UP ORBITALS
  NO   OCC          E(Eh)            E(eV) 
   0   1.0000     -19.125347      -520.4272 
   1   1.0000     -19.102624      -519.8088 
   2   1.0000     -14.373784      -391.1305 
   3   1.0000     -14.351662      -390.5286 
   4   1.0000     -14.342635      -390.2829 
   5   1.0000     -10.302888      -280.3558 
   6   1.0000     -10.288643      -279.9682 
   7   1.0000     -10.240651      -278.6623 
   8   1.0000     -10.229196      -278.3506 
   9   1.0000     -10.212985      -277.9094 
  10   1.0000     -10.194891      -277.4171 
  11   1.0000     -10.194303      -277.4011 
  12   1.0000     -10.190381      -277.2944 
  13   1.0000     -10.188241      -277.2361 
  14   1.0000      -1.057789       -28.7839 
  15   1.0000      -1.034413       -28.1478 
  16   1.0000      -0.938302       -25.5325 
  17   1.0000      -0.924246       -25.1500 
  18   1.0000      -0.885290       -24.0900 
  19   1.0000      -0.805556       -21.9203 
  20   1.0000      -0.764373       -20.7997 
  21   1.0000      -0.730734       -19.8843 
  22   1.0000      -0.713133       -19.4053 
  23   1.0000      -0.668398       -18.1880 
  24   1.0000      -0.619579       -16.8596 
  25   1.0000      -0.603500       -16.4221 
  26   1.0000      -0.597125       -16.2486 
  27   1.0000      -0.568696       -15.4750 
  28   1.0000      -0.542988       -14.7755 
  29   1.0000      -0.489645       -13.3239 
  30   1.0000      -0.487357       -13.2617 
  31   1.0000      -0.476822       -12.9750 
  32   1.0000      -0.472513       -12.8577 
  33   1.0000      -0.462246       -12.5784 
  34   1.0000      -0.452770       -12.3205 
  35   1.0000      -0.447149       -12.1675 
  36   1.0000      -0.435461       -11.8495 
  37   1.0000      -0.431149       -11.7322 
  38   1.0000      -0.411505       -11.1976 
  39   1.0000      -0.408187       -11.1073 
  40   1.0000      -0.404337       -11.0026 
  41   1.0000      -0.394846       -10.7443 
  42   1.0000      -0.391997       -10.6668 
  43   1.0000      -0.379204       -10.3187 
  44   1.0000      -0.368963       -10.0400 
  45   1.0000      -0.368016       -10.0142 
  46   1.0000      -0.346387        -9.4257 
  47   1.0000      -0.343085        -9.3358 
  48   1.0000      -0.337783        -9.1915 
  49   1.0000      -0.280297        -7.6273 
  50   1.0000      -0.275476        -7.4961 
  51   1.0000      -0.272834        -7.4242 
  52   1.0000      -0.263526        -7.1709 
  53   1.0000      -0.251950        -6.8559 
  54   1.0000      -0.249797        -6.7973 
  55   0.0000       0.003937         0.1071 
  56   0.0000       0.007886         0.2146 
  57   0.0000       0.021630         0.5886 
  58   0.0000       0.026362         0.7174 
  59   0.0000       0.029735         0.8091 
  60   0.0000       0.031941         0.8691 
  61   0.0000       0.043160         1.1744 
  62   0.0000       0.056824         1.5463 
  63   0.0000       0.060170         1.6373 
  64   0.0000       0.075865         2.0644 
  65   0.0000       0.089381         2.4322 
  66   0.0000       0.097286         2.6473 
  67   0.0000       0.112388         3.0582 
  68   0.0000       0.122620         3.3367 
  69   0.0000       0.147848         4.0231 
  70   0.0000       0.151383         4.1193 
  71   0.0000       0.159661         4.3446 
  72   0.0000       0.165143         4.4938 
  73   0.0000       0.166591         4.5332 
  74   0.0000       0.176060         4.7908 
  75   0.0000       0.185179         5.0390 
  76   0.0000       0.185639         5.0515 
  77   0.0000       0.186592         5.0774 
  78   0.0000       0.193930         5.2771 
  79   0.0000       0.205168         5.5829 
  80   0.0000       0.208651         5.6777 
  81   0.0000       0.213094         5.7986 
  82   0.0000       0.219765         5.9801 
  83   0.0000       0.222445         6.0530 
  84   0.0000       0.232876         6.3369 
  85   0.0000       0.238619         6.4931 
  86   0.0000       0.246651         6.7117 
  87   0.0000       0.248289         6.7563 
  88   0.0000       0.254431         6.9234 
  89   0.0000       0.255671         6.9572 
  90   0.0000       0.261129         7.1057 
  91   0.0000       0.271469         7.3871 
  92   0.0000       0.276290         7.5182 
  93   0.0000       0.277413         7.5488 
  94   0.0000       0.283110         7.7038 
  95   0.0000       0.288433         7.8487 
  96   0.0000       0.298581         8.1248 
  97   0.0000       0.303088         8.2474 
  98   0.0000       0.309965         8.4346 
  99   0.0000       0.319450         8.6927 
 100   0.0000       0.322524         8.7763 
 101   0.0000       0.323211         8.7950 
 102   0.0000       0.332954         9.0601 
 103   0.0000       0.346233         9.4215 
 104   0.0000       0.364331         9.9139 
 105   0.0000       0.368158        10.0181 
 106   0.0000       0.371635        10.1127 
 107   0.0000       0.384279        10.4568 
 108   0.0000       0.389792        10.6068 
 109   0.0000       0.402178        10.9438 
 110   0.0000       0.416361        11.3298 
 111   0.0000       0.420325        11.4376 
 112   0.0000       0.437450        11.9036 
 113   0.0000       0.438731        11.9385 
 114   0.0000       0.441681        12.0187 
 115   0.0000       0.459521        12.5042 
 116   0.0000       0.466540        12.6952 
 117   0.0000       0.472968        12.8701 
 118   0.0000       0.493297        13.4233 
 119   0.0000       0.499243        13.5851 
 120   0.0000       0.503726        13.7071 
 121   0.0000       0.521384        14.1876 
 122   0.0000       0.527833        14.3631 
 123   0.0000       0.541601        14.7377 
 124   0.0000       0.552393        15.0314 
 125   0.0000       0.566574        15.4173 
 126   0.0000       0.575884        15.6706 
 127   0.0000       0.595300        16.1989 
 128   0.0000       0.623315        16.9613 
 129   0.0000       0.634283        17.2597 
 130   0.0000       0.640735        17.4353 
 131   0.0000       0.664727        18.0881 
 132   0.0000       0.680298        18.5119 
 133   0.0000       0.682517        18.5722 
 134   0.0000       0.706027        19.2120 
 135   0.0000       0.726797        19.7772 
 136   0.0000       0.735873        20.0241 
 137   0.0000       0.757889        20.6232 
 138   0.0000       0.772473        21.0201 
 139   0.0000       0.789417        21.4811 
 140   0.0000       0.804949        21.9038 
 141   0.0000       0.811764        22.0892 
 142   0.0000       0.821051        22.3419 
 143   0.0000       0.831287        22.6205 
 144   0.0000       0.839133        22.8340 
 145   0.0000       0.846788        23.0423 
 146   0.0000       0.857559        23.3354 
 147   0.0000       0.860646        23.4194 
 148   0.0000       0.865637        23.5552 
 149   0.0000       0.882593        24.0166 
 150   0.0000       0.884970        24.0813 
 151   0.0000       0.896139        24.3852 
 152   0.0000       0.905175        24.6311 
 153   0.0000       0.909642        24.7526 
 154   0.0000       0.915816        24.9206 
 155   0.0000       0.918514        24.9940 
 156   0.0000       0.921856        25.0850 
 157   0.0000       0.934388        25.4260 
 158   0.0000       0.935984        25.4694 
 159   0.0000       0.943340        25.6696 
 160   0.0000       0.952165        25.9097 
 161   0.0000       0.960560        26.1382 
 162   0.0000       0.972540        26.4642 
 163   0.0000       0.977632        26.6027 
 164   0.0000       0.996755        27.1231 
 165   0.0000       1.017055        27.6755 
 166   0.0000       1.018465        27.7138 
 167   0.0000       1.028679        27.9918 
 168   0.0000       1.043251        28.3883 
 169   0.0000       1.052534        28.6409 
 170   0.0000       1.055734        28.7280 
 171   0.0000       1.078711        29.3532 
 172   0.0000       1.113448        30.2985 
 173   0.0000       1.119067        30.4514 
 174   0.0000       1.142583        31.0913 
 175   0.0000       1.150141        31.2969 
 176   0.0000       1.163372        31.6570 
 177   0.0000       1.165388        31.7118 
 178   0.0000       1.174453        31.9585 
 179   0.0000       1.186899        32.2972 
 180   0.0000       1.206227        32.8231 
 181   0.0000       1.216871        33.1127 
 182   0.0000       1.238031        33.6885 
 183   0.0000       1.248111        33.9628 
 184   0.0000       1.262402        34.3517 
 185   0.0000       1.289114        35.0786 
 186   0.0000       1.296103        35.2687 
 187   0.0000       1.323743        36.0209 
 188   0.0000       1.334981        36.3267 
 189   0.0000       1.355724        36.8911 
 190   0.0000       1.371711        37.3261 
 191   0.0000       1.378579        37.5131 
 192   0.0000       1.384724        37.6803 
 193   0.0000       1.401770        38.1441 
 194   0.0000       1.409014        38.3412 
 195   0.0000       1.411742        38.4155 
 196   0.0000       1.437115        39.1059 
 197   0.0000       1.446215        39.3535 
 198   0.0000       1.470539        40.0154 
 199   0.0000       1.485208        40.4146 
 200   0.0000       1.499494        40.8033 
 201   0.0000       1.503506        40.9125 
 202   0.0000       1.523982        41.4697 
 203   0.0000       1.527668        41.5700 
 204   0.0000       1.553522        42.2735 
 205   0.0000       1.561050        42.4783 
 206   0.0000       1.574033        42.8316 
 207   0.0000       1.579891        42.9910 
 208   0.0000       1.587130        43.1880 
 209   0.0000       1.596000        43.4294 
 210   0.0000       1.602445        43.6047 
 211   0.0000       1.620068        44.0843 
 212   0.0000       1.624470        44.2041 
 213   0.0000       1.627626        44.2900 
 214   0.0000       1.653118        44.9836 
 215   0.0000       1.667566        45.3768 
 216   0.0000       1.668678        45.4070 
 217   0.0000       1.676864        45.6298 
 218   0.0000       1.685541        45.8659 
 219   0.0000       1.693605        46.0853 
 220   0.0000       1.705857        46.4187 
 221   0.0000       1.719394        46.7871 
 222   0.0000       1.724440        46.9244 
 223   0.0000       1.734200        47.1900 
 224   0.0000       1.743028        47.4302 
 225   0.0000       1.752675        47.6927 
 226   0.0000       1.775546        48.3151 
 227   0.0000       1.782151        48.4948 
 228   0.0000       1.803008        49.0623 
 229   0.0000       1.815107        49.3916 
 230   0.0000       1.836487        49.9733 
 231   0.0000       1.839682        50.0603 
 232   0.0000       1.864702        50.7411 
 233   0.0000       1.875908        51.0460 
 234   0.0000       1.884080        51.2684 
 235   0.0000       1.909625        51.9635 
 236   0.0000       1.921764        52.2939 
 237   0.0000       1.931073        52.5472 
 238   0.0000       1.960558        53.3495 
 239   0.0000       1.977320        53.8056 
 240   0.0000       1.987238        54.0755 
 241   0.0000       1.997752        54.3616 
 242   0.0000       2.024450        55.0881 
 243   0.0000       2.037729        55.4494 
 244   0.0000       2.050490        55.7967 
 245   0.0000       2.064884        56.1884 
 246   0.0000       2.085995        56.7628 
 247   0.0000       2.097138        57.0660 
 248   0.0000       2.113249        57.5044 
 249   0.0000       2.146403        58.4066 
 250   0.0000       2.153046        58.5874 
 251   0.0000       2.176194        59.2172 
 252   0.0000       2.186581        59.4999 
 253   0.0000       2.198909        59.8354 
 254   0.0000       2.228045        60.6282 
 255   0.0000       2.258424        61.4549 
 256   0.0000       2.265043        61.6350 
 257   0.0000       2.274592        61.8948 
 258   0.0000       2.287322        62.2412 
 259   0.0000       2.303037        62.6688 
 260   0.0000       2.314933        62.9925 
 261   0.0000       2.338343        63.6296 
 262   0.0000       2.356262        64.1172 
 263   0.0000       2.357427        64.1489 
 264   0.0000       2.370879        64.5149 
 265   0.0000       2.379168        64.7405 
 266   0.0000       2.389723        65.0277 
 267   0.0000       2.391898        65.0869 
 268   0.0000       2.406347        65.4800 
 269   0.0000       2.421568        65.8942 
 270   0.0000       2.443218        66.4834 
 271   0.0000       2.449958        66.6667 
 272   0.0000       2.466356        67.1130 
 273   0.0000       2.475650        67.3659 
 274   0.0000       2.479500        67.4706 
 275   0.0000       2.491459        67.7960 
 276   0.0000       2.500990        68.0554 
 277   0.0000       2.521504        68.6136 
 278   0.0000       2.536274        69.0155 
 279   0.0000       2.571320        69.9692 
 280   0.0000       2.611857        71.0722 
 281   0.0000       2.623730        71.3953 
 282   0.0000       2.628133        71.5151 
 283   0.0000       2.640936        71.8635 
 284   0.0000       2.674848        72.7863 
 285   0.0000       2.704150        73.5837 
 286   0.0000       2.722736        74.0894 
 287   0.0000       2.757725        75.0415 
 288   0.0000       2.769973        75.3748 
 289   0.0000       2.777615        75.5828 
 290   0.0000       2.820974        76.7626 
 291   0.0000       2.829664        76.9991 
 292   0.0000       2.994470        81.4837 
 293   0.0000       3.038886        82.6923 
 294   0.0000       3.103051        84.4383 
 295   0.0000       3.125535        85.0501 
 296   0.0000       3.386392        92.1484 
 297   0.0000       3.437743        93.5457 
 298   0.0000       3.454051        93.9895 
 299   0.0000       3.460333        94.1604 
 300   0.0000       4.965736       135.1246 
 301   0.0000       4.973422       135.3337 
 302   0.0000       4.986174       135.6807 
 303   0.0000       4.987697       135.7221 
 304   0.0000       5.007422       136.2589 
 305   0.0000       5.011131       136.3598 
 306   0.0000       5.012173       136.3882 
 307   0.0000       5.032064       136.9294 
 308   0.0000       5.061559       137.7320 
 309   0.0000       5.082750       138.3087 
 310   0.0000       5.107538       138.9832 
 311   0.0000       5.145876       140.0264 
 312   0.0000       5.192503       141.2952 
 313   0.0000       5.242562       142.6574 
 314   0.0000       5.255994       143.0229 
 315   0.0000       5.272240       143.4649 
 316   0.0000       5.294693       144.0759 
 317   0.0000       5.309564       144.4806 
 318   0.0000       5.332659       145.1090 
 319   0.0000       5.356870       145.7678 
 320   0.0000       5.379518       146.3841 
 321   0.0000       5.474203       148.9606 
 322   0.0000       5.590454       152.1240 
 323   0.0000       5.639831       153.4676 
 324   0.0000       5.711185       155.4092 
 325   0.0000       5.737632       156.1289 
 326   0.0000       5.861355       159.4956 
 327   0.0000       7.059571       192.1007 
 328   0.0000       7.303611       198.7414 
 329   0.0000       7.340027       199.7323 
 330   0.0000       9.090834       247.3742 
 331   0.0000       9.121215       248.2009 
 332   0.0000      29.599336       805.4389 
 333   0.0000      29.636800       806.4583 
 334   0.0000      29.789923       810.6250 
 335   0.0000      29.892182       813.4076 
 336   0.0000      29.953837       815.0853 
 337   0.0000      30.052076       817.7586 
 338   0.0000      30.083092       818.6025 
 339   0.0000      30.150380       820.4335 
 340   0.0000      30.276794       823.8735 
 341   0.0000      36.576670       995.3018 
 342   0.0000      36.601437       995.9757 
 343   0.0000      36.605915       996.0976 
 344   0.0000      36.607474       996.1400 
 345   0.0000      36.618566       996.4418 
 346   0.0000      36.629316       996.7344 
 347   0.0000      36.632376       996.8176 
 348   0.0000      36.670124       997.8448 
 349   0.0000      36.698800       998.6251 
 350   0.0000      36.714809       999.0607 
 351   0.0000      36.731435       999.5131 
 352   0.0000      36.799416      1001.3630 
 353   0.0000      36.808766      1001.6174 
 354   0.0000      36.853466      1002.8338 
 355   0.0000      36.883310      1003.6459 
 356   0.0000      36.888432      1003.7853 
 357   0.0000      36.918058      1004.5914 
 358   0.0000      36.942121      1005.2462 
 359   0.0000      41.001211      1115.6997 
 360   0.0000      41.245306      1122.3418 
 361   0.0000      41.280156      1123.2902 
 362   0.0000      53.628580      1459.3078 
 363   0.0000      53.656276      1460.0615 

                 SPIN DOWN ORBITALS
  NO   OCC          E(Eh)            E(eV) 
   0   1.0000     -19.125347      -520.4272 
   1   1.0000     -19.102624      -519.8088 
   2   1.0000     -14.373783      -391.1305 
   3   1.0000     -14.351662      -390.5286 
   4   1.0000     -14.324168      -389.7804 
   5   1.0000     -10.302889      -280.3558 
   6   1.0000     -10.288643      -279.9682 
   7   1.0000     -10.240626      -278.6616 
   8   1.0000     -10.229196      -278.3506 
   9   1.0000     -10.213750      -277.9303 
  10   1.0000     -10.194867      -277.4164 
  11   1.0000     -10.193310      -277.3741 
  12   1.0000     -10.190290      -277.2919 
  13   1.0000     -10.188241      -277.2361 
  14   1.0000      -1.057788       -28.7839 
  15   1.0000      -1.034412       -28.1478 
  16   1.0000      -0.938300       -25.5324 
  17   1.0000      -0.924234       -25.1497 
  18   1.0000      -0.853738       -23.2314 
  19   1.0000      -0.802668       -21.8417 
  20   1.0000      -0.760260       -20.6877 
  21   1.0000      -0.730605       -19.8808 
  22   1.0000      -0.709151       -19.2970 
  23   1.0000      -0.663618       -18.0580 
  24   1.0000      -0.614962       -16.7340 
  25   1.0000      -0.603498       -16.4220 
  26   1.0000      -0.593449       -16.1486 
  27   1.0000      -0.568489       -15.4694 
  28   1.0000      -0.542967       -14.7749 
  29   1.0000      -0.487312       -13.2604 
  30   1.0000      -0.485200       -13.2030 
  31   1.0000      -0.476541       -12.9673 
  32   1.0000      -0.471327       -12.8254 
  33   1.0000      -0.460969       -12.5436 
  34   1.0000      -0.451569       -12.2878 
  35   1.0000      -0.441627       -12.0173 
  36   1.0000      -0.434775       -11.8308 
  37   1.0000      -0.426366       -11.6020 
  38   1.0000      -0.410196       -11.1620 
  39   1.0000      -0.407154       -11.0792 
  40   1.0000      -0.400005       -10.8847 
  41   1.0000      -0.394379       -10.7316 
  42   1.0000      -0.388027       -10.5587 
  43   1.0000      -0.375377       -10.2145 
  44   1.0000      -0.366737        -9.9794 
  45   1.0000      -0.365815        -9.9543 
  46   1.0000      -0.345403        -9.3989 
  47   1.0000      -0.339281        -9.2323 
  48   1.0000      -0.336957        -9.1691 
  49   1.0000      -0.275472        -7.4960 
  50   1.0000      -0.272821        -7.4238 
  51   1.0000      -0.261692        -7.1210 
  52   1.0000      -0.251775        -6.8512 
  53   1.0000      -0.249787        -6.7971 
  54   0.0000      -0.088639        -2.4120 
  55   0.0000       0.003968         0.1080 
  56   0.0000       0.007924         0.2156 
  57   0.0000       0.021742         0.5916 
  58   0.0000       0.026516         0.7215 
  59   0.0000       0.030939         0.8419 
  60   0.0000       0.032113         0.8738 
  61   0.0000       0.043752         1.1906 
  62   0.0000       0.059069         1.6073 
  63   0.0000       0.060242         1.6393 
  64   0.0000       0.076487         2.0813 
  65   0.0000       0.089745         2.4421 
  66   0.0000       0.098871         2.6904 
  67   0.0000       0.112630         3.0648 
  68   0.0000       0.125363         3.4113 
  69   0.0000       0.148338         4.0365 
  70   0.0000       0.151979         4.1356 
  71   0.0000       0.160175         4.3586 
  72   0.0000       0.165384         4.5003 
  73   0.0000       0.167201         4.5498 
  74   0.0000       0.177332         4.8255 
  75   0.0000       0.185714         5.0535 
  76   0.0000       0.187246         5.0952 
  77   0.0000       0.187486         5.1018 
  78   0.0000       0.194096         5.2816 
  79   0.0000       0.206667         5.6237 
  80   0.0000       0.209316         5.6958 
  81   0.0000       0.216972         5.9041 
  82   0.0000       0.220565         6.0019 
  83   0.0000       0.223845         6.0911 
  84   0.0000       0.234702         6.3866 
  85   0.0000       0.239154         6.5077 
  86   0.0000       0.247189         6.7263 
  87   0.0000       0.248720         6.7680 
  88   0.0000       0.255445         6.9510 
  89   0.0000       0.257331         7.0023 
  90   0.0000       0.263587         7.1726 
  91   0.0000       0.272478         7.4145 
  92   0.0000       0.276737         7.5304 
  93   0.0000       0.278137         7.5685 
  94   0.0000       0.283425         7.7124 
  95   0.0000       0.289174         7.8688 
  96   0.0000       0.299041         8.1373 
  97   0.0000       0.304371         8.2824 
  98   0.0000       0.310980         8.4622 
  99   0.0000       0.319764         8.7012 
 100   0.0000       0.324085         8.8188 
 101   0.0000       0.325506         8.8575 
 102   0.0000       0.335122         9.1191 
 103   0.0000       0.346410         9.4263 
 104   0.0000       0.364589         9.9210 
 105   0.0000       0.370096        10.0708 
 106   0.0000       0.373299        10.1580 
 107   0.0000       0.385809        10.4984 
 108   0.0000       0.390771        10.6334 
 109   0.0000       0.402537        10.9536 
 110   0.0000       0.416928        11.3452 
 111   0.0000       0.422098        11.4859 
 112   0.0000       0.437955        11.9174 
 113   0.0000       0.439024        11.9464 
 114   0.0000       0.442190        12.0326 
 115   0.0000       0.460011        12.5175 
 116   0.0000       0.468951        12.7608 
 117   0.0000       0.473983        12.8977 
 118   0.0000       0.493922        13.4403 
 119   0.0000       0.499981        13.6052 
 120   0.0000       0.508270        13.8307 
 121   0.0000       0.523639        14.2489 
 122   0.0000       0.528980        14.3943 
 123   0.0000       0.542659        14.7665 
 124   0.0000       0.557205        15.1623 
 125   0.0000       0.566816        15.4239 
 126   0.0000       0.595207        16.1964 
 127   0.0000       0.610040        16.6000 
 128   0.0000       0.627896        17.0859 
 129   0.0000       0.640501        17.4289 
 130   0.0000       0.646721        17.5982 
 131   0.0000       0.665979        18.1222 
 132   0.0000       0.680678        18.5222 
 133   0.0000       0.685980        18.6665 
 134   0.0000       0.707556        19.2536 
 135   0.0000       0.729038        19.8381 
 136   0.0000       0.740405        20.1474 
 137   0.0000       0.758994        20.6533 
 138   0.0000       0.773249        21.0412 
 139   0.0000       0.790957        21.5230 
 140   0.0000       0.805456        21.9176 
 141   0.0000       0.812189        22.1008 
 142   0.0000       0.821195        22.3459 
 143   0.0000       0.831796        22.6343 
 144   0.0000       0.840041        22.8587 
 145   0.0000       0.847009        23.0483 
 146   0.0000       0.858958        23.3734 
 147   0.0000       0.862137        23.4599 
 148   0.0000       0.867421        23.6037 
 149   0.0000       0.883459        24.0401 
 150   0.0000       0.885353        24.0917 
 151   0.0000       0.899151        24.4671 
 152   0.0000       0.905640        24.6437 
 153   0.0000       0.912336        24.8259 
 154   0.0000       0.916856        24.9489 
 155   0.0000       0.918980        25.0067 
 156   0.0000       0.922060        25.0905 
 157   0.0000       0.935936        25.4681 
 158   0.0000       0.936303        25.4781 
 159   0.0000       0.943602        25.6767 
 160   0.0000       0.952621        25.9221 
 161   0.0000       0.960909        26.1477 
 162   0.0000       0.973115        26.4798 
 163   0.0000       0.978384        26.6232 
 164   0.0000       0.997112        27.1328 
 165   0.0000       1.017840        27.6968 
 166   0.0000       1.021160        27.7872 
 167   0.0000       1.030393        28.0384 
 168   0.0000       1.043675        28.3998 
 169   0.0000       1.053074        28.6556 
 170   0.0000       1.055870        28.7317 
 171   0.0000       1.082693        29.4616 
 172   0.0000       1.114070        30.3154 
 173   0.0000       1.121204        30.5095 
 174   0.0000       1.143230        31.1089 
 175   0.0000       1.150769        31.3140 
 176   0.0000       1.163628        31.6639 
 177   0.0000       1.166432        31.7402 
 178   0.0000       1.175453        31.9857 
 179   0.0000       1.187906        32.3246 
 180   0.0000       1.207428        32.8558 
 181   0.0000       1.217858        33.1396 
 182   0.0000       1.249356        33.9967 
 183   0.0000       1.253713        34.1153 
 184   0.0000       1.270359        34.5682 
 185   0.0000       1.292557        35.1723 
 186   0.0000       1.308132        35.5961 
 187   0.0000       1.325024        36.0557 
 188   0.0000       1.335658        36.3451 
 189   0.0000       1.355951        36.8973 
 190   0.0000       1.372075        37.3361 
 191   0.0000       1.382021        37.6067 
 192   0.0000       1.385418        37.6991 
 193   0.0000       1.401782        38.1444 
 194   0.0000       1.409198        38.3462 
 195   0.0000       1.411864        38.4188 
 196   0.0000       1.437844        39.1257 
 197   0.0000       1.446925        39.3728 
 198   0.0000       1.471309        40.0364 
 199   0.0000       1.485482        40.4220 
 200   0.0000       1.499639        40.8073 
 201   0.0000       1.504260        40.9330 
 202   0.0000       1.524593        41.4863 
 203   0.0000       1.528363        41.5889 
 204   0.0000       1.555786        42.3351 
 205   0.0000       1.563373        42.5415 
 206   0.0000       1.575323        42.8667 
 207   0.0000       1.580424        43.0055 
 208   0.0000       1.587968        43.2108 
 209   0.0000       1.596605        43.4458 
 210   0.0000       1.605873        43.6980 
 211   0.0000       1.621038        44.1107 
 212   0.0000       1.624753        44.2118 
 213   0.0000       1.630376        44.3648 
 214   0.0000       1.656174        45.0668 
 215   0.0000       1.668489        45.4019 
 216   0.0000       1.669645        45.4334 
 217   0.0000       1.680691        45.7339 
 218   0.0000       1.687009        45.9059 
 219   0.0000       1.694318        46.1047 
 220   0.0000       1.706809        46.4446 
 221   0.0000       1.720139        46.8074 
 222   0.0000       1.724807        46.9344 
 223   0.0000       1.738382        47.3038 
 224   0.0000       1.744378        47.4669 
 225   0.0000       1.753340        47.7108 
[...]
  6 C s       :     2.885230  s :     2.885230
      pz      :     1.019266  p :     3.032362
      px      :     0.990014
      py      :     1.023082
      dz2     :     0.025666  d :     0.166694
      dxz     :     0.044577
      dyz     :     0.030034
      dx2y2   :     0.045379
      dxy     :     0.021038
  7 C s       :     2.879999  s :     2.879999
      pz      :     1.000997  p :     2.991192
      px      :     0.956594
      py      :     1.033600
      dz2     :     0.029203  d :     0.217020
      dxz     :     0.054367
      dyz     :     0.035971
      dx2y2   :     0.065724
      dxy     :     0.031755
  8 N s       :     3.419696  s :     3.419696
      pz      :     1.022978  p :     3.598497
      px      :     1.360115
      py      :     1.215404
      dz2     :     0.005185  d :     0.047932
      dxz     :     0.010038
      dyz     :     0.006639
      dx2y2   :     0.019683
      dxy     :     0.006387
  9 H s       :     0.849980  s :     0.849980
      pz      :     0.033623  p :     0.083044
      px      :     0.032313
      py      :     0.017108
 10 H s       :     0.858428  s :     0.858428
      pz      :     0.019754  p :     0.082759
      px      :     0.016365
      py      :     0.046641
 11 H s       :     0.876915  s :     0.876915
      pz      :     0.036361  p :     0.080164
      px      :     0.017093
      py      :     0.026710
 12 H s       :     0.870078  s :     0.870078
      pz      :     0.020139  p :     0.080640
      px      :     0.016231
      py      :     0.044270
 13 H s       :     0.869857  s :     0.869857
      pz      :     0.037223  p :     0.081013
      px      :     0.017436
      py      :     0.026353
 14 H s       :     0.876698  s :     0.876698
      pz      :     0.019928  p :     0.079831
      px      :     0.015918
      py      :     0.043985
 15 H s       :     0.873542  s :     0.873542
      pz      :     0.037196  p :     0.080314
      px      :     0.017083
      py      :     0.026035
 16 H s       :     0.882569  s :     0.882569
      pz      :     0.019513  p :     0.077446
      px      :     0.013009
      py      :     0.044924
 17 H s       :     0.865094  s :     0.865094
      pz      :     0.036556  p :     0.078703
      px      :     0.015245
      py      :     0.026903
 18 H s       :     0.813738  s :     0.813738
      pz      :     0.035528  p :     0.140459
      px      :     0.033566
      py      :     0.071365
 19 H s       :     0.755448  s :     0.755448
      pz      :     0.070993  p :     0.154007
      px      :     0.044010
      py      :     0.039004
 20 C s       :     2.842975  s :     2.842975
      pz      :     1.015957  p :     2.772817
      px      :     0.812693
      py      :     0.944167
      dz2     :     0.135060  d :     0.488732
      dxz     :     0.082139
      dyz     :     0.139031
      dx2y2   :     0.065212
      dxy     :     0.067290
 21 N s       :     3.063414  s :     3.063414
      pz      :     1.124388  p :     3.814076
      px      :     1.542198
      py      :     1.147490
      dz2     :     0.020689  d :     0.080560
      dxz     :     0.003782
      dyz     :     0.030627
      dx2y2   :     0.013864
      dxy     :     0.011599
 22 H s       :     0.774578  s :     0.774578
      pz      :     0.072150  p :     0.145728
      px      :     0.047771
      py      :     0.025807
 23 O s       :     3.585035  s :     3.585035
      pz      :     1.473862  p :     4.581150
      px      :     1.466474
      py      :     1.640814
      dz2     :     0.013149  d :     0.031926
      dxz     :     0.005362
      dyz     :     0.010858
      dx2y2   :     0.001373
      dxy     :     0.001183
 24 C s       :     2.871684  s :     2.871684
      pz      :     0.995889  p :     3.065088
      px      :     1.041538
      py      :     1.027661
      dz2     :     0.029548  d :     0.105676
      dxz     :     0.011320
      dyz     :     0.032297
      dx2y2   :     0.014019
      dxy     :     0.018493
 25 H s       :     0.864397  s :     0.864397
      pz      :     0.015738  p :     0.081596
      px      :     0.027084
      py      :     0.038774
 26 H s       :     0.863615  s :     0.863615
      pz      :     0.016074  p :     0.081597
      px      :     0.045015
      py      :     0.020508
 27 H s       :     0.884784  s :     0.884784
      pz      :     0.039622  p :     0.081440
      px      :     0.017444
      py      :     0.024373
 28 C s       :     2.856554  s :     2.856554
      pz      :     1.059222  p :     2.972572
      px      :     1.043711
      py      :     0.869639
      dz2     :     0.030670  d :     0.158860
      dxz     :     0.009800
      dyz     :     0.022667
      dx2y2   :     0.042413
      dxy     :     0.053309
 29 H s       :     0.888445  s :     0.888445
      pz      :     0.020470  p :     0.079322
      px      :     0.041800
      py      :     0.017051
 30 H s       :     0.888784  s :     0.888784
      pz      :     0.023011  p :     0.079283
      px      :     0.034896
      py      :     0.021375
 31 H s       :     0.860456  s :     0.860456
      pz      :     0.054112  p :     0.084455
      px      :     0.016933
      py      :     0.013410

SPIN
  0 N s       :     0.000015  s :     0.000015
      pz      :    -0.000009  p :     0.000013
      px      :     0.000026
      py      :    -0.000004
      dz2     :     0.000001  d :     0.000009
      dxz     :     0.000005
      dyz     :     0.000001
      dx2y2   :    -0.000000
      dxy     :     0.000003
  1 C s       :     0.000154  s :     0.000154
      pz      :     0.000051  p :     0.000675
      px      :     0.000578
      py      :     0.000046
      dz2     :    -0.000002  d :     0.000025
      dxz     :     0.000020
      dyz     :    -0.000001
      dx2y2   :     0.000009
      dxy     :    -0.000001
  2 C s       :     0.000005  s :     0.000005
      pz      :    -0.000003  p :    -0.000016
      px      :     0.000001
      py      :    -0.000014
      dz2     :     0.000000  d :     0.000020
      dxz     :     0.000003
      dyz     :     0.000001
      dx2y2   :     0.000000
      dxy     :     0.000015
  3 O s       :    -0.000001  s :    -0.000001
      pz      :     0.000000  p :     0.000015
      px      :     0.000016
      py      :    -0.000001
      dz2     :    -0.000000  d :    -0.000000
      dxz     :    -0.000000
      dyz     :    -0.000000
      dx2y2   :    -0.000000
      dxy     :    -0.000000
  4 C s       :     0.000122  s :     0.000122
      pz      :     0.000074  p :     0.000502
      px      :     0.000420
      py      :     0.000007
      dz2     :     0.000146  d :     0.000343
      dxz     :     0.000046
      dyz     :     0.000005
      dx2y2   :     0.000142
      dxy     :     0.000004
  5 C s       :     0.000347  s :     0.000347
      pz      :     0.000576  p :     0.003076
      px      :     0.002438
      py      :     0.000062
      dz2     :     0.000093  d :     0.000486
      dxz     :     0.000096
      dyz     :     0.000006
      dx2y2   :     0.000222
      dxy     :     0.000070
  6 C s       :     0.008902  s :     0.008902
      pz      :     0.007463  p :     0.027965
      px      :     0.018393
      py      :     0.002108
      dz2     :    -0.000400  d :    -0.000250
      dxz     :     0.000244
      dyz     :    -0.000032
      dx2y2   :    -0.000211
      dxy     :     0.000148
  7 C s       :    -0.004979  s :    -0.004979
      pz      :    -0.005117  p :    -0.023346
      px      :    -0.014673
      py      :    -0.003556
      dz2     :     0.008634  d :     0.036830
      dxz     :     0.019219
      dyz     :     0.002683
      dx2y2   :     0.002645
      dxy     :     0.003649
  8 N s       :     0.016385  s :     0.016385
      pz      :     0.640755  p :     0.875088
      px      :     0.068788
      py      :     0.165544
      dz2     :     0.000221  d :    -0.000578
      dxz     :    -0.000213
      dyz     :     0.000018
      dx2y2   :    -0.000603
      dxy     :    -0.000001
  9 H s       :     0.000085  s :     0.000085
      pz      :     0.000003  p :     0.000034
      px      :     0.000027
      py      :     0.000003
 10 H s       :    -0.000016  s :    -0.000016
      pz      :     0.000002  p :     0.000001
      px      :    -0.000004
      py      :     0.000003
 11 H s       :     0.000126  s :     0.000126
      pz      :    -0.000001  p :    -0.000013
      px      :    -0.000011
      py      :    -0.000001
 12 H s       :     0.000010  s :     0.000010
      pz      :     0.000025  p :     0.000052
      px      :     0.000021
      py      :     0.000006
 13 H s       :    -0.000064  s :    -0.000064
      pz      :     0.000022  p :     0.000242
      px      :     0.000195
      py      :     0.000025
 14 H s       :    -0.000811  s :    -0.000811
      pz      :     0.000230  p :     0.000747
      px      :     0.000397
      py      :     0.000121
 15 H s       :    -0.001189  s :    -0.001189
      pz      :     0.000765  p :     0.000801
      px      :     0.000000
      py      :     0.000036
 16 H s       :     0.002186  s :     0.002186
      pz      :     0.000020  p :    -0.000415
      px      :    -0.000314
      py      :    -0.000121
 17 H s       :     0.049952  s :     0.049952
      pz      :    -0.000777  p :    -0.001575
      px      :    -0.000551
      py      :    -0.000247
 18 H s       :    -0.019924  s :    -0.019924
      pz      :     0.019154  p :     0.027890
      px      :     0.001348
      py      :     0.007389
 19 H s       :     0.000006  s :     0.000006
      pz      :    -0.000000  p :     0.000000
      px      :     0.000001
      py      :    -0.000000
 20 C s       :     0.000005  s :     0.000005
      pz      :     0.000000  p :     0.000008
      px      :     0.000008
      py      :     0.000001
      dz2     :    -0.000000  d :     0.000001
      dxz     :     0.000002
      dyz     :    -0.000001
      dx2y2   :     0.000001
      dxy     :    -0.000001
 21 N s       :     0.000002  s :     0.000002
      pz      :     0.000001  p :     0.000036
      px      :     0.000034
      py      :     0.000001
      dz2     :    -0.000000  d :    -0.000001
      dxz     :    -0.000000
      dyz     :    -0.000000
      dx2y2   :    -0.000000
      dxy     :     0.000000
 22 H s       :    -0.000000  s :    -0.000000
      pz      :     0.000000  p :     0.000003
      px      :     0.000002
      py      :     0.000000
 23 O s       :    -0.000000  s :    -0.000000
      pz      :    -0.000000  p :     0.000009
      px      :     0.000011
      py      :    -0.000001
      dz2     :     0.000000  d :     0.000000
      dxz     :     0.000000
      dyz     :    -0.000000
      dx2y2   :     0.000000
      dxy     :    -0.000000
 24 C s       :    -0.000001  s :    -0.000001
      pz      :    -0.000001  p :    -0.000001
      px      :     0.000000
      py      :    -0.000001
      dz2     :    -0.000000  d :     0.000000
      dxz     :    -0.000000
      dyz     :     0.000000
      dx2y2   :     0.000000
      dxy     :     0.000000
 25 H s       :     0.000001  s :     0.000001
      pz      :    -0.000000  p :    -0.000000
      px      :    -0.000000
      py      :    -0.000000
 26 H s       :     0.000001  s :     0.000001
      pz      :    -0.000000  p :    -0.000000
      px      :    -0.000000
      py      :    -0.000000
 27 H s       :     0.000000  s :     0.000000
      pz      :    -0.000000  p :     0.000000
      px      :    -0.000000
      py      :     0.000000
 28 C s       :    -0.000001  s :    -0.000001
      pz      :    -0.000000  p :    -0.000003
      px      :    -0.000000
      py      :    -0.000002
      dz2     :     0.000000  d :     0.000002
      dxz     :     0.000000
      dyz     :     0.000000
      dx2y2   :     0.000000
      dxy     :     0.000002
 29 H s       :     0.000002  s :     0.000002
      pz      :    -0.000000  p :    -0.000000
      px      :    -0.000000
      py      :    -0.000000
 30 H s       :     0.000002  s :     0.000002
      pz      :     0.000000  p :    -0.000000
      px      :    -0.000000
      py      :    -0.000000
 31 H s       :     0.000000  s :     0.000000
      pz      :    -0.000000  p :    -0.000000
      px      :    -0.000000
      py      :    -0.000000


                      *****************************
                      * MAYER POPULATION ANALYSIS *
                      *****************************

  NA   - Mulliken gross atomic population
  ZA   - Total nuclear charge
  QA   - Mulliken gross atomic charge
  VA   - Mayer's total valence
  BVA  - Mayer's bonded valence
  FA   - Mayer's free valence

  ATOM       NA         ZA         QA         VA         BVA        FA
  0 N      7.1189     7.0000    -0.1189     3.2720     3.2720     0.0000
  1 C      6.1263     6.0000    -0.1263     4.0601     4.0601     0.0000
  2 C      5.9109     6.0000     0.0891     4.0304     4.0304     0.0000
  3 O      8.3320     8.0000    -0.3320     2.1124     2.1124    -0.0000
  4 C      6.2781     6.0000    -0.2781     3.9209     3.9209    -0.0000
  5 C      6.2352     6.0000    -0.2352     3.9537     3.9537     0.0001
  6 C      6.3019     6.0000    -0.3019     3.9460     3.9437     0.0023
  7 C      6.2766     6.0000    -0.2766     3.9063     3.9034     0.0029
  8 N      7.2837     7.0000    -0.2837     2.8751     2.0691     0.8060
  9 H      0.8359     1.0000     0.1641     0.9491     0.9491     0.0000
 10 H      0.8213     1.0000     0.1787     0.9635     0.9635     0.0000
 11 H      0.8690     1.0000     0.1310     0.9713     0.9713     0.0000
 12 H      0.8510     1.0000     0.1490     0.9708     0.9708     0.0000
 13 H      0.8462     1.0000     0.1538     0.9717     0.9717     0.0000
 14 H      0.8542     1.0000     0.1458     0.9672     0.9672     0.0000
 15 H      0.8449     1.0000     0.1551     0.9625     0.9625     0.0000
 16 H      0.8388     1.0000     0.1612     0.9478     0.9477     0.0000
 17 H      0.8391     1.0000     0.1609     0.9517     0.9472     0.0045
 18 H      0.8087     1.0000     0.1913     0.9490     0.9475     0.0015
 19 H      0.7471     1.0000     0.2529     0.9685     0.9685     0.0000
 20 C      5.8300     6.0000     0.1700     3.9743     3.9743     0.0000
 21 N      7.0934     7.0000    -0.0934     3.1846     3.1846    -0.0000
 22 H      0.7690     1.0000     0.2310     0.9619     0.9619     0.0000
 23 O      8.3257     8.0000    -0.3257     2.1144     2.1144    -0.0000
 24 C      6.5528     6.0000    -0.5528     3.8581     3.8581     0.0000
 25 H      0.8151     1.0000     0.1849     0.9591     0.9591     0.0000
 26 H      0.8131     1.0000     0.1869     0.9588     0.9588     0.0000
 27 H      0.8510     1.0000     0.1490     0.9713     0.9713    -0.0000
 28 C      6.4572     6.0000    -0.4572     3.8921     3.8921     0.0000
 29 H      0.8343     1.0000     0.1657     0.9549     0.9549     0.0000
 30 H      0.8389     1.0000     0.1611     0.9576     0.9576     0.0000
 31 H      0.7997     1.0000     0.2003     0.9653     0.9653     0.0000

  Mayer bond orders larger than 0.100000
B(  0-N ,  1-C ) :   1.0218 B(  0-N , 19-H ) :   0.8928 B(  0-N , 20-C ) :   1.2066 
B(  1-C ,  2-C ) :   0.8993 B(  1-C ,  4-C ) :   0.9289 B(  1-C ,  9-H ) :   0.9723 
B(  1-C , 23-O ) :   0.1436 B(  2-C ,  3-O ) :   1.8698 B(  2-C , 21-N ) :   1.1863 
B(  4-C ,  5-C ) :   0.9630 B(  4-C , 10-H ) :   0.9638 B(  4-C , 11-H ) :   0.9758 
B(  5-C ,  6-C ) :   0.9742 B(  5-C , 12-H ) :   0.9610 B(  5-C , 13-H ) :   0.9708 
B(  6-C ,  7-C ) :   0.9460 B(  6-C , 14-H ) :   0.9664 B(  6-C , 15-H ) :   0.9687 
B(  7-C ,  8-N ) :   1.0503 B(  7-C , 16-H ) :   0.9529 B(  7-C , 17-H ) :   0.9254 
B(  8-N , 18-H ) :   0.9205 B( 20-C , 23-O ) :   1.8602 B( 20-C , 24-C ) :   0.8950 
B( 21-N , 22-H ) :   0.9300 B( 21-N , 28-C ) :   0.9698 B( 24-C , 25-H ) :   0.9587 
B( 24-C , 26-H ) :   0.9585 B( 24-C , 27-H ) :   0.9756 B( 28-C , 29-H ) :   0.9595 
B( 28-C , 30-H ) :   0.9597 B( 28-C , 31-H ) :   0.9432 

-------
TIMINGS
-------

Total SCF time: 0 days 0 hours 0 min 19 sec 

Total time                  ....      19.739 sec
Sum of individual times     ....      18.962 sec  ( 96.1%)

Fock matrix formation       ....      16.537 sec  ( 83.8%)
  Split-RI-J                ....       1.423 sec  (  8.6% of F)
  Chain of spheres X        ....      11.098 sec  ( 67.1% of F)
  XC integration            ....       3.599 sec  ( 21.8% of F)
    Basis function eval.    ....       0.388 sec  ( 10.8% of XC)
    Density eval.           ....       0.545 sec  ( 15.2% of XC)
    XC-Functional eval.     ....       0.090 sec  (  2.5% of XC)
    XC-Potential eval.      ....       0.312 sec  (  8.7% of XC)
Diagonalization             ....       0.622 sec  (  3.2%)
Density matrix formation    ....       0.028 sec  (  0.1%)
Population analysis         ....       0.072 sec  (  0.4%)
Initial guess               ....       0.058 sec  (  0.3%)
Orbital Transformation      ....       0.000 sec  (  0.0%)
Orbital Orthonormalization  ....       0.041 sec  (  0.2%)
DIIS solution               ....       0.335 sec  (  1.7%)
Grid generation             ....       1.310 sec  (  6.6%)

Maximum memory used throughout the entire SCF-calculation: 84.1 MB

-------------------------   --------------------
FINAL SINGLE POINT ENERGY      -668.219003010571
-------------------------   --------------------

                                *** OPTIMIZATION RUN DONE ***

                            ***************************************
                            *     ORCA property calculations      *
                            ***************************************

                                    ---------------------
                                    Active property flags
                                    ---------------------
   (+) Dipole Moment


------------------------------------------------------------------------------
                       ORCA ELECTRIC PROPERTIES CALCULATION
------------------------------------------------------------------------------

Dipole Moment Calculation                       ... on
Quadrupole Moment Calculation                   ... off
Polarizability Calculation                      ... off
GBWName                                         ... opt.gbw
Electron density                                ... opt.scfp
The origin for moment calculation is the CENTER OF MASS  = (-0.759891, -0.163517  0.242579)

-------------
DIPOLE MOMENT
-------------
                                X             Y             Z
Electronic contribution:     -6.70224       1.24503       0.11602
Nuclear contribution   :      6.13536      -2.05579      -0.42976
                        -----------------------------------------
Total Dipole Moment    :     -0.56687      -0.81076      -0.31373
                        -----------------------------------------
Magnitude (a.u.)       :      1.03784
Magnitude (Debye)      :      2.63797



--------------------
Rotational spectrum 
--------------------
 
Rotational constants in cm-1:     0.019698     0.013332     0.009039 
Rotational constants in MHz :   590.518406   399.676725   270.984480 

 Dipole components along the rotational axes: 
x,y,z [a.u.] :    -0.498995    -0.881653    -0.225385 
x,y,z [Debye]:    -1.268346    -2.240984    -0.572883 

 

Timings for individual modules:

Sum of individual times         ...      833.430 sec (=  13.890 min)
GTO integral calculation        ...       67.664 sec (=   1.128 min)   8.1 %
SCF iterations                  ...      566.816 sec (=   9.447 min)  68.0 %
SCF Gradient evaluation         ...      197.758 sec (=   3.296 min)  23.7 %
Geometry relaxation             ...        1.192 sec (=   0.020 min)   0.1 %
                             ****ORCA TERMINATED NORMALLY****
TOTAL RUN TIME: 0 days 0 hours 14 minutes 54 seconds 398 msec
