
                                 *****************
                                 * O   R   C   A *
                                 *****************

                                            #,                                       
                                            ###                                      
                                            ####                                     
                                            #####                                    
                                            ######                                   
                                           ########,                                 
                                     ,,################,,,,,                         
                               ,,#################################,,                 
                          ,,##########################################,,             
                       ,#########################################, ''#####,          
                    ,#############################################,,   '####,        
                  ,##################################################,,,,####,       
                ,###########''''           ''''###############################       
              ,#####''   ,,,,##########,,,,          '''####'''          '####       
            ,##' ,,,,###########################,,,                        '##       
           ' ,,###''''                  '''############,,,                           
         ,,##''                                '''############,,,,        ,,,,,,###''
      ,#''                                            '''#######################'''  
     '                                                          ''''####''''         
             ,#######,   #######,   ,#######,      ##                                
            ,#'     '#,  ##    ##  ,#'     '#,    #''#        ######   ,####,        
            ##       ##  ##   ,#'  ##            #'  '#       #        #'  '#        
            ##       ##  #######   ##           ,######,      #####,   #    #        
            '#,     ,#'  ##    ##  '#,     ,#' ,#      #,         ##   #,  ,#        
             '#######'   ##     ##  '#######'  #'      '#     #####' # '####'        



                  #######################################################
                  #                        -***-                        #
                  #          Department of theory and spectroscopy      #
                  #    Directorship and core code : Frank Neese         #
                  #        Max Planck Institute fuer Kohlenforschung    #
                  #                Kaiser Wilhelm Platz 1               #
                  #                 D-45470 Muelheim/Ruhr               #
                  #                      Germany                        #
                  #                                                     #
                  #                  All rights reserved                #
                  #                        -***-                        #
                  #######################################################


                         Program Version 5.0.4 -  RELEASE  -


 With contributions from (in alphabetic order):
   Daniel Aravena         : Magnetic Suceptibility
   Michael Atanasov       : Ab Initio Ligand Field Theory (pilot matlab implementation)
   Alexander A. Auer      : GIAO ZORA, VPT2 properties, NMR spectrum
   Ute Becker             : Parallelization
   Giovanni Bistoni       : ED, misc. LED, open-shell LED, HFLD
   Martin Brehm           : Molecular dynamics
   Dmytro Bykov           : SCF Hessian
   Vijay G. Chilkuri      : MRCI spin determinant printing, contributions to CSF-ICE
   Dipayan Datta          : RHF DLPNO-CCSD density
   Achintya Kumar Dutta   : EOM-CC, STEOM-CC
   Dmitry Ganyushin       : Spin-Orbit,Spin-Spin,Magnetic field MRCI
   Miquel Garcia          : C-PCM and meta-GGA Hessian, CC/C-PCM, Gaussian charge scheme
   Yang Guo               : DLPNO-NEVPT2, F12-NEVPT2, CIM, IAO-localization
   Andreas Hansen         : Spin unrestricted coupled pair/coupled cluster methods
   Benjamin Helmich-Paris : MC-RPA, TRAH-SCF, COSX integrals
   Lee Huntington         : MR-EOM, pCC
   Robert Izsak           : Overlap fitted RIJCOSX, COSX-SCS-MP3, EOM
   Marcus Kettner         : VPT2
   Christian Kollmar      : KDIIS, OOCD, Brueckner-CCSD(T), CCSD density, CASPT2, CASPT2-K
   Simone Kossmann        : Meta GGA functionals, TD-DFT gradient, OOMP2, MP2 Hessian
   Martin Krupicka        : Initial AUTO-CI
   Lucas Lang             : DCDCAS
   Marvin Lechner         : AUTO-CI (C++ implementation), FIC-MRCC
   Dagmar Lenk            : GEPOL surface, SMD
   Dimitrios Liakos       : Extrapolation schemes; Compound Job, initial MDCI parallelization
   Dimitrios Manganas     : Further ROCIS development; embedding schemes
   Dimitrios Pantazis     : SARC Basis sets
   Anastasios Papadopoulos: AUTO-CI, single reference methods and gradients
   Taras Petrenko         : DFT Hessian,TD-DFT gradient, ASA, ECA, R-Raman, ABS, FL, XAS/XES, NRVS
   Peter Pinski           : DLPNO-MP2, DLPNO-MP2 Gradient
   Christoph Reimann      : Effective Core Potentials
   Marius Retegan         : Local ZFS, SOC
   Christoph Riplinger    : Optimizer, TS searches, QM/MM, DLPNO-CCSD(T), (RO)-DLPNO pert. Triples
   Tobias Risthaus        : Range-separated hybrids, TD-DFT gradient, RPA, STAB
   Michael Roemelt        : Original ROCIS implementation
   Masaaki Saitow         : Open-shell DLPNO-CCSD energy and density
   Barbara Sandhoefer     : DKH picture change effects
   Avijit Sen             : IP-ROCIS
   Kantharuban Sivalingam : CASSCF convergence, NEVPT2, FIC-MRCI
   Bernardo de Souza      : ESD, SOC TD-DFT
   Georgi Stoychev        : AutoAux, RI-MP2 NMR, DLPNO-MP2 response
   Willem Van den Heuvel  : Paramagnetic NMR
   Boris Wezisla          : Elementary symmetry handling
   Frank Wennmohs         : Technical directorship


 We gratefully acknowledge several colleagues who have allowed us to
 interface, adapt or use parts of their codes:
   Stefan Grimme, W. Hujo, H. Kruse, P. Pracht,  : VdW corrections, initial TS optimization,
                  C. Bannwarth, S. Ehlert          DFT functionals, gCP, sTDA/sTD-DF
   Ed Valeev, F. Pavosevic, A. Kumar             : LibInt (2-el integral package), F12 methods
   Garnet Chan, S. Sharma, J. Yang, R. Olivares  : DMRG
   Ulf Ekstrom                                   : XCFun DFT Library
   Mihaly Kallay                                 : mrcc  (arbitrary order and MRCC methods)
   Jiri Pittner, Ondrej Demel                    : Mk-CCSD
   Frank Weinhold                                : gennbo (NPA and NBO analysis)
   Christopher J. Cramer and Donald G. Truhlar   : smd solvation model
   Lars Goerigk                                  : TD-DFT with DH, B97 family of functionals
   V. Asgeirsson, H. Jonsson                     : NEB implementation
   FAccTs GmbH                                   : IRC, NEB, NEB-TS, DLPNO-Multilevel, CI-OPT
                                                   MM, QMMM, 2- and 3-layer-ONIOM, Crystal-QMMM,
                                                   LR-CPCM, SF, NACMEs, symmetry and pop. for TD-DFT,
                                                   nearIR, NL-DFT gradient (VV10), updates on ESD,
                                                   ML-optimized integration grids
   S Lehtola, MJT Oliveira, MAL Marques          : LibXC Library
   Liviu Ungur et al                             : ANISO software


 Your calculation uses the libint2 library for the computation of 2-el integrals
 For citations please refer to: http://libint.valeyev.net

 Your ORCA version has been built with support for libXC version: 5.1.0
 For citations please refer to: https://tddft.org/programs/libxc/

 This ORCA versions uses:
   CBLAS   interface :  Fast vector & matrix operations
   LAPACKE interface :  Fast linear algebra routines
   SCALAPACK package :  Parallel linear algebra routines
   Shared memory     :  Shared parallel matrices
   BLAS/LAPACK       :  OpenBLAS 0.3.15  USE64BITINT DYNAMIC_ARCH NO_AFFINITY Zen SINGLE_THREADED
        Core in use  :  Zen
   Copyright (c) 2011-2014, The OpenBLAS Project




***************************************
The coordinates will be read from file: opt.xyz
***************************************


================================================================================

----- Orbital basis set information -----
Your calculation utilizes the basis: EPR-II
   V. Barone, in Recent Advances in Density Functional Methods, Part 1 (ed. D. P. Chong), World Scientific, Singapore, 1995, p. 287.

----- AuxJ basis set information -----
Your calculation utilizes the AutoAux generation procedure.
  G. L. Stoychev, A. A. Auer, F. Neese, J. Chem. Theory Comput. 13, 554 (2017)

----- AuxC basis set information -----
Your calculation utilizes the AutoAux generation procedure.
  G. L. Stoychev, A. A. Auer, F. Neese, J. Chem. Theory Comput. 13, 554 (2017)

----- AuxJK basis set information -----
Your calculation utilizes the AutoAux generation procedure.
  G. L. Stoychev, A. A. Auer, F. Neese, J. Chem. Theory Comput. 13, 554 (2017)

================================================================================
                                        WARNINGS
                       Please study these warnings very carefully!
================================================================================


WARNING: your system is open-shell and RHF/RKS was chosen
  ===> : WILL SWITCH to UHF/UKS


INFO   : the flag for use of the SHARK integral package has been found!

================================================================================
                                       INPUT FILE
================================================================================
NAME = epr_info.inp
|  1> ! B3LYP EPR-II AUTOAUX
|  2> %pal nprocs 16 end
|  3> *XYZFile 1 2 opt.xyz
|  4> %EPRNMR
|  5>         GTENSOR   TRUE
|  6>         NUCLEI    = 9,10,11,12,13,14,20,30,31,32,33 {SHIFT, AISO, ADIP, AORB}
|  7>         ORI       GIAO
|  8> END
|  9> 
| 10>                          ****END OF INPUT****
================================================================================

                       ****************************
                       * Single Point Calculation *
                       ****************************

---------------------------------
CARTESIAN COORDINATES (ANGSTROEM)
---------------------------------
  N     -7.695452    0.915880   -0.002031
  C     -6.407819    1.537824   -0.285496
  C     -5.640124    1.899505    1.004419
  O     -4.839114    2.865264    1.054681
  C     -6.470840    2.716802   -1.277992
  C     -7.233356    3.986645   -0.754306
  C     -6.565953    5.272404   -1.150673
  C     -5.609088    5.972053   -0.238561
  N     -4.306006    5.175794   -0.054107
  H     -6.721482    5.679625   -2.145827
  H     -6.015217    6.073015    0.773914
  H     -5.332288    6.960596   -0.609064
  H     -3.684180    5.641954    0.611527
  H     -3.807485    5.090979   -0.941929
  H     -8.441672    1.493786    0.360012
  C     -8.054549   -0.272154   -0.647139
  N     -5.821443    1.089553    2.054490
  H     -6.487887    0.338015    1.941109
  O     -7.239066   -0.912234   -1.294087
  H     -4.524453    4.190240    0.323065
  C     -5.084179    1.219289    3.314123
  H     -5.431998    2.086339    3.882980
  H     -5.244975    0.316617    3.903859
  H     -4.017254    1.334696    3.113259
  C     -9.497801   -0.712477   -0.467239
  H     -9.987405   -0.696974   -1.445482
  H     -9.504423   -1.747249   -0.116486
  H    -10.064772   -0.088929    0.228852
  H     -5.822496    0.740799   -0.763690
  H     -5.442821    2.975349   -1.547732
  H     -6.939174    2.357172   -2.197821
  H     -7.308601    3.948344    0.339848
  H     -8.255743    3.976152   -1.146750

----------------------------
CARTESIAN COORDINATES (A.U.)
----------------------------
  NO LB      ZA    FRAG     MASS         X           Y           Z
   0 N     7.0000    0    14.007  -14.542296    1.730763   -0.003838
   1 C     6.0000    0    12.011  -12.109023    2.906065   -0.539510
   2 C     6.0000    0    12.011  -10.658289    3.589544    1.898077
   3 O     8.0000    0    15.999   -9.144600    5.414563    1.993059
   4 C     6.0000    0    12.011  -12.228116    5.134012   -2.415055
   5 C     6.0000    0    12.011  -13.669061    7.533668   -1.425432
   6 C     6.0000    0    12.011  -12.407852    9.963401   -2.174458
   7 C     6.0000    0    12.011  -10.599639   11.285545   -0.450815
   8 N     7.0000    0    14.007   -8.137172    9.780832   -0.102248
   9 H     1.0000    0     1.008  -12.701760   10.732936   -4.055025
  10 H     1.0000    0     1.008  -11.367114   11.476336    1.462486
  11 H     1.0000    0     1.008  -10.076564   13.153620   -1.150964
  12 H     1.0000    0     1.008   -6.962091   10.661747    1.155618
  13 H     1.0000    0     1.008   -7.195103    9.620556   -1.779987
  14 H     1.0000    0     1.008  -15.952448    2.822846    0.680324
  15 C     6.0000    0    12.011  -15.220891   -0.514296   -1.222916
  16 N     7.0000    0    14.007  -11.000933    2.058958    3.882424
  17 H     1.0000    0     1.008  -12.260329    0.638755    3.668164
  18 O     8.0000    0    15.999  -13.679852   -1.723873   -2.445469
  19 H     1.0000    0     1.008   -8.549978    7.918406    0.610505
  20 C     6.0000    0    12.011   -9.607706    2.304123    6.262784
  21 H     1.0000    0     1.008  -10.264989    3.942610    7.337769
  22 H     1.0000    0     1.008   -9.911567    0.598320    7.377224
  23 H     1.0000    0     1.008   -7.591510    2.522210    5.883206
  24 C     6.0000    0    12.011  -17.948243   -1.346387   -0.882953
  25 H     1.0000    0     1.008  -18.873461   -1.317089   -2.731565
  26 H     1.0000    0     1.008  -17.960756   -3.301822   -0.220127
  27 H     1.0000    0     1.008  -19.019662   -0.168052    0.432468
  28 H     1.0000    0     1.008  -11.002923    1.399907   -1.443165
  29 H     1.0000    0     1.008  -10.285442    5.622595   -2.924790
  30 H     1.0000    0     1.008  -13.113139    4.454410   -4.153280
  31 H     1.0000    0     1.008  -13.811255    7.461290    0.642220
  32 H     1.0000    0     1.008  -15.601093    7.513837   -2.167044

--------------------------------
INTERNAL COORDINATES (ANGSTROEM)
--------------------------------
 N      0   0   0     0.000000000000     0.00000000     0.00000000
 C      1   0   0     1.457793885133     0.00000000     0.00000000
 C      2   1   0     1.544037389377   112.12664549     0.00000000
 O      3   2   1     1.255720011928   122.05624624   209.42123977
 C      2   1   3     1.542403829925   114.52821206   230.57583398
 C      5   2   1     1.571043759540   115.03483564    66.82764428
 C      6   5   2     1.501902084195   112.84931004   140.22528070
 C      7   6   5     1.495676263116   121.58808237   265.06942062
 N      8   7   6     1.538204764265   111.89725032    68.18541236
 H      7   6   5     1.086438396207   119.93397419    80.87468152
 H      8   7   6     1.095555464936   111.68691600   311.38504824
 H      8   7   6     1.091378889148   112.26764368   188.70481737
 H      9   8   7     1.023250451718   110.91519236   183.10064646
 H      9   8   7     1.021735691618   110.61630141    63.46962730
 H      1   2   3     1.010887828799   118.53925491    72.40206939
 C      1   2   3     1.398764130257   119.96283152   229.25892663
 N      3   2   1     1.338487069919   116.50666941    32.58766117
 H     17   3   2     1.010847899824   116.82133974   356.40168544
 O     16   1   2     1.221988313287   121.18045445    11.03402895
 H      9   8   7     1.077633465604   110.10054490   302.81646066
 C     17   3   2     1.465286013026   123.55075737   174.54443175
 H     21  17   3     1.093779109902   110.93292725    73.11765206
 H     21  17   3     1.090165583954   108.51242671   193.02285622
 H     21  17   3     1.091784790026   110.05363955   312.62851348
 C     16   1   2     1.519613807262   115.80636649   189.99576080
 H     25  16   1     1.094034676049   108.36512637   116.26345293
 H     25  16   1     1.092622375459   108.55279146   232.51717629
 H     25  16   1     1.093073865060   113.74863341   354.59309914
 H      2   1   3     1.098417223594   104.22680071   113.72514066
 H      5   2   1     1.093813856724   107.51527905   190.15034877
 H      5   2   1     1.093049135145   107.90947578   303.90201585
 H      6   5   2     1.097407214273   109.71960582    18.62937706
 H      6   5   2     1.095170431156   109.02055071   261.71115976

---------------------------
INTERNAL COORDINATES (A.U.)
---------------------------
 N      0   0   0     0.000000000000     0.00000000     0.00000000
 C      1   0   0     2.754831202606     0.00000000     0.00000000
 C      2   1   0     2.917807806456   112.12664549     0.00000000
 O      3   2   1     2.372966923429   122.05624624   209.42123977
 C      2   1   3     2.914720826470   114.52821206   230.57583398
 C      5   2   1     2.968842449937   115.03483564    66.82764428
 C      6   5   2     2.838183619094   112.84931004   140.22528070
 C      7   6   5     2.826418522295   121.58808237   265.06942062
 N      8   7   6     2.906785742354   111.89725032    68.18541236
 H      7   6   5     2.053071030207   119.93397419    80.87468152
 H      8   7   6     2.070299793249   111.68691600   311.38504824
 H      8   7   6     2.062407208833   112.26764368   188.70481737
 H      9   8   7     1.933663120158   110.91519236   183.10064646
 H      9   8   7     1.930800638410   110.61630141    63.46962730
 H      1   2   3     1.910301148545   118.53925491    72.40206939
 C      1   2   3     2.643281132138   119.96283152   229.25892663
 N      3   2   1     2.529373995941   116.50666941    32.58766117
 H     17   3   2     1.910225693716   116.82133974   356.40168544
 O     16   1   2     2.309223250964   121.18045445    11.03402895
 H      9   8   7     2.036432122739   110.10054490   302.81646066
 C     17   3   2     2.768989272484   123.55075737   174.54443175
 H     21  17   3     2.066942968719   110.93292725    73.11765206
 H     21  17   3     2.060114394299   108.51242671   193.02285622
 H     21  17   3     2.063174250330   110.05363955   312.62851348
 C     16   1   2     2.871653925050   115.80636649   189.99576080
 H     25  16   1     2.067425918746   108.36512637   116.26345293
 H     25  16   1     2.064757057411   108.55279146   232.51717629
 H     25  16   1     2.065610249111   113.74863341   354.59309914
 H      2   1   3     2.075707733374   104.22680071   113.72514066
 H      5   2   1     2.067008630697   107.51527905   190.15034877
 H      5   2   1     2.065563516344   107.90947578   303.90201585
 H      6   5   2     2.073799092366   109.71960582    18.62937706
 H      6   5   2     2.069572184853   109.02055071   261.71115976

---------------------
BASIS SET INFORMATION
---------------------
There are 4 groups of distinct atoms

 Group   1 Type N   : 10s5p1d contracted to 6s2p1d pattern {511111/41/1}
 Group   2 Type C   : 10s5p1d contracted to 6s2p1d pattern {511111/41/1}
 Group   3 Type O   : 10s5p1d contracted to 6s2p1d pattern {511111/41/1}
 Group   4 Type H   : 6s1p contracted to 4s1p pattern {3111/1}

Atom   0N    basis set group =>   1
Atom   1C    basis set group =>   2
Atom   2C    basis set group =>   2
Atom   3O    basis set group =>   3
Atom   4C    basis set group =>   2
Atom   5C    basis set group =>   2
Atom   6C    basis set group =>   2
Atom   7C    basis set group =>   2
Atom   8N    basis set group =>   1
Atom   9H    basis set group =>   4
Atom  10H    basis set group =>   4
Atom  11H    basis set group =>   4
Atom  12H    basis set group =>   4
Atom  13H    basis set group =>   4
Atom  14H    basis set group =>   4
Atom  15C    basis set group =>   2
Atom  16N    basis set group =>   1
Atom  17H    basis set group =>   4
Atom  18O    basis set group =>   3
Atom  19H    basis set group =>   4
Atom  20C    basis set group =>   2
Atom  21H    basis set group =>   4
Atom  22H    basis set group =>   4
Atom  23H    basis set group =>   4
Atom  24C    basis set group =>   2
Atom  25H    basis set group =>   4
Atom  26H    basis set group =>   4
Atom  27H    basis set group =>   4
Atom  28H    basis set group =>   4
Atom  29H    basis set group =>   4
Atom  30H    basis set group =>   4
Atom  31H    basis set group =>   4
Atom  32H    basis set group =>   4
---------------------------------
AUXILIARY/J BASIS SET INFORMATION
---------------------------------
There are 4 groups of distinct atoms

 Group   1 Type N   : 17s13p12d2f contracted to 17s13p12d2f pattern {11111111111111111/1111111111111/111111111111/11}
 Group   2 Type C   : 17s13p12d2f contracted to 17s13p12d2f pattern {11111111111111111/1111111111111/111111111111/11}
 Group   3 Type O   : 17s13p12d2f contracted to 17s13p12d2f pattern {11111111111111111/1111111111111/111111111111/11}
 Group   4 Type H   : 15s6p1d contracted to 15s6p1d pattern {111111111111111/111111/1}

Atom   0N    basis set group =>   1
Atom   1C    basis set group =>   2
Atom   2C    basis set group =>   2
Atom   3O    basis set group =>   3
Atom   4C    basis set group =>   2
Atom   5C    basis set group =>   2
Atom   6C    basis set group =>   2
Atom   7C    basis set group =>   2
Atom   8N    basis set group =>   1
Atom   9H    basis set group =>   4
Atom  10H    basis set group =>   4
Atom  11H    basis set group =>   4
Atom  12H    basis set group =>   4
Atom  13H    basis set group =>   4
Atom  14H    basis set group =>   4
Atom  15C    basis set group =>   2
Atom  16N    basis set group =>   1
Atom  17H    basis set group =>   4
Atom  18O    basis set group =>   3
Atom  19H    basis set group =>   4
Atom  20C    basis set group =>   2
Atom  21H    basis set group =>   4
Atom  22H    basis set group =>   4
Atom  23H    basis set group =>   4
Atom  24C    basis set group =>   2
Atom  25H    basis set group =>   4
Atom  26H    basis set group =>   4
Atom  27H    basis set group =>   4
Atom  28H    basis set group =>   4
Atom  29H    basis set group =>   4
Atom  30H    basis set group =>   4
Atom  31H    basis set group =>   4
Atom  32H    basis set group =>   4
---------------------------------
AUXILIARY/C BASIS SET INFORMATION
---------------------------------
There are 4 groups of distinct atoms

 Group   1 Type N   : 17s13p12d2f contracted to 17s13p12d2f pattern {11111111111111111/1111111111111/111111111111/11}
 Group   2 Type C   : 17s13p12d2f contracted to 17s13p12d2f pattern {11111111111111111/1111111111111/111111111111/11}
 Group   3 Type O   : 17s13p12d2f contracted to 17s13p12d2f pattern {11111111111111111/1111111111111/111111111111/11}
 Group   4 Type H   : 15s6p1d contracted to 15s6p1d pattern {111111111111111/111111/1}

Atom   0N    basis set group =>   1
Atom   1C    basis set group =>   2
Atom   2C    basis set group =>   2
Atom   3O    basis set group =>   3
Atom   4C    basis set group =>   2
Atom   5C    basis set group =>   2
Atom   6C    basis set group =>   2
Atom   7C    basis set group =>   2
Atom   8N    basis set group =>   1
Atom   9H    basis set group =>   4
Atom  10H    basis set group =>   4
Atom  11H    basis set group =>   4
Atom  12H    basis set group =>   4
Atom  13H    basis set group =>   4
Atom  14H    basis set group =>   4
Atom  15C    basis set group =>   2
Atom  16N    basis set group =>   1
Atom  17H    basis set group =>   4
Atom  18O    basis set group =>   3
Atom  19H    basis set group =>   4
Atom  20C    basis set group =>   2
Atom  21H    basis set group =>   4
Atom  22H    basis set group =>   4
Atom  23H    basis set group =>   4
Atom  24C    basis set group =>   2
Atom  25H    basis set group =>   4
Atom  26H    basis set group =>   4
Atom  27H    basis set group =>   4
Atom  28H    basis set group =>   4
Atom  29H    basis set group =>   4
Atom  30H    basis set group =>   4
Atom  31H    basis set group =>   4
Atom  32H    basis set group =>   4
----------------------------------
AUXILIARY/JK BASIS SET INFORMATION
----------------------------------
There are 4 groups of distinct atoms

 Group   1 Type N   : 17s13p12d2f contracted to 17s13p12d2f pattern {11111111111111111/1111111111111/111111111111/11}
 Group   2 Type C   : 17s13p12d2f contracted to 17s13p12d2f pattern {11111111111111111/1111111111111/111111111111/11}
 Group   3 Type O   : 17s13p12d2f contracted to 17s13p12d2f pattern {11111111111111111/1111111111111/111111111111/11}
 Group   4 Type H   : 15s6p1d contracted to 15s6p1d pattern {111111111111111/111111/1}

Atom   0N    basis set group =>   1
Atom   1C    basis set group =>   2
Atom   2C    basis set group =>   2
Atom   3O    basis set group =>   3
Atom   4C    basis set group =>   2
Atom   5C    basis set group =>   2
Atom   6C    basis set group =>   2
Atom   7C    basis set group =>   2
Atom   8N    basis set group =>   1
Atom   9H    basis set group =>   4
Atom  10H    basis set group =>   4
Atom  11H    basis set group =>   4
Atom  12H    basis set group =>   4
Atom  13H    basis set group =>   4
Atom  14H    basis set group =>   4
Atom  15C    basis set group =>   2
Atom  16N    basis set group =>   1
Atom  17H    basis set group =>   4
Atom  18O    basis set group =>   3
Atom  19H    basis set group =>   4
Atom  20C    basis set group =>   2
Atom  21H    basis set group =>   4
Atom  22H    basis set group =>   4
Atom  23H    basis set group =>   4
Atom  24C    basis set group =>   2
Atom  25H    basis set group =>   4
Atom  26H    basis set group =>   4
Atom  27H    basis set group =>   4
Atom  28H    basis set group =>   4
Atom  29H    basis set group =>   4
Atom  30H    basis set group =>   4
Atom  31H    basis set group =>   4
Atom  32H    basis set group =>   4


           ************************************************************
           *        Program running with 16 parallel MPI-processes    *
           *              working on a common directory               *
           ************************************************************
------------------------------------------------------------------------------
                           ORCA GTO INTEGRAL CALCULATION
                           -- RI-GTO INTEGRALS CHOSEN --
------------------------------------------------------------------------------
------------------------------------------------------------------------------
                   ___                                                        
                  /   \      - P O W E R E D   B Y -                         
                 /     \                                                     
                 |  |  |   _    _      __       _____    __    __             
                 |  |  |  | |  | |    /  \     |  _  \  |  |  /  |          
                  \  \/   | |  | |   /    \    | | | |  |  | /  /          
                 / \  \   | |__| |  /  /\  \   | |_| |  |  |/  /          
                |  |  |   |  __  | /  /__\  \  |    /   |      \           
                |  |  |   | |  | | |   __   |  |    \   |  |\   \          
                \     /   | |  | | |  |  |  |  | |\  \  |  | \   \       
                 \___/    |_|  |_| |__|  |__|  |_| \__\ |__|  \__/        
                                                                              
                      - O R C A' S   B I G   F R I E N D -                    
                                      &                                       
                       - I N T E G R A L  F E E D E R -                       
                                                                              
 v1 FN, 2020, v2 2021                                                         
------------------------------------------------------------------------------


Reading SHARK input file epr_info.SHARKINP.tmp ... ok
----------------------
SHARK INTEGRAL PACKAGE
----------------------

Number of atoms                             ...     33
Number of basis functions                   ...    371
Number of shells                            ...    221
Maximum angular momentum                    ...      2
Integral batch strategy                     ... SHARK/LIBINT Hybrid
RI-J (if used) integral strategy            ... SPLIT-RIJ (Revised 2003 algorithm where possible)
Printlevel                                  ...      1
Contraction scheme used                     ... SEGMENTED contraction
Coulomb Range Separation                    ... NOT USED
Exchange Range Separation                   ... NOT USED
Finite Nucleus Model                        ... NOT USED
Auxiliary Coulomb fitting basis             ... AVAILABLE
   # of basis functions in Aux-J            ...   2542
   # of shells in Aux-J                     ...   1034
   Maximum angular momentum in Aux-J        ...      3
Auxiliary J/K fitting basis                 ... AVAILABLE
   # of basis functions in Aux-JK           ...   2542
   # of shells in Aux-JK                    ...   1034
   Maximum angular momentum in Aux-JK       ...      3
Auxiliary Correlation fitting basis         ... AVAILABLE
   # of basis functions in Aux-C            ...   2542
   # of shells in Aux-C                     ...   1034
   Maximum angular momentum in Aux-C        ...      3
Auxiliary 'external' fitting basis          ... NOT available
Integral threshold                          ...     1.000000e-10
Primitive cut-off                           ...     1.000000e-11
Primitive pair pre-selection threshold      ...     1.000000e-11

Calculating pre-screening integrals         ... done (  0.0 sec) Dimension = 221
Organizing shell pair data                  ... done (  0.0 sec)
Shell pair information
Total number of shell pairs                 ...     24531
Shell pairs after pre-screening             ...     16285
Total number of primitive shell pairs       ...     64184
Primitive shell pairs kept                  ...     30956
          la=0 lb=0:   7679 shell pairs
          la=1 lb=0:   5551 shell pairs
          la=1 lb=1:    949 shell pairs
          la=2 lb=0:   1490 shell pairs
          la=2 lb=1:    533 shell pairs
          la=2 lb=2:     83 shell pairs

Calculating one electron integrals          ... done (  0.0 sec)
Calculating RI/J V-Matrix + Cholesky decomp.... done (  0.3 sec)
Calculating RI/JK V-Matrix + Cholesky decomp... done (  0.3 sec)
Calculating RI/C V-Matrix + Cholesky decomp.... done (  0.3 sec)
Calculating Nuclear repulsion               ... done (  0.0 sec) ENN=    963.975019261202 Eh

SHARK setup successfully completed in   1.1 seconds

Maximum memory used throughout the entire GTOINT-calculation: 29.3 MB


           ************************************************************
           *        Program running with 16 parallel MPI-processes    *
           *              working on a common directory               *
           ************************************************************
-------------------------------------------------------------------------------
                                 ORCA SCF
-------------------------------------------------------------------------------

------------
SCF SETTINGS
------------
Hamiltonian:
 Density Functional     Method          .... DFT(GTOs)
 Exchange Functional    Exchange        .... B88
   X-Alpha parameter    XAlpha          ....  0.666667
   Becke's b parameter  XBeta           ....  0.004200
 Correlation Functional Correlation     .... LYP
 LDA part of GGA corr.  LDAOpt          .... VWN-5
 Gradients option       PostSCFGGA      .... off
 Hybrid DFT is turned on
   Fraction HF Exchange ScalHFX         ....  0.200000
   Scaling of DF-GGA-X  ScalDFX         ....  0.720000
   Scaling of DF-GGA-C  ScalDFC         ....  0.810000
   Scaling of DF-LDA-C  ScalLDAC        ....  1.000000
   Perturbative correction              ....  0.000000
   Density functional embedding theory  .... OFF
   NL short-range parameter             ....  4.800000
 RI-approximation to the Coulomb term is turned on
   Number of AuxJ basis functions       .... 2542
   RIJ-COSX (HFX calculated with COS-X)).... on


General Settings:
 Integral files         IntName         .... epr_info
 Hartree-Fock type      HFTyp           .... UHF
 Total Charge           Charge          ....    1
 Multiplicity           Mult            ....    2
 Number of Electrons    NEL             ....  109
 Basis Dimension        Dim             ....  371
 Nuclear Repulsion      ENuc            ....    963.9750192612 Eh

Convergence Acceleration:
 DIIS                   CNVDIIS         .... on
   Start iteration      DIISMaxIt       ....    12
   Startup error        DIISStart       ....  0.200000
   # of expansion vecs  DIISMaxEq       ....     5
   Bias factor          DIISBfac        ....   1.050
   Max. coefficient     DIISMaxC        ....  10.000
 Trust-Rad. Augm. Hess. CNVTRAH         .... auto
   Auto Start mean grad. ratio tolernc. ....  1.125000
   Auto Start start iteration           ....    20
   Auto Start num. interpolation iter.  ....    10
   Max. Number of Micro iterations      ....    16
   Max. Number of Macro iterations      .... Maxiter - #DIIS iter
   Number of Davidson start vectors     ....     2
   Converg. threshold I  (grad. norm)   ....   5.000e-05
   Converg. threshold II (energy diff.) ....   1.000e-06
   Grad. Scal. Fac. for Micro threshold ....   0.100
   Minimum threshold for Micro iter.    ....   0.010
   NR start threshold (gradient norm)   ....   0.001
   Initial trust radius                 ....   0.400
   Minimum AH scaling param. (alpha)    ....   1.000
   Maximum AH scaling param. (alpha)    .... 1000.000
   Orbital update algorithm             .... Taylor
   White noise on init. David. guess    .... on
   Maximum white noise                  ....   0.010
   Quad. conv. algorithm                .... NR
 SOSCF                  CNVSOSCF        .... off
 Level Shifting         CNVShift        .... on
   Level shift para.    LevelShift      ....    0.2500
   Turn off err/grad.   ShiftErr        ....    0.0010
 Zerner damping         CNVZerner       .... off
 Static damping         CNVDamp         .... on
   Fraction old density DampFac         ....    0.7000
   Max. Damping (<1)    DampMax         ....    0.9800
   Min. Damping (>=0)   DampMin         ....    0.0000
   Turn off err/grad.   DampErr         ....    0.1000
 Fernandez-Rico         CNVRico         .... off

SCF Procedure:
 Maximum # iterations   MaxIter         ....   125
 SCF integral mode      SCFMode         .... Direct
   Integral package                     .... SHARK and LIBINT hybrid scheme
 Reset frequency        DirectResetFreq ....    20
 Integral Threshold     Thresh          ....  1.000e-10 Eh
 Primitive CutOff       TCut            ....  1.000e-11 Eh

Convergence Tolerance:
 Convergence Check Mode ConvCheckMode   .... Total+1el-Energy
 Convergence forced     ConvForced      .... 0
 Energy Change          TolE            ....  1.000e-06 Eh
 1-El. energy change                    ....  1.000e-03 Eh
 DIIS Error             TolErr          ....  1.000e-06


Diagonalization of the overlap matrix:
Smallest eigenvalue                        ... 8.292e-04
Time for diagonalization                   ...    0.015 sec
Threshold for overlap eigenvalues          ... 1.000e-08
Number of eigenvalues below threshold      ... 0
Time for construction of square roots      ...    0.011 sec
Total time needed                          ...    0.026 sec

Time for model grid setup =    0.117 sec

------------------------------
INITIAL GUESS: MODEL POTENTIAL
------------------------------
Loading Hartree-Fock densities                     ... done
Calculating cut-offs                               ... done
Initializing the effective Hamiltonian             ... done
Setting up the integral package (SHARK)            ... done
Starting the Coulomb interaction                   ... done (   0.1 sec)
Reading the grid                                   ... done
Mapping shells                                     ... done
Starting the XC term evaluation                    ... done (   0.0 sec)
  promolecular density results
     # of electrons  =    109.979422472
     EX              =    -88.053133105
     EC              =     -3.692725803
     EX+EC           =    -91.745858908
Transforming the Hamiltonian                       ... done (   0.0 sec)
Diagonalizing the Hamiltonian                      ... done (   0.0 sec)
Back transforming the eigenvectors                 ... done (   0.0 sec)
Now organizing SCF variables                       ... done
                      ------------------
                      INITIAL GUESS DONE (   0.3 sec)
                      ------------------
-------------------
DFT GRID GENERATION
-------------------

General Integration Accuracy     IntAcc      ... 4.388
Radial Grid Type                 RadialGrid  ... OptM3 with GC (2021)
Angular Grid (max. ang.)         AngularGrid ... 4 (Lebedev-302)
Angular grid pruning method      GridPruning ... 4 (adaptive)
Weight generation scheme         WeightScheme... Becke
Basis function cutoff            BFCut       ... 1.0000e-10
Integration weight cutoff        WCut        ... 1.0000e-14
Angular grids for H and He will be reduced by one unit
Partially contracted basis set               ... off
Rotationally invariant grid construction     ... off

Total number of grid points                  ...   144546
Total number of batches                      ...     2275
Average number of points per batch           ...       63
Average number of grid points per atom       ...     4380
Time for grid setup =    0.615 sec

--------------------
COSX GRID GENERATION
--------------------

GRIDX 1
-------
General Integration Accuracy     IntAcc      ... 3.816
Radial Grid Type                 RadialGrid  ... OptM3 with GC (2021)
Angular Grid (max. ang.)         AngularGrid ... 1 (Lebedev-50)
Angular grid pruning method      GridPruning ... 4 (adaptive)
Weight generation scheme         WeightScheme... Becke
Basis function cutoff            BFCut       ... 1.0000e-10
Integration weight cutoff        WCut        ... 1.0000e-14
Angular grids for H and He will be reduced by one unit
Partially contracted basis set               ... on
Rotationally invariant grid construction     ... off

Total number of grid points                  ...    18440
Total number of batches                      ...      308
Average number of points per batch           ...       59
Average number of grid points per atom       ...      559
UseSFitting                                  ... on

GRIDX 2
-------
General Integration Accuracy     IntAcc      ... 4.020
Radial Grid Type                 RadialGrid  ... OptM3 with GC (2021)
Angular Grid (max. ang.)         AngularGrid ... 2 (Lebedev-110)
Angular grid pruning method      GridPruning ... 4 (adaptive)
Weight generation scheme         WeightScheme... Becke
Basis function cutoff            BFCut       ... 1.0000e-10
Integration weight cutoff        WCut        ... 1.0000e-14
Angular grids for H and He will be reduced by one unit
Partially contracted basis set               ... on
Rotationally invariant grid construction     ... off

Total number of grid points                  ...    38864
Total number of batches                      ...      625
Average number of points per batch           ...       62
Average number of grid points per atom       ...     1178
UseSFitting                                  ... on

GRIDX 3
-------
General Integration Accuracy     IntAcc      ... 4.338
Radial Grid Type                 RadialGrid  ... OptM3 with GC (2021)
Angular Grid (max. ang.)         AngularGrid ... 3 (Lebedev-194)
Angular grid pruning method      GridPruning ... 4 (adaptive)
Weight generation scheme         WeightScheme... Becke
Basis function cutoff            BFCut       ... 1.0000e-10
Integration weight cutoff        WCut        ... 1.0000e-14
Angular grids for H and He will be reduced by one unit
Partially contracted basis set               ... on
Rotationally invariant grid construction     ... off

Total number of grid points                  ...    84686
Total number of batches                      ...     1339
Average number of points per batch           ...       63
Average number of grid points per atom       ...     2566
UseSFitting                                  ... on

Time for X-Grid setup             =    0.796 sec

--------------
SCF ITERATIONS
--------------
ITER       Energy         Delta-E        Max-DP      RMS-DP      [F,P]     Damp
               ***  Starting incremental Fock matrix formation  ***
  0   -668.1867362964   0.000000000000 0.06070551  0.00085440  0.1230494 0.7000
  1   -668.3901660952  -0.203429798783 0.03730020  0.00058112  0.0447396 0.7000
                               ***Turning on DIIS***
  2   -668.4645883755  -0.074422280282 0.05089677  0.00088327  0.0177932 0.0000
  3   -668.5895226778  -0.124934302338 0.04233979  0.00043749  0.0219710 0.0000
  4   -668.6142601645  -0.024737486675 0.01336748  0.00014420  0.0079321 0.0000
  5   -668.6158985267  -0.001638362165 0.00578017  0.00005416  0.0046646 0.0000
  6   -668.6162007098  -0.000302183115 0.00379902  0.00003330  0.0006295 0.0000
               *** Restarting incremental Fock matrix formation ***
                                   *** Resetting DIIS ***
  7   -668.6162504857  -0.000049775891 0.00148619  0.00001894  0.0005186 0.0000
  8   -668.6162362236   0.000014262057 0.00101546  0.00001080  0.0009126 0.0000
  9   -668.6162607034  -0.000024479805 0.00030663  0.00000306  0.0001697 0.0000
 10   -668.6162608298  -0.000000126343 0.00018818  0.00000187  0.0001835 0.0000
 11   -668.6162613947  -0.000000564869 0.00004807  0.00000063  0.0000382 0.0000
                 **** Energy Check signals convergence ****

               *****************************************************
               *                     SUCCESS                       *
               *           SCF CONVERGED AFTER  12 CYCLES          *
               *****************************************************

Old exchange energy                            =    -17.879253720 Eh
New exchange energy                            =    -17.879299738 Eh
Exchange energy change after final integration =     -0.000046017 Eh
Total energy after final integration           =   -668.616307660 Eh
Final COS-X integration done in                =     2.286 sec

----------------
TOTAL SCF ENERGY
----------------

Total Energy       :         -668.61630766 Eh          -18193.97470 eV

Components:
Nuclear Repulsion  :          963.97501926 Eh           26231.09384 eV
Electronic Energy  :        -1632.59132692 Eh          -44425.06853 eV
One Electron Energy:        -2806.67119298 Eh          -76373.40591 eV
Two Electron Energy:         1174.07986606 Eh           31948.33738 eV
Max COSX asymmetry :            0.00000172 Eh               0.00005 eV

Virial components:
Potential Energy   :        -1332.63506312 Eh          -36262.84363 eV
Kinetic Energy     :          664.01875546 Eh           18068.86894 eV
Virial Ratio       :            2.00692383


DFT components:
N(Alpha)           :       54.999919698347 electrons
N(Beta)            :       53.999940739143 electrons
N(Total)           :      108.999860437490 electrons
E(X)               :      -71.016683656510 Eh       
E(C)               :       -4.317928355558 Eh       
E(XC)              :      -75.334612012068 Eh       
DFET-embed. en.    :        0.000000000000 Eh       

---------------
SCF CONVERGENCE
---------------

  Last Energy change         ...   -2.4756e-07  Tolerance :   1.0000e-06
  Last MAX-Density change    ...    0.0000e+00  Tolerance :   1.0000e-05
  Last RMS-Density change    ...    0.0000e+00  Tolerance :   1.0000e-06
  Last DIIS Error            ...    1.6149e-05  Tolerance :   1.0000e-06

             **** THE GBW FILE WAS UPDATED (epr_info.gbw) ****
             **** DENSITY epr_info.scfp WAS UPDATED ****
             **** ENERGY FILE WAS UPDATED (epr_info.en.tmp) ****
----------------------
UHF SPIN CONTAMINATION
----------------------

Warning: in a DFT calculation there is little theoretical justification to 
         calculate <S**2> as in Hartree-Fock theory. We will do it anyways
         but you should keep in mind that the values have only limited relevance

Expectation value of <S**2>     :     0.754044
Ideal value S*(S+1) for S=0.5   :     0.750000
Deviation                       :     0.004044

             **** THE GBW FILE WAS UPDATED (epr_info.gbw) ****
             **** DENSITY epr_info.scfp WAS UPDATED ****
----------------
ORBITAL ENERGIES
----------------
                 SPIN UP ORBITALS
  NO   OCC          E(Eh)            E(eV) 
   0   1.0000     -19.261605      -524.1349 
   1   1.0000     -19.221799      -523.0517 
   2   1.0000     -14.576977      -396.6597 
   3   1.0000     -14.497274      -394.4909 
   4   1.0000     -14.478219      -393.9724 
   5   1.0000     -10.437400      -284.0161 
   6   1.0000     -10.407396      -283.1996 
   7   1.0000     -10.399194      -282.9764 
   8   1.0000     -10.365868      -282.0696 
   9   1.0000     -10.355661      -281.7919 
  10   1.0000     -10.334256      -281.2094 
  11   1.0000     -10.332093      -281.1506 
  12   1.0000     -10.326582      -281.0006 
  13   1.0000     -10.290264      -280.0123 
  14   1.0000      -1.179175       -32.0870 
  15   1.0000      -1.146693       -31.2031 
  16   1.0000      -1.130318       -30.7575 
  17   1.0000      -1.061826       -28.8938 
  18   1.0000      -1.037369       -28.2282 
  19   1.0000      -0.949062       -25.8253 
  20   1.0000      -0.903684       -24.5905 
  21   1.0000      -0.864358       -23.5204 
  22   1.0000      -0.836986       -22.7755 
  23   1.0000      -0.819307       -22.2945 
  24   1.0000      -0.763125       -20.7657 
  25   1.0000      -0.741159       -20.1680 
  26   1.0000      -0.735544       -20.0152 
  27   1.0000      -0.709611       -19.3095 
  28   1.0000      -0.702219       -19.1083 
  29   1.0000      -0.695615       -18.9286 
  30   1.0000      -0.663063       -18.0429 
  31   1.0000      -0.634322       -17.2608 
  32   1.0000      -0.620759       -16.8917 
  33   1.0000      -0.601734       -16.3740 
  34   1.0000      -0.599328       -16.3085 
  35   1.0000      -0.582253       -15.8439 
  36   1.0000      -0.579089       -15.7578 
  37   1.0000      -0.568824       -15.4785 
  38   1.0000      -0.567389       -15.4394 
  39   1.0000      -0.547483       -14.8978 
  40   1.0000      -0.536742       -14.6055 
  41   1.0000      -0.526441       -14.3252 
  42   1.0000      -0.517801       -14.0901 
  43   1.0000      -0.514582       -14.0025 
  44   1.0000      -0.509675       -13.8690 
  45   1.0000      -0.502590       -13.6762 
  46   1.0000      -0.493034       -13.4161 
  47   1.0000      -0.485361       -13.2073 
  48   1.0000      -0.477440       -12.9918 
  49   1.0000      -0.464854       -12.6493 
  50   1.0000      -0.419166       -11.4061 
  51   1.0000      -0.399409       -10.8685 
  52   1.0000      -0.379426       -10.3247 
  53   1.0000      -0.365042        -9.9333 
  54   1.0000      -0.355028        -9.6608 
  55   0.0000      -0.133380        -3.6295 
  56   0.0000      -0.127737        -3.4759 
  57   0.0000      -0.100078        -2.7233 
  58   0.0000      -0.092566        -2.5189 
  59   0.0000      -0.091446        -2.4884 
  60   0.0000      -0.082157        -2.2356 
  61   0.0000      -0.075364        -2.0508 
  62   0.0000      -0.062990        -1.7140 
  63   0.0000      -0.053214        -1.4480 
  64   0.0000      -0.043621        -1.1870 
  65   0.0000      -0.040102        -1.0912 
  66   0.0000      -0.031918        -0.8685 
  67   0.0000      -0.020451        -0.5565 
  68   0.0000      -0.012473        -0.3394 
  69   0.0000      -0.005645        -0.1536 
  70   0.0000       0.010507         0.2859 
  71   0.0000       0.016319         0.4441 
  72   0.0000       0.021691         0.5902 
  73   0.0000       0.034181         0.9301 
  74   0.0000       0.040148         1.0925 
  75   0.0000       0.052678         1.4334 
  76   0.0000       0.059741         1.6256 
  77   0.0000       0.068173         1.8551 
  78   0.0000       0.072126         1.9626 
  79   0.0000       0.079330         2.1587 
  80   0.0000       0.083695         2.2775 
  81   0.0000       0.089735         2.4418 
  82   0.0000       0.091648         2.4939 
  83   0.0000       0.098377         2.6770 
  84   0.0000       0.103880         2.8267 
  85   0.0000       0.109779         2.9872 
  86   0.0000       0.116873         3.1803 
  87   0.0000       0.120134         3.2690 
  88   0.0000       0.130480         3.5505 
  89   0.0000       0.136643         3.7182 
  90   0.0000       0.137736         3.7480 
  91   0.0000       0.141712         3.8562 
  92   0.0000       0.145127         3.9491 
  93   0.0000       0.152095         4.1387 
  94   0.0000       0.158430         4.3111 
  95   0.0000       0.167980         4.5710 
  96   0.0000       0.176436         4.8011 
  97   0.0000       0.186861         5.0847 
  98   0.0000       0.194167         5.2836 
  99   0.0000       0.196206         5.3390 
 100   0.0000       0.199761         5.4358 
 101   0.0000       0.204079         5.5533 
 102   0.0000       0.206212         5.6113 
 103   0.0000       0.216421         5.8891 
 104   0.0000       0.223595         6.0843 
 105   0.0000       0.229220         6.2374 
 106   0.0000       0.232457         6.3255 
 107   0.0000       0.243262         6.6195 
 108   0.0000       0.261736         7.1222 
 109   0.0000       0.264072         7.1858 
 110   0.0000       0.276796         7.5320 
 111   0.0000       0.280927         7.6444 
 112   0.0000       0.293784         7.9943 
 113   0.0000       0.306114         8.3298 
 114   0.0000       0.310038         8.4366 
 115   0.0000       0.315826         8.5941 
 116   0.0000       0.329569         8.9680 
 117   0.0000       0.336962         9.1692 
 118   0.0000       0.342041         9.3074 
 119   0.0000       0.354707         9.6521 
 120   0.0000       0.375942        10.2299 
 121   0.0000       0.379917        10.3381 
 122   0.0000       0.385283        10.4841 
 123   0.0000       0.399261        10.8644 
 124   0.0000       0.405498        11.0342 
 125   0.0000       0.414942        11.2911 
 126   0.0000       0.425280        11.5725 
 127   0.0000       0.437694        11.9103 
 128   0.0000       0.440125        11.9764 
 129   0.0000       0.446404        12.1473 
 130   0.0000       0.473259        12.8780 
 131   0.0000       0.486863        13.2482 
 132   0.0000       0.513425        13.9710 
 133   0.0000       0.530788        14.4435 
 134   0.0000       0.554739        15.0952 
 135   0.0000       0.565857        15.3978 
 136   0.0000       0.595198        16.1962 
 137   0.0000       0.601951        16.3799 
 138   0.0000       0.638575        17.3765 
 139   0.0000       0.642260        17.4768 
 140   0.0000       0.652830        17.7644 
 141   0.0000       0.669692        18.2232 
 142   0.0000       0.692856        18.8536 
 143   0.0000       0.698422        19.0050 
 144   0.0000       0.703367        19.1396 
 145   0.0000       0.711537        19.3619 
 146   0.0000       0.715786        19.4775 
 147   0.0000       0.721972        19.6458 
 148   0.0000       0.730063        19.8660 
 149   0.0000       0.739642        20.1267 
 150   0.0000       0.755545        20.5594 
 151   0.0000       0.758921        20.6513 
 152   0.0000       0.766549        20.8588 
 153   0.0000       0.776022        21.1166 
 154   0.0000       0.782444        21.2914 
 155   0.0000       0.789457        21.4822 
 156   0.0000       0.799168        21.7465 
 157   0.0000       0.802915        21.8484 
 158   0.0000       0.810440        22.0532 
 159   0.0000       0.815581        22.1931 
 160   0.0000       0.818966        22.2852 
 161   0.0000       0.828211        22.5368 
 162   0.0000       0.834566        22.7097 
 163   0.0000       0.844386        22.9769 
 164   0.0000       0.851210        23.1626 
 165   0.0000       0.857901        23.3447 
 166   0.0000       0.863635        23.5007 
 167   0.0000       0.888938        24.1892 
 168   0.0000       0.891306        24.2537 
 169   0.0000       0.897263        24.4158 
 170   0.0000       0.909328        24.7441 
 171   0.0000       0.926159        25.2021 
 172   0.0000       0.940313        25.5872 
 173   0.0000       0.942596        25.6493 
 174   0.0000       0.961962        26.1763 
 175   0.0000       0.987489        26.8709 
 176   0.0000       1.014501        27.6060 
 177   0.0000       1.024596        27.8807 
 178   0.0000       1.038506        28.2592 
 179   0.0000       1.048715        28.5370 
 180   0.0000       1.059407        28.8279 
 181   0.0000       1.076267        29.2867 
 182   0.0000       1.077525        29.3209 
 183   0.0000       1.088637        29.6233 
 184   0.0000       1.117966        30.4214 
 185   0.0000       1.127221        30.6733 
 186   0.0000       1.160637        31.5825 
 187   0.0000       1.162649        31.6373 
 188   0.0000       1.171865        31.8881 
 189   0.0000       1.204678        32.7810 
 190   0.0000       1.210633        32.9430 
 191   0.0000       1.232976        33.5510 
 192   0.0000       1.243491        33.8371 
 193   0.0000       1.270888        34.5826 
 194   0.0000       1.276788        34.7432 
 195   0.0000       1.297507        35.3070 
 196   0.0000       1.303785        35.4778 
 197   0.0000       1.310858        35.6702 
 198   0.0000       1.315486        35.7962 
 199   0.0000       1.317061        35.8390 
 200   0.0000       1.336779        36.3756 
 201   0.0000       1.343692        36.5637 
 202   0.0000       1.366127        37.1742 
 203   0.0000       1.374028        37.3892 
 204   0.0000       1.381993        37.6059 
 205   0.0000       1.389222        37.8027 
 206   0.0000       1.399148        38.0728 
 207   0.0000       1.404322        38.2135 
 208   0.0000       1.413342        38.4590 
 209   0.0000       1.416645        38.5489 
 210   0.0000       1.432743        38.9869 
 211   0.0000       1.448390        39.4127 
 212   0.0000       1.452498        39.5245 
 213   0.0000       1.468354        39.9560 
 214   0.0000       1.478496        40.2319 
 215   0.0000       1.487447        40.4755 
 216   0.0000       1.502992        40.8985 
 217   0.0000       1.504836        40.9487 
 218   0.0000       1.521108        41.3915 
 219   0.0000       1.526729        41.5444 
 220   0.0000       1.538057        41.8527 
 221   0.0000       1.555859        42.3371 
 222   0.0000       1.566661        42.6310 
 223   0.0000       1.575700        42.8770 
 224   0.0000       1.585407        43.1411 
 225   0.0000       1.602386        43.6031 
 226   0.0000       1.611677        43.8559 
 227   0.0000       1.615709        43.9657 
 228   0.0000       1.636578        44.5335 
 229   0.0000       1.646756        44.8105 
 230   0.0000       1.652944        44.9789 
 231   0.0000       1.665382        45.3173 
 232   0.0000       1.671860        45.4936 
 233   0.0000       1.691526        46.0288 
 234   0.0000       1.706028        46.4234 
 235   0.0000       1.710697        46.5504 
 236   0.0000       1.719244        46.7830 
 237   0.0000       1.734947        47.2103 
 238   0.0000       1.756710        47.8025 
 239   0.0000       1.766730        48.0752 
 240   0.0000       1.782437        48.5026 
 241   0.0000       1.799307        48.9616 
 242   0.0000       1.814512        49.3754 
 243   0.0000       1.848090        50.2891 
 244   0.0000       1.866326        50.7853 
 245   0.0000       1.888221        51.3811 
 246   0.0000       1.900366        51.7116 
 247   0.0000       1.919490        52.2320 
 248   0.0000       1.933277        52.6072 
 249   0.0000       1.940757        52.8107 
 250   0.0000       1.949635        53.0523 
 251   0.0000       1.960167        53.3389 
 252   0.0000       1.990997        54.1778 
 253   0.0000       1.993424        54.2438 
 254   0.0000       2.002671        54.4955 
 255   0.0000       2.022020        55.0220 
 256   0.0000       2.037530        55.4440 
 257   0.0000       2.054905        55.9168 
 258   0.0000       2.065529        56.2059 
 259   0.0000       2.098297        57.0976 
 260   0.0000       2.107481        57.3475 
 261   0.0000       2.133148        58.0459 
 262   0.0000       2.150627        58.5215 
 263   0.0000       2.158928        58.7474 
 264   0.0000       2.179829        59.3162 
 265   0.0000       2.214447        60.2582 
 266   0.0000       2.222217        60.4696 
 267   0.0000       2.254795        61.3561 
 268   0.0000       2.267422        61.6997 
 269   0.0000       2.274078        61.8808 
 270   0.0000       2.275569        61.9214 
 271   0.0000       2.292519        62.3826 
 272   0.0000       2.294185        62.4280 
 273   0.0000       2.303292        62.6758 
 274   0.0000       2.317354        63.0584 
 275   0.0000       2.322415        63.1961 
 276   0.0000       2.335450        63.5508 
 277   0.0000       2.355660        64.1008 
 278   0.0000       2.373004        64.5727 
 279   0.0000       2.385630        64.9163 
 280   0.0000       2.395465        65.1839 
 281   0.0000       2.397236        65.2321 
 282   0.0000       2.412544        65.6487 
 283   0.0000       2.425891        66.0119 
 284   0.0000       2.434238        66.2390 
 285   0.0000       2.465995        67.1031 
 286   0.0000       2.510528        68.3149 
 287   0.0000       2.523482        68.6674 
 288   0.0000       2.551173        69.4209 
 289   0.0000       2.580888        70.2295 
 290   0.0000       2.582769        70.2807 
 291   0.0000       2.630228        71.5722 
 292   0.0000       2.640985        71.8648 
 293   0.0000       2.654247        72.2257 
 294   0.0000       2.667969        72.5991 
 295   0.0000       2.675645        72.8080 
 296   0.0000       2.795827        76.0783 
 297   0.0000       2.829599        76.9973 
 298   0.0000       2.893233        78.7289 
 299   0.0000       2.957772        80.4851 
 300   0.0000       2.992697        81.4354 
 301   0.0000       3.271940        89.0340 
 302   0.0000       3.285004        89.3895 
 303   0.0000       3.325170        90.4825 
 304   0.0000       3.388371        92.2023 
 305   0.0000       4.723120       128.5226 
 306   0.0000       4.841299       131.7384 
 307   0.0000       4.866484       132.4238 
 308   0.0000       4.877025       132.7106 
 309   0.0000       4.890312       133.0721 
 310   0.0000       4.894708       133.1918 
 311   0.0000       4.904906       133.4693 
 312   0.0000       4.913709       133.7088 
 313   0.0000       4.925189       134.0212 
 314   0.0000       4.949412       134.6803 
 315   0.0000       4.988337       135.7396 
 316   0.0000       5.001905       136.1087 
 317   0.0000       5.005680       136.2115 
 318   0.0000       5.092582       138.5762 
 319   0.0000       5.106490       138.9546 
 320   0.0000       5.111180       139.0823 
 321   0.0000       5.142270       139.9283 
 322   0.0000       5.161097       140.4406 
 323   0.0000       5.166978       140.6006 
 324   0.0000       5.189787       141.2213 
 325   0.0000       5.243445       142.6814 
 326   0.0000       5.262427       143.1979 
 327   0.0000       5.312919       144.5719 
 328   0.0000       5.478650       149.0816 
 329   0.0000       5.542075       150.8075 
 330   0.0000       5.601176       152.4157 
 331   0.0000       5.623807       153.0316 
 332   0.0000       5.695321       154.9776 
 333   0.0000       7.135841       194.1761 
 334   0.0000       7.156906       194.7493 
 335   0.0000       7.209361       196.1767 
 336   0.0000       8.943838       243.3742 
 337   0.0000       9.013957       245.2822 
 338   0.0000      29.462754       801.7223 
 339   0.0000      29.510852       803.0311 
 340   0.0000      29.539834       803.8197 
 341   0.0000      29.739376       809.2496 
 342   0.0000      29.815222       811.3134 
 343   0.0000      29.937124       814.6306 
 344   0.0000      29.962785       815.3288 
 345   0.0000      30.005112       816.4806 
 346   0.0000      30.114753       819.4641 
 347   0.0000      36.322434       988.3837 
 348   0.0000      36.458274       992.0801 
 349   0.0000      36.492985       993.0246 
 350   0.0000      36.500919       993.2405 
 351   0.0000      36.507426       993.4176 
 352   0.0000      36.509931       993.4857 
 353   0.0000      36.526872       993.9467 
 354   0.0000      36.533515       994.1275 
 355   0.0000      36.570443       995.1323 
 356   0.0000      36.586185       995.5607 
 357   0.0000      36.598546       995.8971 
 358   0.0000      36.624534       996.6042 
 359   0.0000      36.652693       997.3705 
 360   0.0000      36.698460       998.6159 
 361   0.0000      36.710690       998.9487 
 362   0.0000      36.749432      1000.0029 
 363   0.0000      36.783227      1000.9225 
 364   0.0000      36.799501      1001.3653 
 365   0.0000      36.820668      1001.9413 
 366   0.0000      41.060223      1117.3055 
 367   0.0000      41.081894      1117.8952 
 368   0.0000      41.165346      1120.1660 
 369   0.0000      53.480500      1455.2784 
 370   0.0000      53.549422      1457.1539 

                 SPIN DOWN ORBITALS
  NO   OCC          E(Eh)            E(eV) 
   0   1.0000     -19.261600      -524.1348 
   1   1.0000     -19.221790      -523.0515 
   2   1.0000     -14.575119      -396.6092 
   3   1.0000     -14.497256      -394.4904 
   4   1.0000     -14.478183      -393.9714 
   5   1.0000     -10.437408      -284.0163 
   6   1.0000     -10.407390      -283.1995 
   7   1.0000     -10.400042      -282.9995 
   8   1.0000     -10.365717      -282.0655 
   9   1.0000     -10.342121      -281.4234 
  10   1.0000     -10.334257      -281.2094 
  11   1.0000     -10.332878      -281.1719 
  12   1.0000     -10.325131      -280.9611 
  13   1.0000     -10.290265      -280.0123 
  14   1.0000      -1.179107       -32.0851 
  15   1.0000      -1.146656       -31.2021 
  16   1.0000      -1.126867       -30.6636 
  17   1.0000      -1.061749       -28.8917 
  18   1.0000      -1.037185       -28.2232 
  19   1.0000      -0.936461       -25.4824 
  20   1.0000      -0.898083       -24.4381 
  21   1.0000      -0.863111       -23.4865 
  22   1.0000      -0.836945       -22.7744 
  23   1.0000      -0.816988       -22.2314 
  24   1.0000      -0.755541       -20.5593 
  25   1.0000      -0.738916       -20.1069 
  26   1.0000      -0.732076       -19.9208 
  27   1.0000      -0.705918       -19.2090 
  28   1.0000      -0.700598       -19.0642 
  29   1.0000      -0.690238       -18.7823 
  30   1.0000      -0.662675       -18.0323 
  31   1.0000      -0.627535       -17.0761 
  32   1.0000      -0.618208       -16.8223 
  33   1.0000      -0.599370       -16.3097 
  34   1.0000      -0.597931       -16.2705 
  35   1.0000      -0.579943       -15.7810 
  36   1.0000      -0.578161       -15.7325 
  37   1.0000      -0.566637       -15.4190 
  38   1.0000      -0.565054       -15.3759 
  39   1.0000      -0.546251       -14.8642 
  40   1.0000      -0.534481       -14.5440 
  41   1.0000      -0.523947       -14.2573 
  42   1.0000      -0.517574       -14.0839 
  43   1.0000      -0.513727       -13.9792 
  44   1.0000      -0.507246       -13.8029 
  45   1.0000      -0.501041       -13.6340 
  46   1.0000      -0.490734       -13.3536 
  47   1.0000      -0.481169       -13.0933 
  48   1.0000      -0.475619       -12.9423 
  49   1.0000      -0.463551       -12.6139 
  50   1.0000      -0.418678       -11.3928 
  51   1.0000      -0.399220       -10.8633 
  52   1.0000      -0.378277       -10.2934 
  53   1.0000      -0.364268        -9.9122 
  54   0.0000      -0.220178        -5.9914 
  55   0.0000      -0.131154        -3.5689 
  56   0.0000      -0.123698        -3.3660 
  57   0.0000      -0.099231        -2.7002 
  58   0.0000      -0.092185        -2.5085 
  59   0.0000      -0.090774        -2.4701 
  60   0.0000      -0.080788        -2.1983 
  61   0.0000      -0.073916        -2.0114 
  62   0.0000      -0.062162        -1.6915 
  63   0.0000      -0.052020        -1.4155 
  64   0.0000      -0.043319        -1.1788 
  65   0.0000      -0.039362        -1.0711 
  66   0.0000      -0.029596        -0.8053 
  67   0.0000      -0.018728        -0.5096 
  68   0.0000      -0.010797        -0.2938 
  69   0.0000      -0.001934        -0.0526 
  70   0.0000       0.011869         0.3230 
  71   0.0000       0.018096         0.4924 
  72   0.0000       0.025904         0.7049 
  73   0.0000       0.035124         0.9558 
  74   0.0000       0.042716         1.1624 
  75   0.0000       0.054264         1.4766 
  76   0.0000       0.061741         1.6801 
  77   0.0000       0.068784         1.8717 
  78   0.0000       0.072818         1.9815 
  79   0.0000       0.080510         2.1908 
  80   0.0000       0.084657         2.3036 
  81   0.0000       0.091748         2.4966 
  82   0.0000       0.091990         2.5032 
  83   0.0000       0.099353         2.7035 
  84   0.0000       0.105238         2.8637 
  85   0.0000       0.111379         3.0308 
  86   0.0000       0.117709         3.2030 
  87   0.0000       0.121915         3.3175 
  88   0.0000       0.131843         3.5876 
  89   0.0000       0.137874         3.7517 
  90   0.0000       0.138775         3.7763 
  91   0.0000       0.143419         3.9026 
  92   0.0000       0.150625         4.0987 
  93   0.0000       0.153218         4.1693 
  94   0.0000       0.162078         4.4104 
  95   0.0000       0.169127         4.6022 
  96   0.0000       0.177104         4.8192 
  97   0.0000       0.188451         5.1280 
  98   0.0000       0.195403         5.3172 
  99   0.0000       0.197719         5.3802 
 100   0.0000       0.201975         5.4960 
 101   0.0000       0.205646         5.5959 
 102   0.0000       0.206928         5.6308 
 103   0.0000       0.217609         5.9214 
 104   0.0000       0.224544         6.1101 
 105   0.0000       0.230626         6.2757 
 106   0.0000       0.237961         6.4752 
 107   0.0000       0.244081         6.6418 
 108   0.0000       0.263401         7.1675 
 109   0.0000       0.266173         7.2429 
 110   0.0000       0.279719         7.6115 
 111   0.0000       0.294702         8.0193 
 112   0.0000       0.300841         8.1863 
 113   0.0000       0.306890         8.3509 
 114   0.0000       0.311950         8.4886 
 115   0.0000       0.320081         8.7098 
 116   0.0000       0.337112         9.1733 
 117   0.0000       0.340532         9.2663 
 118   0.0000       0.345052         9.3893 
 119   0.0000       0.356336         9.6964 
 120   0.0000       0.380632        10.3575 
 121   0.0000       0.383114        10.4251 
 122   0.0000       0.389560        10.6005 
 123   0.0000       0.400409        10.8957 
 124   0.0000       0.407263        11.0822 
 125   0.0000       0.416965        11.3462 
 126   0.0000       0.427151        11.6234 
 127   0.0000       0.439225        11.9519 
 128   0.0000       0.441724        12.0199 
 129   0.0000       0.447152        12.1676 
 130   0.0000       0.474764        12.9190 
 131   0.0000       0.487949        13.2778 
 132   0.0000       0.515589        14.0299 
 133   0.0000       0.531881        14.4732 
 134   0.0000       0.555209        15.1080 
 135   0.0000       0.567471        15.4417 
 136   0.0000       0.595844        16.2137 
 137   0.0000       0.603632        16.4257 
 138   0.0000       0.640377        17.4255 
 139   0.0000       0.643864        17.5204 
 140   0.0000       0.658315        17.9137 
 141   0.0000       0.670724        18.2513 
 142   0.0000       0.693559        18.8727 
 143   0.0000       0.700123        19.0513 
 144   0.0000       0.703789        19.1511 
 145   0.0000       0.713306        19.4100 
 146   0.0000       0.718375        19.5480 
 147   0.0000       0.722641        19.6641 
 148   0.0000       0.731709        19.9108 
 149   0.0000       0.741063        20.1653 
 150   0.0000       0.756786        20.5932 
 151   0.0000       0.760336        20.6898 
 152   0.0000       0.768387        20.9089 
 153   0.0000       0.777093        21.1458 
 154   0.0000       0.785741        21.3811 
 155   0.0000       0.790785        21.5184 
 156   0.0000       0.801268        21.8036 
 157   0.0000       0.803723        21.8704 
 158   0.0000       0.812781        22.1169 
 159   0.0000       0.816916        22.2294 
 160   0.0000       0.819754        22.3066 
 161   0.0000       0.829108        22.5612 
 162   0.0000       0.836525        22.7630 
 163   0.0000       0.844689        22.9852 
 164   0.0000       0.852181        23.1890 
 165   0.0000       0.858590        23.3634 
 166   0.0000       0.865492        23.5512 
 167   0.0000       0.891025        24.2460 
 168   0.0000       0.894200        24.3324 
 169   0.0000       0.899110        24.4660 
 170   0.0000       0.911245        24.7962 
 171   0.0000       0.927507        25.2387 
 172   0.0000       0.941954        25.6319 
 173   0.0000       0.947747        25.7895 
 174   0.0000       0.962423        26.1889 
 175   0.0000       0.991760        26.9872 
 176   0.0000       1.017878        27.6979 
 177   0.0000       1.026064        27.9206 
 178   0.0000       1.040786        28.3212 
 179   0.0000       1.052610        28.6430 
 180   0.0000       1.065085        28.9824 
 181   0.0000       1.077374        29.3168 
 182   0.0000       1.080095        29.3909 
 183   0.0000       1.089805        29.6551 
 184   0.0000       1.120112        30.4798 
 185   0.0000       1.128451        30.7067 
 186   0.0000       1.163560        31.6621 
 187   0.0000       1.165477        31.7143 
 188   0.0000       1.172960        31.9179 
 189   0.0000       1.207400        32.8550 
 190   0.0000       1.214770        33.0556 
 191   0.0000       1.236064        33.6350 
 192   0.0000       1.246189        33.9105 
 193   0.0000       1.273010        34.6404 
 194   0.0000       1.277242        34.7555 
 195   0.0000       1.298585        35.3363 
 196   0.0000       1.306448        35.5502 
 197   0.0000       1.312055        35.7028 
 198   0.0000       1.316720        35.8298 
 199   0.0000       1.321915        35.9711 
 200   0.0000       1.343246        36.5516 
 201   0.0000       1.346995        36.6536 
 202   0.0000       1.368229        37.2314 
 203   0.0000       1.374963        37.4146 
 204   0.0000       1.382515        37.6201 
 205   0.0000       1.389785        37.8180 
 206   0.0000       1.401143        38.1270 
 207   0.0000       1.405053        38.2334 
 208   0.0000       1.415367        38.5141 
 209   0.0000       1.417898        38.5830 
 210   0.0000       1.439258        39.1642 
 211   0.0000       1.449333        39.4384 
 212   0.0000       1.453482        39.5513 
 213   0.0000       1.471081        40.0301 
 214   0.0000       1.479992        40.2726 
 215   0.0000       1.495135        40.6847 
 216   0.0000       1.505610        40.9697 
 217   0.0000       1.507849        41.0306 
 218   0.0000       1.523512        41.4569 
 219   0.0000       1.529036        41.6072 
 220   0.0000       1.540030        41.9063 
 221   0.0000       1.557670        42.3864 
 222   0.0000       1.569519        42.7088 
 223   0.0000       1.578719        42.9591 
 224   0.0000       1.588265        43.2189 
 225   0.0000       1.604336        43.6562 
 226   0.0000       1.613585        43.9079 
 227   0.0000       1.616200        43.9790 
 228   0.0000       1.637746        44.5653 
 229   0.0000       1.650717        44.9183 
 230   0.0000       1.654189        45.0128 
 231   0.0000       1.671498        45.4838 
 232   0.0000       1.675364        45.5890 
 233   0.0000       1.695530        46.1377 
 234   0.0000       1.707888        46.4740 
 235   0.0000       1.710892        46.5557 
 236   0.0000       1.720832        46.8262 
 237   0.0000       1.739701        47.3397 
 238   0.0000       1.757914        47.8353 
 239   0.0000       1.767485        48.0957 
 240   0.0000       1.784477        48.5581 
 241   0.0000       1.802262        49.0420 
 242   0.0000       1.816250        49.4227 
 243   0.0000       1.849296        50.3219 
 244   0.0000       1.869344        50.8674 
 245   0.0000       1.890672        51.4478 
 246   0.0000       1.903551        51.7983 
 247   0.0000       1.920809        52.2679 
 248   0.0000       1.937647        52.7261 
 249   0.0000       1.941789        52.8388 
 250   0.0000       1.953202        53.1493 
 251   0.0000       1.961502        53.3752 
 252   0.0000       1.991811        54.1999 
 253   0.0000       1.994179        54.2644 
 254   0.0000       2.004264        54.5388 
 255   0.0000       2.023255        55.0556 
 256   0.0000       2.039482        55.4971 
 257   0.0000       2.057858        55.9972 
 258   0.0000       2.068042        56.2743 
 259   0.0000       2.100179        57.1488 
 260   0.0000       2.107675        57.3528 
 261   0.0000       2.135259        58.1034 
 262   0.0000       2.151377        58.5420 
 263   0.0000       2.160007        58.7768 
 264   0.0000       2.182137        59.3790 
 265   0.0000       2.215282        60.2809 
 266   0.0000       2.223906        60.5156 
 267   0.0000       2.256008        61.3891 
 268   0.0000       2.268156        61.7197 
 269   0.0000       2.275402        61.9168 
 270   0.0000       2.277272        61.9677 
 271   0.0000       2.292962        62.3947 
 272   0.0000       2.295437        62.4620 
 273   0.0000       2.303567        62.6832 
 274   0.0000       2.318048        63.0773 
 275   0.0000       2.323596        63.2283 
 276   0.0000       2.336062        63.5675 
 277   0.0000       2.356704        64.1292 
 278   0.0000       2.375043        64.6282 
 279   0.0000       2.386499        64.9399 
 280   0.0000       2.395923        65.1964 
 281   0.0000       2.398524        65.2671 
 282   0.0000       2.414668        65.7065 
 283   0.0000       2.426500        66.0284 
 284   0.0000       2.436315        66.2955 
 285   0.0000       2.468408        67.1688 
 286   0.0000       2.514047        68.4107 
 287   0.0000       2.524016        68.6820 
 288   0.0000       2.552365        69.4534 
 289   0.0000       2.581007        70.2328 
 290   0.0000       2.585200        70.3469 
 291   0.0000       2.630746        71.5862 
 292   0.0000       2.641139        71.8691 
 293   0.0000       2.656237        72.2799 
 294   0.0000       2.668150        72.6040 
 295   0.0000       2.676364        72.8276 
 296   0.0000       2.796148        76.0871 
 297   0.0000       2.829698        77.0000 
 298   0.0000       2.893379        78.7328 
 299   0.0000       2.957870        80.4877 
 300   0.0000       2.992737        81.4365 
 301   0.0000       3.271958        89.0345 
 302   0.0000       3.285020        89.3899 
 303   0.0000       3.325184        90.4829 
 304   0.0000       3.388523        92.2064 
 305   0.0000       4.723960       128.5455 
 306   0.0000       4.844277       131.8195 
 307   0.0000       4.867063       132.4395 
 308   0.0000       4.878113       132.7402 
 309   0.0000       4.890384       133.0741 
 310   0.0000       4.896316       133.2355 
 311   0.0000       4.906098       133.5017 
 312   0.0000       4.913881       133.7135 
 313   0.0000       4.925585       134.0320 
 314   0.0000       4.954875       134.8290 
 315   0.0000       4.988632       135.7476 
 316   0.0000       5.003121       136.1418 
 317   0.0000       5.009780       136.3230 
 318   0.0000       5.093167       138.5921 
 319   0.0000       5.108770       139.0167 
 320   0.0000       5.113091       139.1343 
 321   0.0000       5.142354       139.9306 
 322   0.0000       5.161463       140.4506 
 323   0.0000       5.168671       140.6467 
 324   0.0000       5.190716       141.2466 
 325   0.0000       5.243852       142.6925 
 326   0.0000       5.262916       143.2112 
 327   0.0000       5.313971       144.6005 
 328   0.0000       5.479123       149.0945 
 329   0.0000       5.543822       150.8551 
 330   0.0000       5.604585       152.5085 
 331   0.0000       5.632267       153.2618 
 332   0.0000       5.696836       155.0188 
 333   0.0000       7.137541       194.2224 
 334   0.0000       7.158836       194.8018 
 335   0.0000       7.209431       196.1786 
 336   0.0000       8.943858       243.3747 
 337   0.0000       9.013968       245.2825 
 338   0.0000      29.468184       801.8701 
 339   0.0000      29.512262       803.0695 
 340   0.0000      29.542678       803.8971 
 341   0.0000      29.739995       809.2664 
 342   0.0000      29.815185       811.3124 
 343   0.0000      29.942802       814.7851 
 344   0.0000      29.964732       815.3818 
 345   0.0000      30.006774       816.5258 
 346   0.0000      30.115503       819.4845 
 347   0.0000      36.323102       988.4018 
 348   0.0000      36.462864       992.2050 
 349   0.0000      36.493224       993.0311 
 350   0.0000      36.501383       993.2531 
 351   0.0000      36.507637       993.4233 
 352   0.0000      36.510062       993.4893 
 353   0.0000      36.528521       993.9916 
 354   0.0000      36.533822       994.1358 
 355   0.0000      36.572574       995.1903 
 356   0.0000      36.583528       995.4884 
 357   0.0000      36.595048       995.8019 
 358   0.0000      36.624324       996.5985 
 359   0.0000      36.654123       997.4094 
 360   0.0000      36.699177       998.6354 
 361   0.0000      36.712942       999.0099 
 362   0.0000      36.749769      1000.0120 
 363   0.0000      36.783409      1000.9274 
 364   0.0000      36.800573      1001.3945 
 365   0.0000      36.820719      1001.9427 
 366   0.0000      41.061930      1117.3519 
 367   0.0000      41.082577      1117.9137 
 368   0.0000      41.165377      1120.1669 
 369   0.0000      53.480510      1455.2787 
 370   0.0000      53.549428      1457.1540 

                    ********************************
                    * MULLIKEN POPULATION ANALYSIS *
                    ********************************

--------------------------------------------
MULLIKEN ATOMIC CHARGES AND SPIN POPULATIONS
--------------------------------------------
   0 N :   -0.184505    0.002093
   1 C :   -0.088439    0.002047
   2 C :    0.080504    0.002838
   3 O :   -0.364283   -0.000766
   4 C :   -0.286831    0.056796
   5 C :   -0.286870   -0.060818
   6 C :   -0.093208    0.972165
   7 C :   -0.287868   -0.026946
   8 N :   -0.381278    0.052695
   9 H :    0.166884   -0.046105
  10 H :    0.208248    0.021951
  11 H :    0.203718    0.001386
  12 H :    0.311844    0.006397
  13 H :    0.313120   -0.001496
  14 H :    0.238598   -0.000213
  15 C :    0.187121    0.000497
  16 N :   -0.066502    0.000748
  17 H :    0.265115   -0.000011
  18 O :   -0.262891    0.000351
  19 H :    0.337080   -0.005441
  20 C :   -0.425320   -0.000113
  21 H :    0.182972    0.000054
  22 H :    0.170927   -0.000000
  23 H :    0.190576    0.000036
  24 C :   -0.538919   -0.000085
  25 H :    0.201743    0.000062
  26 H :    0.204307    0.000006
  27 H :    0.147803    0.000009
  28 H :    0.214616    0.001351
  29 H :    0.139432   -0.003654
  30 H :    0.179563   -0.000318
  31 H :    0.149215    0.008011
  32 H :    0.173528    0.016474
Sum of atomic charges         :    1.0000000
Sum of atomic spin populations:    1.0000000

-----------------------------------------------------
MULLIKEN REDUCED ORBITAL CHARGES AND SPIN POPULATIONS
[...]
Transforming perturbed density to AO basis  ... done

 Raw HFC matrix (all values in MHz): 
 -----------------------------------
                -0.8836              -4.2993              -3.0654
                -4.3007               1.7391               1.4247
                -3.0647               1.4233              -8.1016

 A(FC)          -2.4147              -2.4147              -2.4147
 A(SD)          -1.1816               7.9947              -6.8131
 A(ORB+DIA)     -0.0001               0.0003              -0.0021    A(PC) =  -0.0006
 A(ORB)         -0.0004              -0.0000              -0.0022    A(PC) =  -0.0009
 A(DIA)          0.0003               0.0003               0.0001    A(PC) =   0.0002
             ----------           ----------           ----------
 A(Tot)         -3.5965               5.5802              -9.2299    A(iso)=   -2.4154
 Orientation: 
  X           0.7100891            0.6096939           -0.3522027
  Y           0.6466003           -0.7626489           -0.0165773
  Z          -0.2787141           -0.2159630           -0.9357769

Notes:  (1) The A matrix conforms to the "SAI" spin Hamiltonian convention.
        (2) Tensor is right-handed.

 -----------------------------------------------------------
 Nucleus  30H : A:ISTP=    1 I=  0.5 P=533.5514 MHz/au**3
                Q:ISTP=    2 I=  1.0 Q=  0.0029 barn     
 -----------------------------------------------------------
 Solving for nuclear perturbation:
Forming RHS of the CP-SCF equations         ... 
Calc. nucleus orbit integrals (SHARK)       ... done

------------------------------------------------------------------------------
                           ORCA CP-SCF CALCULATION
------------------------------------------------------------------------------

Input orbitals are from        ... epr_info.gbw
Input Perturbation             ... epr_info.pin.tmp
Wavefunction output            ... epr_info.pout.tmp
Perturbation mode              ... Imaginary perturbation
Solver                         ... POPLE
Max. number of iterations      ... 64
Convergence tolerance          ... 1.000e-03
Integral handling              ... Direct
DFT GridXC                     ... 1
COSX GridX                     ... 1
COSX IntAccX                   ... 3.067
COSX Algorithm                 ... Auto
Number of perturbations        ... 3
Number of operators            ... 2
Orbital ranges used for CP-SCF:
 Operator 0:  Orbitals   0... 54  to  55...370
 Operator 1:  Orbitals   0... 53  to  54...370
Variables per perturbation     ... 34498
DFT calculation                         ... on
XC functional terms                     ... off
Hybrid DFT                              ... on
   Exchange mixing (SCF)                ...  0.200
   Exchange mixing (CP-SCF)             ...  0.200
   GGA exch. scaling(SCF)               ...  0.720
   GGA exch. scaling (CP-SCF)           ...  0.720
   GGA corr. scaling (SCF)              ...  0.810
   GGA corr. scaling (CP-SCF)           ...  0.810

CP-SCF GRID
-----------

General Integration Accuracy     IntAcc      ... 3.467
Radial Grid Type                 RadialGrid  ... OptM3 with GC (2021)
Angular Grid (max. ang.)         AngularGrid ... 1 (Lebedev-50)
Angular grid pruning method      GridPruning ... 4 (adaptive)
Weight generation scheme         WeightScheme... Becke
Basis function cutoff            BFCut       ... 1.0000e-10
Integration weight cutoff        WCut        ... 1.0000e-14
Angular grids for H and He will be reduced by one unit
Partially contracted basis set               ... off
Rotationally invariant grid construction     ... off

Total number of grid points                  ...    20274
Total number of batches                      ...      334
Average number of points per batch           ...       60
Average number of grid points per atom       ...      614

CP-SCF GRIDX
------------

General Integration Accuracy     IntAcc      ... 3.067
Radial Grid Type                 RadialGrid  ... OptM3 with GC (2021)
Angular Grid (max. ang.)         AngularGrid ... 1 (Lebedev-50)
Angular grid pruning method      GridPruning ... 4 (adaptive)
Weight generation scheme         WeightScheme... Becke
Basis function cutoff            BFCut       ... 1.0000e-10
Integration weight cutoff        WCut        ... 1.0000e-14
Angular grids for H and He will be reduced by one unit
Partially contracted basis set               ... on
Rotationally invariant grid construction     ... off

Total number of grid points                  ...     9607
Total number of batches                      ...      173
Average number of points per batch           ...       55
Average number of grid points per atom       ...      291

Memory available               ... 919.1 MB
Memory needed per perturbation ...   8.2 MB
Perturbations treated per batch... 3
Number of batches              ... 1
     CP-SCF ITERATION   0:   4.0841e-02 (   0.5 sec   0/  3 done)
     CP-SCF ITERATION   1:   9.6179e-04 (   0.5 sec   3/  3 done)
                    *** THE CP-SCF HAS CONVERGED ***

Forming final perturbed densities           ... done
Transforming perturbed density to AO basis  ... done

 Raw HFC matrix (all values in MHz): 
 -----------------------------------
                -4.9643               1.3163               1.7769
                 1.3154               1.1391               3.4737
                 1.7762               3.4739              -1.7326

 A(FC)          -1.8531              -1.8531              -1.8531
 A(SD)          -1.8963               5.8041              -3.9078
 A(ORB+DIA)     -0.0002               0.0008               0.0008    A(PC) =   0.0005
 A(ORB)         -0.0003               0.0003               0.0008    A(PC) =   0.0003
 A(DIA)          0.0002               0.0005               0.0000    A(PC) =   0.0002
             ----------           ----------           ----------
 A(Tot)         -3.7496               3.9518              -5.7600    A(iso)=   -1.8526
 Orientation: 
  X          -0.3776167            0.2288871            0.8972270
  Y           0.6015100            0.7973141            0.0497592
  Z          -0.7039825            0.5584809           -0.4387570

Notes:  (1) The A matrix conforms to the "SAI" spin Hamiltonian convention.
        (2) Tensor is right-handed.

 -----------------------------------------------------------
 Nucleus  31H : A:ISTP=    1 I=  0.5 P=533.5514 MHz/au**3
                Q:ISTP=    2 I=  1.0 Q=  0.0029 barn     
 -----------------------------------------------------------
 Solving for nuclear perturbation:
Forming RHS of the CP-SCF equations         ... 
Calc. nucleus orbit integrals (SHARK)       ... done

------------------------------------------------------------------------------
                           ORCA CP-SCF CALCULATION
------------------------------------------------------------------------------

Input orbitals are from        ... epr_info.gbw
Input Perturbation             ... epr_info.pin.tmp
Wavefunction output            ... epr_info.pout.tmp
Perturbation mode              ... Imaginary perturbation
Solver                         ... POPLE
Max. number of iterations      ... 64
Convergence tolerance          ... 1.000e-03
Integral handling              ... Direct
DFT GridXC                     ... 1
COSX GridX                     ... 1
COSX IntAccX                   ... 3.067
COSX Algorithm                 ... Auto
Number of perturbations        ... 3
Number of operators            ... 2
Orbital ranges used for CP-SCF:
 Operator 0:  Orbitals   0... 54  to  55...370
 Operator 1:  Orbitals   0... 53  to  54...370
Variables per perturbation     ... 34498
DFT calculation                         ... on
XC functional terms                     ... off
Hybrid DFT                              ... on
   Exchange mixing (SCF)                ...  0.200
   Exchange mixing (CP-SCF)             ...  0.200
   GGA exch. scaling(SCF)               ...  0.720
   GGA exch. scaling (CP-SCF)           ...  0.720
   GGA corr. scaling (SCF)              ...  0.810
   GGA corr. scaling (CP-SCF)           ...  0.810

CP-SCF GRID
-----------

General Integration Accuracy     IntAcc      ... 3.467
Radial Grid Type                 RadialGrid  ... OptM3 with GC (2021)
Angular Grid (max. ang.)         AngularGrid ... 1 (Lebedev-50)
Angular grid pruning method      GridPruning ... 4 (adaptive)
Weight generation scheme         WeightScheme... Becke
Basis function cutoff            BFCut       ... 1.0000e-10
Integration weight cutoff        WCut        ... 1.0000e-14
Angular grids for H and He will be reduced by one unit
Partially contracted basis set               ... off
Rotationally invariant grid construction     ... off

Total number of grid points                  ...    20274
Total number of batches                      ...      334
Average number of points per batch           ...       60
Average number of grid points per atom       ...      614

CP-SCF GRIDX
------------

General Integration Accuracy     IntAcc      ... 3.067
Radial Grid Type                 RadialGrid  ... OptM3 with GC (2021)
Angular Grid (max. ang.)         AngularGrid ... 1 (Lebedev-50)
Angular grid pruning method      GridPruning ... 4 (adaptive)
Weight generation scheme         WeightScheme... Becke
Basis function cutoff            BFCut       ... 1.0000e-10
Integration weight cutoff        WCut        ... 1.0000e-14
Angular grids for H and He will be reduced by one unit
Partially contracted basis set               ... on
Rotationally invariant grid construction     ... off

Total number of grid points                  ...     9607
Total number of batches                      ...      173
Average number of points per batch           ...       55
Average number of grid points per atom       ...      291

Memory available               ... 918.7 MB
Memory needed per perturbation ...   8.2 MB
Perturbations treated per batch... 3
Number of batches              ... 1
     CP-SCF ITERATION   0:   4.2036e-02 (   0.5 sec   0/  3 done)
     CP-SCF ITERATION   1:   1.1439e-03 (   0.5 sec   0/  3 done)
     CP-SCF ITERATION   2:   1.0281e-04 (   0.5 sec   3/  3 done)
                    *** THE CP-SCF HAS CONVERGED ***

Forming final perturbed densities           ... done
Transforming perturbed density to AO basis  ... done

 Raw HFC matrix (all values in MHz): 
 -----------------------------------
                16.0816               2.7915              -2.7852
                 2.7932              20.5134              -6.0065
                -2.7886              -6.0082              19.6743

 A(FC)          18.7547              18.7547              18.7547
 A(SD)          -4.7086              -4.0133               8.7219
 A(ORB+DIA)      0.0019               0.0002               0.0033    A(PC) =   0.0018
 A(ORB)          0.0009              -0.0006               0.0025    A(PC) =   0.0009
 A(DIA)          0.0010               0.0008               0.0008    A(PC) =   0.0009
             ----------           ----------           ----------
 A(Tot)         14.0480              14.7415              27.4799    A(iso)=   18.7565
 Orientation: 
  X           0.1752828            0.9286767            0.3268572
  Y           0.6284665           -0.3610989            0.6889393
  Z           0.7578296            0.0846596           -0.6469366

Notes:  (1) The A matrix conforms to the "SAI" spin Hamiltonian convention.
        (2) Tensor is right-handed.

 -----------------------------------------------------------
 Nucleus  32H : A:ISTP=    1 I=  0.5 P=533.5514 MHz/au**3
                Q:ISTP=    2 I=  1.0 Q=  0.0029 barn     
 -----------------------------------------------------------
 Solving for nuclear perturbation:
Forming RHS of the CP-SCF equations         ... 
Calc. nucleus orbit integrals (SHARK)       ... done

------------------------------------------------------------------------------
                           ORCA CP-SCF CALCULATION
------------------------------------------------------------------------------

Input orbitals are from        ... epr_info.gbw
Input Perturbation             ... epr_info.pin.tmp
Wavefunction output            ... epr_info.pout.tmp
Perturbation mode              ... Imaginary perturbation
Solver                         ... POPLE
Max. number of iterations      ... 64
Convergence tolerance          ... 1.000e-03
Integral handling              ... Direct
DFT GridXC                     ... 1
COSX GridX                     ... 1
COSX IntAccX                   ... 3.067
COSX Algorithm                 ... Auto
Number of perturbations        ... 3
Number of operators            ... 2
Orbital ranges used for CP-SCF:
 Operator 0:  Orbitals   0... 54  to  55...370
 Operator 1:  Orbitals   0... 53  to  54...370
Variables per perturbation     ... 34498
DFT calculation                         ... on
XC functional terms                     ... off
Hybrid DFT                              ... on
   Exchange mixing (SCF)                ...  0.200
   Exchange mixing (CP-SCF)             ...  0.200
   GGA exch. scaling(SCF)               ...  0.720
   GGA exch. scaling (CP-SCF)           ...  0.720
   GGA corr. scaling (SCF)              ...  0.810
   GGA corr. scaling (CP-SCF)           ...  0.810

CP-SCF GRID
-----------

General Integration Accuracy     IntAcc      ... 3.467
Radial Grid Type                 RadialGrid  ... OptM3 with GC (2021)
Angular Grid (max. ang.)         AngularGrid ... 1 (Lebedev-50)
Angular grid pruning method      GridPruning ... 4 (adaptive)
Weight generation scheme         WeightScheme... Becke
Basis function cutoff            BFCut       ... 1.0000e-10
Integration weight cutoff        WCut        ... 1.0000e-14
Angular grids for H and He will be reduced by one unit
Partially contracted basis set               ... off
Rotationally invariant grid construction     ... off

Total number of grid points                  ...    20274
Total number of batches                      ...      334
Average number of points per batch           ...       60
Average number of grid points per atom       ...      614

CP-SCF GRIDX
------------

General Integration Accuracy     IntAcc      ... 3.067
Radial Grid Type                 RadialGrid  ... OptM3 with GC (2021)
Angular Grid (max. ang.)         AngularGrid ... 1 (Lebedev-50)
Angular grid pruning method      GridPruning ... 4 (adaptive)
Weight generation scheme         WeightScheme... Becke
Basis function cutoff            BFCut       ... 1.0000e-10
Integration weight cutoff        WCut        ... 1.0000e-14
Angular grids for H and He will be reduced by one unit
Partially contracted basis set               ... on
Rotationally invariant grid construction     ... off

Total number of grid points                  ...     9607
Total number of batches                      ...      173
Average number of points per batch           ...       55
Average number of grid points per atom       ...      291

Memory available               ... 918.3 MB
Memory needed per perturbation ...   8.2 MB
Perturbations treated per batch... 3
Number of batches              ... 1
     CP-SCF ITERATION   0:   3.9802e-02 (   0.5 sec   0/  3 done)
     CP-SCF ITERATION   1:   1.2593e-03 (   0.5 sec   1/  3 done)
     CP-SCF ITERATION   2:   1.0268e-04 (   0.4 sec   3/  3 done)
                    *** THE CP-SCF HAS CONVERGED ***

Forming final perturbed densities           ... done
Transforming perturbed density to AO basis  ... done

 Raw HFC matrix (all values in MHz): 
 -----------------------------------
                47.7781               6.6825               0.2348
                 6.6834              46.5222               0.1099
                 0.2378               0.1118              40.4439

 A(FC)          44.9135              44.9135              44.9135
 A(SD)          -4.5512              -4.3989               8.9501
 A(ORB+DIA)     -0.0009               0.0011               0.0036    A(PC) =   0.0013
 A(ORB)         -0.0009               0.0005               0.0029    A(PC) =   0.0009
 A(DIA)          0.0000               0.0005               0.0007    A(PC) =   0.0004
             ----------           ----------           ----------
 A(Tot)         40.3614              40.5156              53.8672    A(iso)=   44.9147
 Orientation: 
  X          -0.4871566            0.4647349            0.7393916
  Y           0.5158865           -0.5300012            0.6730230
  Z           0.7046556            0.7093097            0.0184431

Notes:  (1) The A matrix conforms to the "SAI" spin Hamiltonian convention.
        (2) Tensor is right-handed.


--------------------------------------------------------------------------------
----------------------------------------------------------------------------
                           ORCA EULER ANGLE PROGRAM
----------------------------------------------------------------------------

Only g-tensor available        -->  using g-tensor as reference tensor

Reference tensor               ...  g

g-tensor ordering              ...  |g_min> --> |gx>
                                    |g_mid> --> |gy>
                                    |g_max> --> |gz>

A- and EFG-tensor ordering     ...  the axes |Ax>, |Qx>, |Ay>, etc. are assigned
                                    such that the Euler rotation is minimal. You
                                    can find the respective eigenvalues as Ax,
                                    EFGx, Ay, etc. in the tables below.
                                    The relation of |Ax>, |Ay>,  etc. to Amin, Amid, etc.
                                    (as printed in the ORCA EPR/NMR CALCULATION Output)
                                    is obtained in the detailed printout.

Euler rotation around          ...  z - y - z
   First rotation              -->  by alpha around z
   Second rotation             -->  by beta around y'
   Third rotation              -->  by gamma around z''
   Positive / Negative angle   -->  clockwise / counterclockwise rotation

Plot EFG-tensors                    (-)
Plot HFC-tensors                    (-)
Detailed Printout                   (-)

-------------------------------------------------------------------------
          Euler rotation of hyperfine tensor to g-tensor
-------------------------------------------------------------------------

-------------------------------------------------------------------
 Atom  |   Alpha    Beta    Gamma   |   Ax       Ay       Az 
       |          [degrees]         |           [MHz]         
-------------------------------------------------------------------
  8N      133.4     51.3   -146.9     557.78   558.63   651.49
  9H      -78.4     39.8     94.3     -66.70   -26.26  -102.17
 10H       14.5     20.4    -10.1      53.17    50.39    65.32
 11H      -70.4     35.0     89.3       0.05    -1.82    13.57
 12H     -147.1      7.7    174.7       6.94     5.10    15.43
 13H       16.0     30.3    -26.1       3.63   -10.12    -5.67
 19H     -116.3     40.6     97.4      -8.96     2.88    -5.69
 29H       84.2     28.4    -56.9       5.58    -3.60    -9.23
 30H      -60.3     40.5     42.9      -5.76    -3.75     3.95
 31H       -2.3     35.7     19.1      14.74    27.48    14.05
 32H     -114.7     45.3    109.8      40.36    40.52    53.87
-------------------------------------------------------------------


Maximum memory used throughout the entire EPRNMR-calculation: 140.9 MB

Timings for individual modules:

Sum of individual times         ...      362.013 sec (=   6.034 min)
GTO integral calculation        ...        3.578 sec (=   0.060 min)   1.0 %
Spin-Orbit-Coupling Matrices    ...        4.911 sec (=   0.082 min)   1.4 %
SCF iterations                  ...       26.804 sec (=   0.447 min)   7.4 %
EPR/NMR calculation             ...      326.720 sec (=   5.445 min)  90.3 %
                             ****ORCA TERMINATED NORMALLY****
TOTAL RUN TIME: 0 days 0 hours 6 minutes 4 seconds 701 msec
