
                                 *****************
                                 * O   R   C   A *
                                 *****************

                                            #,                                       
                                            ###                                      
                                            ####                                     
                                            #####                                    
                                            ######                                   
                                           ########,                                 
                                     ,,################,,,,,                         
                               ,,#################################,,                 
                          ,,##########################################,,             
                       ,#########################################, ''#####,          
                    ,#############################################,,   '####,        
                  ,##################################################,,,,####,       
                ,###########''''           ''''###############################       
              ,#####''   ,,,,##########,,,,          '''####'''          '####       
            ,##' ,,,,###########################,,,                        '##       
           ' ,,###''''                  '''############,,,                           
         ,,##''                                '''############,,,,        ,,,,,,###''
      ,#''                                            '''#######################'''  
     '                                                          ''''####''''         
             ,#######,   #######,   ,#######,      ##                                
            ,#'     '#,  ##    ##  ,#'     '#,    #''#        ######   ,####,        
            ##       ##  ##   ,#'  ##            #'  '#       #        #'  '#        
            ##       ##  #######   ##           ,######,      #####,   #    #        
            '#,     ,#'  ##    ##  '#,     ,#' ,#      #,         ##   #,  ,#        
             '#######'   ##     ##  '#######'  #'      '#     #####' # '####'        



                  #######################################################
                  #                        -***-                        #
                  #          Department of theory and spectroscopy      #
                  #    Directorship and core code : Frank Neese         #
                  #        Max Planck Institute fuer Kohlenforschung    #
                  #                Kaiser Wilhelm Platz 1               #
                  #                 D-45470 Muelheim/Ruhr               #
                  #                      Germany                        #
                  #                                                     #
                  #                  All rights reserved                #
                  #                        -***-                        #
                  #######################################################


                         Program Version 5.0.4 -  RELEASE  -


 With contributions from (in alphabetic order):
   Daniel Aravena         : Magnetic Suceptibility
   Michael Atanasov       : Ab Initio Ligand Field Theory (pilot matlab implementation)
   Alexander A. Auer      : GIAO ZORA, VPT2 properties, NMR spectrum
   Ute Becker             : Parallelization
   Giovanni Bistoni       : ED, misc. LED, open-shell LED, HFLD
   Martin Brehm           : Molecular dynamics
   Dmytro Bykov           : SCF Hessian
   Vijay G. Chilkuri      : MRCI spin determinant printing, contributions to CSF-ICE
   Dipayan Datta          : RHF DLPNO-CCSD density
   Achintya Kumar Dutta   : EOM-CC, STEOM-CC
   Dmitry Ganyushin       : Spin-Orbit,Spin-Spin,Magnetic field MRCI
   Miquel Garcia          : C-PCM and meta-GGA Hessian, CC/C-PCM, Gaussian charge scheme
   Yang Guo               : DLPNO-NEVPT2, F12-NEVPT2, CIM, IAO-localization
   Andreas Hansen         : Spin unrestricted coupled pair/coupled cluster methods
   Benjamin Helmich-Paris : MC-RPA, TRAH-SCF, COSX integrals
   Lee Huntington         : MR-EOM, pCC
   Robert Izsak           : Overlap fitted RIJCOSX, COSX-SCS-MP3, EOM
   Marcus Kettner         : VPT2
   Christian Kollmar      : KDIIS, OOCD, Brueckner-CCSD(T), CCSD density, CASPT2, CASPT2-K
   Simone Kossmann        : Meta GGA functionals, TD-DFT gradient, OOMP2, MP2 Hessian
   Martin Krupicka        : Initial AUTO-CI
   Lucas Lang             : DCDCAS
   Marvin Lechner         : AUTO-CI (C++ implementation), FIC-MRCC
   Dagmar Lenk            : GEPOL surface, SMD
   Dimitrios Liakos       : Extrapolation schemes; Compound Job, initial MDCI parallelization
   Dimitrios Manganas     : Further ROCIS development; embedding schemes
   Dimitrios Pantazis     : SARC Basis sets
   Anastasios Papadopoulos: AUTO-CI, single reference methods and gradients
   Taras Petrenko         : DFT Hessian,TD-DFT gradient, ASA, ECA, R-Raman, ABS, FL, XAS/XES, NRVS
   Peter Pinski           : DLPNO-MP2, DLPNO-MP2 Gradient
   Christoph Reimann      : Effective Core Potentials
   Marius Retegan         : Local ZFS, SOC
   Christoph Riplinger    : Optimizer, TS searches, QM/MM, DLPNO-CCSD(T), (RO)-DLPNO pert. Triples
   Tobias Risthaus        : Range-separated hybrids, TD-DFT gradient, RPA, STAB
   Michael Roemelt        : Original ROCIS implementation
   Masaaki Saitow         : Open-shell DLPNO-CCSD energy and density
   Barbara Sandhoefer     : DKH picture change effects
   Avijit Sen             : IP-ROCIS
   Kantharuban Sivalingam : CASSCF convergence, NEVPT2, FIC-MRCI
   Bernardo de Souza      : ESD, SOC TD-DFT
   Georgi Stoychev        : AutoAux, RI-MP2 NMR, DLPNO-MP2 response
   Willem Van den Heuvel  : Paramagnetic NMR
   Boris Wezisla          : Elementary symmetry handling
   Frank Wennmohs         : Technical directorship


 We gratefully acknowledge several colleagues who have allowed us to
 interface, adapt or use parts of their codes:
   Stefan Grimme, W. Hujo, H. Kruse, P. Pracht,  : VdW corrections, initial TS optimization,
                  C. Bannwarth, S. Ehlert          DFT functionals, gCP, sTDA/sTD-DF
   Ed Valeev, F. Pavosevic, A. Kumar             : LibInt (2-el integral package), F12 methods
   Garnet Chan, S. Sharma, J. Yang, R. Olivares  : DMRG
   Ulf Ekstrom                                   : XCFun DFT Library
   Mihaly Kallay                                 : mrcc  (arbitrary order and MRCC methods)
   Jiri Pittner, Ondrej Demel                    : Mk-CCSD
   Frank Weinhold                                : gennbo (NPA and NBO analysis)
   Christopher J. Cramer and Donald G. Truhlar   : smd solvation model
   Lars Goerigk                                  : TD-DFT with DH, B97 family of functionals
   V. Asgeirsson, H. Jonsson                     : NEB implementation
   FAccTs GmbH                                   : IRC, NEB, NEB-TS, DLPNO-Multilevel, CI-OPT
                                                   MM, QMMM, 2- and 3-layer-ONIOM, Crystal-QMMM,
                                                   LR-CPCM, SF, NACMEs, symmetry and pop. for TD-DFT,
                                                   nearIR, NL-DFT gradient (VV10), updates on ESD,
                                                   ML-optimized integration grids
   S Lehtola, MJT Oliveira, MAL Marques          : LibXC Library
   Liviu Ungur et al                             : ANISO software


 Your calculation uses the libint2 library for the computation of 2-el integrals
 For citations please refer to: http://libint.valeyev.net

 Your ORCA version has been built with support for libXC version: 5.1.0
 For citations please refer to: https://tddft.org/programs/libxc/

 This ORCA versions uses:
   CBLAS   interface :  Fast vector & matrix operations
   LAPACKE interface :  Fast linear algebra routines
   SCALAPACK package :  Parallel linear algebra routines
   Shared memory     :  Shared parallel matrices
   BLAS/LAPACK       :  OpenBLAS 0.3.15  USE64BITINT DYNAMIC_ARCH NO_AFFINITY Zen SINGLE_THREADED
        Core in use  :  Zen
   Copyright (c) 2011-2014, The OpenBLAS Project




***************************************
The coordinates will be read from file: opt.xyz
***************************************


XCFun DFT library Copyright 2009-2010 Ulf Ekstrom and contributors.
See http://admol.org/xcfun for more information.
This is free software; see the source code for copying conditions.
There is ABSOLUTELY NO WARRANTY; not even for MERCHANTABILITY or FITNESS FOR A PARTICULAR PURPOSE.
For details see the documentation.
Scientific users of this library should cite U. Ekstrom, L. Visscher, R. Bast, A. J. Thorvaldsen and K. Ruud;
J.Chem.Theor.Comp. 2010, DOI: 10.1021/ct100117s
XCFun Version 0.99 

================================================================================

----- Orbital basis set information -----
Your calculation utilizes the basis: def2-TZVP
   F. Weigend and R. Ahlrichs, Phys. Chem. Chem. Phys. 7, 3297 (2005).

----- AuxJ basis set information -----
Your calculation utilizes the auxiliary basis: def2/J
   F. Weigend, Phys. Chem. Chem. Phys. 8, 1057 (2006).

================================================================================
                                        WARNINGS
                       Please study these warnings very carefully!
================================================================================


WARNING: your system is open-shell and RHF/RKS was chosen
  ===> : WILL SWITCH to UHF/UKS


WARNING: Geometry Optimization
  ===> : Switching off AutoStart
         For restart on a previous wavefunction, please use MOREAD

WARNING: Minnesota functionals are quite sensitive to the integration grid.
         see SE Wheeler, KN Houk, JCTC 2010, 6, 395,
             N Mardirossian, M Head-Gordon, JCTC 2016, 12, 4303.
         DEFGRID3 seems to be a minimum grid for reliable results with these functionals!
  ===> : Please increase the integration grid!


INFO   : the flag for use of the SHARK integral package has been found!

================================================================================
                                       INPUT FILE
================================================================================
NAME = freq.inp
|  1> ! M062X def2-TZVP OPT FREQ
|  2> %pal nprocs 16 end
|  3> *XYZFile 1 2 opt.xyz
|  4> 
|  5>                          ****END OF INPUT****
================================================================================

                       *****************************
                       * Geometry Optimization Run *
                       *****************************

Geometry optimization settings:
Update method            Update   .... BFGS
Choice of coordinates    CoordSys .... Z-matrix Internals
Initial Hessian          InHess   .... Almoef's Model

Convergence Tolerances:
Energy Change            TolE     ....  5.0000e-06 Eh
Max. Gradient            TolMAXG  ....  3.0000e-04 Eh/bohr
RMS Gradient             TolRMSG  ....  1.0000e-04 Eh/bohr
Max. Displacement        TolMAXD  ....  4.0000e-03 bohr
RMS Displacement         TolRMSD  ....  2.0000e-03 bohr
Strict Convergence                ....  False
------------------------------------------------------------------------------
                        ORCA OPTIMIZATION COORDINATE SETUP
------------------------------------------------------------------------------

The optimization will be done in new redundant internal coordinates
Making redundant internal coordinates   ...  (new redundants) done
Evaluating the initial hessian          ...  (Almloef) done
Evaluating the coordinates              ...  done
Calculating the B-matrix                .... done
Calculating the G-matrix                .... done
Diagonalizing the G-matrix              .... done
Small eigenvalue found = 4.455e-03
Small eigenvalue found = 8.280e-03
Small eigenvalue found = 1.062e-02
Small eigenvalue found = 1.430e-02
Small eigenvalue found = 1.537e-02
The first mode is                       ....   67
The number of degrees of freedom        ....   93

    -----------------------------------------------------------------
                    Redundant Internal Coordinates


    -----------------------------------------------------------------
         Definition                    Initial Value    Approx d2E/dq
    -----------------------------------------------------------------
      1. B(C   1,N   0)                  1.4578         0.436229   
      2. B(C   2,C   1)                  1.5440         0.354798   
      3. B(O   3,C   2)                  1.2557         0.916454   
      4. B(C   4,C   1)                  1.5424         0.356934   
      5. B(C   5,C   4)                  1.5710         0.321288   
      6. B(C   6,C   5)                  1.5019         0.414196   
      7. B(C   7,C   6)                  1.4957         0.423778   
      8. B(N   8,C   7)                  1.5382         0.324657   
      9. B(H   9,C   6)                  1.0864         0.364843   
     10. B(H  10,C   7)                  1.0956         0.352825   
     11. B(H  11,C   7)                  1.0914         0.358281   
     12. B(H  12,N   8)                  1.0233         0.412149   
     13. B(H  13,N   8)                  1.0217         0.414449   
     14. B(H  14,N   0)                  1.0109         0.431299   
     15. B(C  15,N   0)                  1.3988         0.541867   
     16. B(N  16,C   2)                  1.3385         0.676178   
     17. B(H  17,N  16)                  1.0108         0.431362   
     18. B(O  18,C  15)                  1.2220         1.037355   
     19. B(H  19,N   8)                  1.0776         0.337513   
     20. B(C  20,N  16)                  1.4653         0.424386   
     21. B(H  21,C  20)                  1.0938         0.355135   
     22. B(H  22,C  20)                  1.0902         0.359881   
     23. B(H  23,C  20)                  1.0918         0.357747   
     24. B(C  24,C  15)                  1.5196         0.388104   
     25. B(H  25,C  24)                  1.0940         0.354802   
     26. B(H  26,C  24)                  1.0926         0.356648   
     27. B(H  27,C  24)                  1.0931         0.356057   
     28. B(H  28,C   1)                  1.0984         0.349135   
     29. B(H  29,C   4)                  1.0938         0.355090   
     30. B(H  30,C   4)                  1.0930         0.356089   
     31. B(H  31,C   5)                  1.0974         0.350433   
     32. B(H  32,C   5)                  1.0952         0.353325   
     33. A(C   1,N   0,H  14)          118.5393         0.337859   
     34. A(C   1,N   0,C  15)          119.9628         0.393038   
     35. A(H  14,N   0,C  15)          117.4659         0.350378   
     36. A(C   2,C   1,H  28)          105.5881         0.319966   
     37. A(C   4,C   1,H  28)          107.2343         0.320280   
     38. A(N   0,C   1,H  28)          104.2268         0.329032   
     39. A(N   0,C   1,C   4)          114.5282         0.367921   
     40. A(N   0,C   1,C   2)          112.1266         0.367542   
     41. A(C   2,C   1,C   4)          112.2614         0.357386   
     42. A(C   1,C   2,N  16)          116.5067         0.396591   
     43. A(O   3,C   2,N  16)          121.3594         0.467151   
     44. A(C   1,C   2,O   3)          122.0562         0.418504   
     45. A(C   1,C   4,C   5)          115.0348         0.351426   
     46. A(C   1,C   4,H  29)          107.5153         0.321167   
     47. A(H  29,C   4,H  30)          105.8392         0.289691   
     48. A(C   5,C   4,H  30)          109.7849         0.315848   
     49. A(C   1,C   4,H  30)          107.9095         0.321315   
     50. A(C   5,C   4,H  29)          110.3228         0.315704   
     51. A(C   6,C   5,H  32)          109.1761         0.328848   
     52. A(C   4,C   5,C   6)          112.8493         0.360414   
     53. A(C   4,C   5,H  32)          109.0206         0.315448   
     54. A(C   6,C   5,H  31)          108.8732         0.328402   
     55. A(H  31,C   5,H  32)          107.0337         0.288740   
     56. A(C   4,C   5,H  31)          109.7196         0.315027   
     57. A(C   5,C   6,C   7)          121.5881         0.377967   
     58. A(C   7,C   6,H   9)          118.3491         0.331850   
     59. A(C   5,C   6,H   9)          119.9340         0.330596   
     60. A(H  10,C   7,H  11)          108.9222         0.289679   
     61. A(N   8,C   7,H  11)          107.1415         0.314826   
     62. A(C   6,C   7,H  11)          112.2676         0.330854   
     63. A(N   8,C   7,H  10)          104.5323         0.314043   
     64. A(C   6,C   7,H  10)          111.6869         0.330016   
     65. A(C   6,C   7,N   8)          111.8973         0.360217   
     66. A(H  13,N   8,H  19)          109.0938         0.289574   
     67. A(H  12,N   8,H  19)          108.1888         0.289322   
     68. A(C   7,N   8,H  19)          110.1005         0.309198   
     69. A(H  12,N   8,H  13)          107.8522         0.298852   
     70. A(C   7,N   8,H  13)          110.6163         0.319674   
     71. A(C   7,N   8,H  12)          110.9152         0.319384   
     72. A(N   0,C  15,O  18)          121.1805         0.458896   
     73. A(O  18,C  15,C  24)          123.0045         0.434829   
     74. A(N   0,C  15,C  24)          115.8064         0.387556   
     75. A(H  17,N  16,C  20)          119.6022         0.336322   
     76. A(C   2,N  16,C  20)          123.5508         0.406680   
     77. A(C   2,N  16,H  17)          116.8213         0.363821   
     78. A(N  16,C  20,H  21)          110.9329         0.328463   
     79. A(H  22,C  20,H  23)          109.3409         0.290512   
     80. A(H  21,C  20,H  23)          108.8231         0.289908   
     81. A(N  16,C  20,H  23)          110.0536         0.328861   
     82. A(H  21,C  20,H  22)          109.1551         0.290178   
     83. A(N  16,C  20,H  22)          108.5124         0.329184   
     84. A(H  26,C  24,H  27)          109.4312         0.289886   
     85. A(H  25,C  24,H  27)          109.2208         0.289650   
     86. A(C  15,C  24,H  27)          113.7486         0.325754   
     87. A(H  25,C  24,H  26)          107.3226         0.289725   
     88. A(C  15,C  24,H  26)          108.5528         0.325843   
     89. A(C  15,C  24,H  25)          108.3651         0.325565   
     90. D(C   2,C   1,N   0,H  14)     72.4021         0.016225   
     91. D(H  28,C   1,N   0,H  14)   -173.8728         0.016225   
     92. D(C   2,C   1,N   0,C  15)   -130.7411         0.016225   
     93. D(C   4,C   1,N   0,H  14)    -57.0221         0.016225   
     94. D(C   4,C   1,N   0,C  15)     99.8348         0.016225   
     95. D(H  28,C   1,N   0,C  15)    -17.0159         0.016225   
     96. D(N  16,C   2,C   1,N   0)     32.5877         0.009489   
     97. D(N  16,C   2,C   1,C   4)    163.1803         0.009489   
     98. D(O   3,C   2,C   1,C   4)    -19.9861         0.009489   
     99. D(O   3,C   2,C   1,N   0)   -150.5788         0.009489   
    100. D(N  16,C   2,C   1,H  28)    -80.2961         0.009489   
    101. D(O   3,C   2,C   1,H  28)     96.5374         0.009489   
    102. D(C   5,C   4,C   1,C   2)    -62.5296         0.010234   
    103. D(C   5,C   4,C   1,H  28)   -178.0602         0.010234   
    104. D(C   5,C   4,C   1,N   0)     66.8276         0.010234   
    105. D(H  30,C   4,C   1,C   2)    174.5448         0.010234   
    106. D(H  30,C   4,C   1,N   0)    -56.0980         0.010234   
    107. D(H  30,C   4,C   1,H  28)     59.0142         0.010234   
    108. D(H  29,C   4,C   1,H  28)    -54.7375         0.010234   
    109. D(H  29,C   4,C   1,N   0)   -169.8497         0.010234   
    110. D(H  29,C   4,C   1,C   2)     60.7931         0.010234   
    111. D(H  32,C   5,C   4,H  30)     23.6288         0.008454   
    112. D(H  32,C   5,C   4,H  29)    139.8951         0.008454   
    113. D(H  32,C   5,C   4,C   1)    -98.2888         0.008454   
    114. D(H  31,C   5,C   4,H  30)    140.5471         0.008454   
    115. D(H  31,C   5,C   4,H  29)   -103.1867         0.008454   
    116. D(C   6,C   5,C   4,H  30)    -97.8570         0.008454   
    117. D(C   6,C   5,C   4,H  29)     18.4092         0.008454   
    118. D(C   6,C   5,C   4,C   1)    140.2253         0.008454   
    119. D(H  31,C   5,C   4,C   1)     18.6294         0.008454   
    120. D(C   7,C   6,C   5,C   4)    -94.9306         0.012697   
    121. D(H   9,C   6,C   5,H  32)    -40.5231         0.012697   
    122. D(H   9,C   6,C   5,H  31)   -157.0521         0.012697   
    123. D(H   9,C   6,C   5,C   4)     80.8747         0.012697   
    124. D(C   7,C   6,C   5,H  32)    143.6716         0.012697   
    125. D(C   7,C   6,C   5,H  31)     27.1426         0.012697   
    126. D(H  11,C   7,C   6,H   9)     12.8352         0.013273   
    127. D(H  11,C   7,C   6,C   5)   -171.2952         0.013273   
    128. D(H  10,C   7,C   6,H   9)    135.5155         0.013273   
    129. D(H  10,C   7,C   6,C   5)    -48.6150         0.013273   
    130. D(N   8,C   7,C   6,H   9)   -107.6842         0.013273   
    131. D(N   8,C   7,C   6,C   5)     68.1854         0.013273   
    132. D(H  19,N   8,C   7,H  11)    179.3565         0.009813   
    133. D(H  19,N   8,C   7,H  10)     63.8555         0.009813   
    134. D(H  19,N   8,C   7,C   6)    -57.1835         0.009813   
    135. D(H  13,N   8,C   7,H  11)    -59.9903         0.009813   
    136. D(H  13,N   8,C   7,H  10)   -175.4913         0.009813   
    137. D(H  13,N   8,C   7,C   6)     63.4696         0.009813   
    138. D(H  12,N   8,C   7,H  11)     59.6407         0.009813   
    139. D(H  12,N   8,C   7,H  10)    -55.8603         0.009813   
    140. D(H  12,N   8,C   7,C   6)   -176.8994         0.009813   
    141. D(C  24,C  15,N   0,H  14)    -12.9048         0.023366   
    142. D(C  24,C  15,N   0,C   1)   -170.0042         0.023366   
    143. D(O  18,C  15,N   0,H  14)    168.1334         0.023366   
    144. D(O  18,C  15,N   0,C   1)     11.0340         0.023366   
    145. D(C  20,N  16,C   2,O   3)     -2.3129         0.037582   
    146. D(C  20,N  16,C   2,C   1)    174.5444         0.037582   
    147. D(H  17,N  16,C   2,O   3)    179.5444         0.037582   
    148. D(H  17,N  16,C   2,C   1)     -3.5983         0.037582   
    149. D(H  22,C  20,N  16,H  17)     11.1166         0.015356   
    150. D(H  22,C  20,N  16,C   2)   -166.9771         0.015356   
    151. D(H  21,C  20,N  16,H  17)   -108.7886         0.015356   
    152. D(H  21,C  20,N  16,C   2)     73.1177         0.015356   
    153. D(H  23,C  20,N  16,H  17)    130.7222         0.015356   
    154. D(H  23,C  20,N  16,C   2)    -47.3715         0.015356   
    155. D(H  27,C  24,C  15,O  18)    173.5339         0.011212   
    156. D(H  27,C  24,C  15,N   0)     -5.4069         0.011212   
    157. D(H  26,C  24,C  15,O  18)     51.4580         0.011212   
    158. D(H  26,C  24,C  15,N   0)   -127.4828         0.011212   
    159. D(H  25,C  24,C  15,O  18)    -64.7958         0.011212   
    160. D(H  25,C  24,C  15,N   0)    116.2635         0.011212   
    -----------------------------------------------------------------

Number of atoms                         .... 33
Number of degrees of freedom            .... 160

         *************************************************************
         *                GEOMETRY OPTIMIZATION CYCLE   1            *
         *************************************************************
---------------------------------
CARTESIAN COORDINATES (ANGSTROEM)
---------------------------------
  N     -7.695452    0.915880   -0.002031
  C     -6.407819    1.537824   -0.285496
  C     -5.640124    1.899505    1.004419
  O     -4.839114    2.865264    1.054681
  C     -6.470840    2.716802   -1.277992
  C     -7.233356    3.986645   -0.754306
  C     -6.565953    5.272404   -1.150673
  C     -5.609088    5.972053   -0.238561
  N     -4.306006    5.175794   -0.054107
  H     -6.721482    5.679625   -2.145827
  H     -6.015217    6.073015    0.773914
  H     -5.332288    6.960596   -0.609064
  H     -3.684180    5.641954    0.611527
  H     -3.807485    5.090979   -0.941929
  H     -8.441672    1.493786    0.360012
  C     -8.054549   -0.272154   -0.647139
  N     -5.821443    1.089553    2.054490
  H     -6.487887    0.338015    1.941109
  O     -7.239066   -0.912234   -1.294087
  H     -4.524453    4.190240    0.323065
  C     -5.084179    1.219289    3.314123
  H     -5.431998    2.086339    3.882980
  H     -5.244975    0.316617    3.903859
  H     -4.017254    1.334696    3.113259
  C     -9.497801   -0.712477   -0.467239
  H     -9.987405   -0.696974   -1.445482
  H     -9.504423   -1.747249   -0.116486
  H    -10.064772   -0.088929    0.228852
  H     -5.822496    0.740799   -0.763690
  H     -5.442821    2.975349   -1.547732
  H     -6.939174    2.357172   -2.197821
  H     -7.308601    3.948344    0.339848
  H     -8.255743    3.976152   -1.146750

----------------------------
CARTESIAN COORDINATES (A.U.)
----------------------------
  NO LB      ZA    FRAG     MASS         X           Y           Z
   0 N     7.0000    0    14.007  -14.542296    1.730763   -0.003838
   1 C     6.0000    0    12.011  -12.109023    2.906065   -0.539510
   2 C     6.0000    0    12.011  -10.658289    3.589544    1.898077
   3 O     8.0000    0    15.999   -9.144600    5.414563    1.993059
   4 C     6.0000    0    12.011  -12.228116    5.134012   -2.415055
   5 C     6.0000    0    12.011  -13.669061    7.533668   -1.425432
   6 C     6.0000    0    12.011  -12.407852    9.963401   -2.174458
   7 C     6.0000    0    12.011  -10.599639   11.285545   -0.450815
   8 N     7.0000    0    14.007   -8.137172    9.780832   -0.102248
   9 H     1.0000    0     1.008  -12.701760   10.732936   -4.055025
  10 H     1.0000    0     1.008  -11.367114   11.476336    1.462486
  11 H     1.0000    0     1.008  -10.076564   13.153620   -1.150964
  12 H     1.0000    0     1.008   -6.962091   10.661747    1.155618
  13 H     1.0000    0     1.008   -7.195103    9.620556   -1.779987
  14 H     1.0000    0     1.008  -15.952448    2.822846    0.680324
  15 C     6.0000    0    12.011  -15.220891   -0.514296   -1.222916
  16 N     7.0000    0    14.007  -11.000933    2.058958    3.882424
  17 H     1.0000    0     1.008  -12.260329    0.638755    3.668164
  18 O     8.0000    0    15.999  -13.679852   -1.723873   -2.445469
  19 H     1.0000    0     1.008   -8.549978    7.918406    0.610505
  20 C     6.0000    0    12.011   -9.607706    2.304123    6.262784
  21 H     1.0000    0     1.008  -10.264989    3.942610    7.337769
  22 H     1.0000    0     1.008   -9.911567    0.598320    7.377224
  23 H     1.0000    0     1.008   -7.591510    2.522210    5.883206
  24 C     6.0000    0    12.011  -17.948243   -1.346387   -0.882953
  25 H     1.0000    0     1.008  -18.873461   -1.317089   -2.731565
  26 H     1.0000    0     1.008  -17.960756   -3.301822   -0.220127
  27 H     1.0000    0     1.008  -19.019662   -0.168052    0.432468
  28 H     1.0000    0     1.008  -11.002923    1.399907   -1.443165
  29 H     1.0000    0     1.008  -10.285442    5.622595   -2.924790
  30 H     1.0000    0     1.008  -13.113139    4.454410   -4.153280
  31 H     1.0000    0     1.008  -13.811255    7.461290    0.642220
  32 H     1.0000    0     1.008  -15.601093    7.513837   -2.167044

--------------------------------
INTERNAL COORDINATES (ANGSTROEM)
--------------------------------
 N      0   0   0     0.000000000000     0.00000000     0.00000000
 C      1   0   0     1.457793885133     0.00000000     0.00000000
 C      2   1   0     1.544037389377   112.12664549     0.00000000
 O      3   2   1     1.255720011928   122.05624624   209.42123977
 C      2   1   3     1.542403829925   114.52821206   230.57583398
 C      5   2   1     1.571043759540   115.03483564    66.82764428
 C      6   5   2     1.501902084195   112.84931004   140.22528070
 C      7   6   5     1.495676263116   121.58808237   265.06942062
 N      8   7   6     1.538204764265   111.89725032    68.18541236
 H      7   6   5     1.086438396207   119.93397419    80.87468152
 H      8   7   6     1.095555464936   111.68691600   311.38504824
 H      8   7   6     1.091378889148   112.26764368   188.70481737
 H      9   8   7     1.023250451718   110.91519236   183.10064646
 H      9   8   7     1.021735691618   110.61630141    63.46962730
 H      1   2   3     1.010887828799   118.53925491    72.40206939
 C      1   2   3     1.398764130257   119.96283152   229.25892663
 N      3   2   1     1.338487069919   116.50666941    32.58766117
 H     17   3   2     1.010847899824   116.82133974   356.40168544
 O     16   1   2     1.221988313287   121.18045445    11.03402895
 H      9   8   7     1.077633465604   110.10054490   302.81646066
 C     17   3   2     1.465286013026   123.55075737   174.54443175
 H     21  17   3     1.093779109902   110.93292725    73.11765206
 H     21  17   3     1.090165583954   108.51242671   193.02285622
 H     21  17   3     1.091784790026   110.05363955   312.62851348
 C     16   1   2     1.519613807262   115.80636649   189.99576080
 H     25  16   1     1.094034676049   108.36512637   116.26345293
 H     25  16   1     1.092622375459   108.55279146   232.51717629
 H     25  16   1     1.093073865060   113.74863341   354.59309914
 H      2   1   3     1.098417223594   104.22680071   113.72514066
 H      5   2   1     1.093813856724   107.51527905   190.15034877
 H      5   2   1     1.093049135145   107.90947578   303.90201585
 H      6   5   2     1.097407214273   109.71960582    18.62937706
 H      6   5   2     1.095170431156   109.02055071   261.71115976

---------------------------
INTERNAL COORDINATES (A.U.)
---------------------------
 N      0   0   0     0.000000000000     0.00000000     0.00000000
 C      1   0   0     2.754831202606     0.00000000     0.00000000
 C      2   1   0     2.917807806456   112.12664549     0.00000000
 O      3   2   1     2.372966923429   122.05624624   209.42123977
 C      2   1   3     2.914720826470   114.52821206   230.57583398
 C      5   2   1     2.968842449937   115.03483564    66.82764428
 C      6   5   2     2.838183619094   112.84931004   140.22528070
 C      7   6   5     2.826418522295   121.58808237   265.06942062
 N      8   7   6     2.906785742354   111.89725032    68.18541236
 H      7   6   5     2.053071030207   119.93397419    80.87468152
 H      8   7   6     2.070299793249   111.68691600   311.38504824
 H      8   7   6     2.062407208833   112.26764368   188.70481737
 H      9   8   7     1.933663120158   110.91519236   183.10064646
 H      9   8   7     1.930800638410   110.61630141    63.46962730
 H      1   2   3     1.910301148545   118.53925491    72.40206939
 C      1   2   3     2.643281132138   119.96283152   229.25892663
 N      3   2   1     2.529373995941   116.50666941    32.58766117
 H     17   3   2     1.910225693716   116.82133974   356.40168544
 O     16   1   2     2.309223250964   121.18045445    11.03402895
 H      9   8   7     2.036432122739   110.10054490   302.81646066
 C     17   3   2     2.768989272484   123.55075737   174.54443175
 H     21  17   3     2.066942968719   110.93292725    73.11765206
 H     21  17   3     2.060114394299   108.51242671   193.02285622
 H     21  17   3     2.063174250330   110.05363955   312.62851348
 C     16   1   2     2.871653925050   115.80636649   189.99576080
 H     25  16   1     2.067425918746   108.36512637   116.26345293
 H     25  16   1     2.064757057411   108.55279146   232.51717629
 H     25  16   1     2.065610249111   113.74863341   354.59309914
 H      2   1   3     2.075707733374   104.22680071   113.72514066
 H      5   2   1     2.067008630697   107.51527905   190.15034877
 H      5   2   1     2.065563516344   107.90947578   303.90201585
 H      6   5   2     2.073799092366   109.71960582    18.62937706
 H      6   5   2     2.069572184853   109.02055071   261.71115976

---------------------
BASIS SET INFORMATION
---------------------
There are 4 groups of distinct atoms

 Group   1 Type N   : 11s6p2d1f contracted to 5s3p2d1f pattern {62111/411/11/1}
 Group   2 Type C   : 11s6p2d1f contracted to 5s3p2d1f pattern {62111/411/11/1}
 Group   3 Type O   : 11s6p2d1f contracted to 5s3p2d1f pattern {62111/411/11/1}
 Group   4 Type H   : 5s1p contracted to 3s1p pattern {311/1}

Atom   0N    basis set group =>   1
Atom   1C    basis set group =>   2
Atom   2C    basis set group =>   2
Atom   3O    basis set group =>   3
Atom   4C    basis set group =>   2
Atom   5C    basis set group =>   2
Atom   6C    basis set group =>   2
Atom   7C    basis set group =>   2
Atom   8N    basis set group =>   1
Atom   9H    basis set group =>   4
Atom  10H    basis set group =>   4
Atom  11H    basis set group =>   4
Atom  12H    basis set group =>   4
Atom  13H    basis set group =>   4
Atom  14H    basis set group =>   4
Atom  15C    basis set group =>   2
Atom  16N    basis set group =>   1
Atom  17H    basis set group =>   4
Atom  18O    basis set group =>   3
Atom  19H    basis set group =>   4
Atom  20C    basis set group =>   2
Atom  21H    basis set group =>   4
Atom  22H    basis set group =>   4
Atom  23H    basis set group =>   4
Atom  24C    basis set group =>   2
Atom  25H    basis set group =>   4
Atom  26H    basis set group =>   4
Atom  27H    basis set group =>   4
Atom  28H    basis set group =>   4
Atom  29H    basis set group =>   4
Atom  30H    basis set group =>   4
Atom  31H    basis set group =>   4
Atom  32H    basis set group =>   4
---------------------------------
AUXILIARY/J BASIS SET INFORMATION
---------------------------------
There are 4 groups of distinct atoms

 Group   1 Type N   : 12s5p4d2f1g contracted to 6s4p3d1f1g pattern {711111/2111/211/2/1}
 Group   2 Type C   : 12s5p4d2f1g contracted to 6s4p3d1f1g pattern {711111/2111/211/2/1}
 Group   3 Type O   : 12s5p4d2f1g contracted to 6s4p3d1f1g pattern {711111/2111/211/2/1}
 Group   4 Type H   : 5s2p1d contracted to 3s1p1d pattern {311/2/1}

Atom   0N    basis set group =>   1
Atom   1C    basis set group =>   2
Atom   2C    basis set group =>   2
Atom   3O    basis set group =>   3
Atom   4C    basis set group =>   2
Atom   5C    basis set group =>   2
Atom   6C    basis set group =>   2
Atom   7C    basis set group =>   2
Atom   8N    basis set group =>   1
Atom   9H    basis set group =>   4
Atom  10H    basis set group =>   4
Atom  11H    basis set group =>   4
Atom  12H    basis set group =>   4
Atom  13H    basis set group =>   4
Atom  14H    basis set group =>   4
Atom  15C    basis set group =>   2
Atom  16N    basis set group =>   1
Atom  17H    basis set group =>   4
Atom  18O    basis set group =>   3
Atom  19H    basis set group =>   4
Atom  20C    basis set group =>   2
Atom  21H    basis set group =>   4
Atom  22H    basis set group =>   4
Atom  23H    basis set group =>   4
Atom  24C    basis set group =>   2
Atom  25H    basis set group =>   4
Atom  26H    basis set group =>   4
Atom  27H    basis set group =>   4
Atom  28H    basis set group =>   4
Atom  29H    basis set group =>   4
Atom  30H    basis set group =>   4
Atom  31H    basis set group =>   4
Atom  32H    basis set group =>   4


           ************************************************************
           *        Program running with 16 parallel MPI-processes    *
           *              working on a common directory               *
           ************************************************************
------------------------------------------------------------------------------
                           ORCA GTO INTEGRAL CALCULATION
                           -- RI-GTO INTEGRALS CHOSEN --
------------------------------------------------------------------------------
------------------------------------------------------------------------------
                   ___                                                        
                  /   \      - P O W E R E D   B Y -                         
                 /     \                                                     
                 |  |  |   _    _      __       _____    __    __             
                 |  |  |  | |  | |    /  \     |  _  \  |  |  /  |          
                  \  \/   | |  | |   /    \    | | | |  |  | /  /          
                 / \  \   | |__| |  /  /\  \   | |_| |  |  |/  /          
                |  |  |   |  __  | /  /__\  \  |    /   |      \           
                |  |  |   | |  | | |   __   |  |    \   |  |\   \          
                \     /   | |  | | |  |  |  |  | |\  \  |  | \   \       
                 \___/    |_|  |_| |__|  |__|  |_| \__\ |__|  \__/        
                                                                              
                      - O R C A' S   B I G   F R I E N D -                    
                                      &                                       
                       - I N T E G R A L  F E E D E R -                       
                                                                              
 v1 FN, 2020, v2 2021                                                         
------------------------------------------------------------------------------


Reading SHARK input file freq.SHARKINP.tmp ... ok
----------------------
SHARK INTEGRAL PACKAGE
----------------------

Number of atoms                             ...     33
Number of basis functions                   ...    548
Number of shells                            ...    230
Maximum angular momentum                    ...      3
Integral batch strategy                     ... SHARK/LIBINT Hybrid
RI-J (if used) integral strategy            ... SPLIT-RIJ (Revised 2003 algorithm where possible)
Printlevel                                  ...      1
Contraction scheme used                     ... SEGMENTED contraction
Coulomb Range Separation                    ... NOT USED
Exchange Range Separation                   ... NOT USED
Finite Nucleus Model                        ... NOT USED
Auxiliary Coulomb fitting basis             ... AVAILABLE
   # of basis functions in Aux-J            ...    895
   # of shells in Aux-J                     ...    305
   Maximum angular momentum in Aux-J        ...      4
Auxiliary J/K fitting basis                 ... NOT available
Auxiliary Correlation fitting basis         ... NOT available
Auxiliary 'external' fitting basis          ... NOT available
Integral threshold                          ...     2.500000e-11
Primitive cut-off                           ...     2.500000e-12
Primitive pair pre-selection threshold      ...     2.500000e-12

Calculating pre-screening integrals         ... done (  0.0 sec) Dimension = 230
Organizing shell pair data                  ... done (  0.1 sec)
Shell pair information
Total number of shell pairs                 ...     26565
Shell pairs after pre-screening             ...     20828
Total number of primitive shell pairs       ...     78180
Primitive shell pairs kept                  ...     42558
          la=0 lb=0:   6278 shell pairs
          la=1 lb=0:   6162 shell pairs
          la=1 lb=1:   1563 shell pairs
          la=2 lb=0:   2757 shell pairs
          la=2 lb=1:   1389 shell pairs
          la=2 lb=2:    328 shell pairs
          la=3 lb=0:   1310 shell pairs
          la=3 lb=1:    660 shell pairs
          la=3 lb=2:    304 shell pairs
          la=3 lb=3:     77 shell pairs

Calculating one electron integrals          ... done (  0.0 sec)
Calculating RI/J V-Matrix + Cholesky decomp.... done (  0.0 sec)
Calculating Nuclear repulsion               ... done (  0.0 sec) ENN=    963.975019261202 Eh

SHARK setup successfully completed in   0.4 seconds

Maximum memory used throughout the entire GTOINT-calculation: 32.2 MB


           ************************************************************
           *        Program running with 16 parallel MPI-processes    *
           *              working on a common directory               *
           ************************************************************
-------------------------------------------------------------------------------
                                 ORCA SCF
-------------------------------------------------------------------------------

------------
SCF SETTINGS
------------
Hamiltonian:
 Density Functional     Method          .... DFT(GTOs)
 Exchange Functional    Exchange        .... M062X
 Correlation Functional Correlation     .... M062X
 Gradients option       PostSCFGGA      .... off
 Hybrid DFT is turned on
   Fraction HF Exchange ScalHFX         ....  0.540000
   Scaling of DF-GGA-X  ScalDFX         ....  0.460000
   Scaling of DF-GGA-C  ScalDFC         ....  1.000000
   Scaling of DF-LDA-C  ScalLDAC        ....  1.000000
   Perturbative correction              ....  0.000000
   Density functional embedding theory  .... OFF
 RI-approximation to the Coulomb term is turned on
   Number of AuxJ basis functions       .... 895
   RIJ-COSX (HFX calculated with COS-X)).... on


General Settings:
 Integral files         IntName         .... freq
 Hartree-Fock type      HFTyp           .... UHF
 Total Charge           Charge          ....    1
 Multiplicity           Mult            ....    2
 Number of Electrons    NEL             ....  109
 Basis Dimension        Dim             ....  548
 Nuclear Repulsion      ENuc            ....    963.9750192612 Eh

Convergence Acceleration:
 DIIS                   CNVDIIS         .... on
   Start iteration      DIISMaxIt       ....    12
   Startup error        DIISStart       ....  0.200000
   # of expansion vecs  DIISMaxEq       ....     5
   Bias factor          DIISBfac        ....   1.050
   Max. coefficient     DIISMaxC        ....  10.000
 Trust-Rad. Augm. Hess. CNVTRAH         .... auto
   Auto Start mean grad. ratio tolernc. ....  1.125000
   Auto Start start iteration           ....    20
   Auto Start num. interpolation iter.  ....    10
   Max. Number of Micro iterations      ....    16
   Max. Number of Macro iterations      .... Maxiter - #DIIS iter
   Number of Davidson start vectors     ....     2
   Converg. threshold I  (grad. norm)   ....   1.000e-05
   Converg. threshold II (energy diff.) ....   1.000e-08
   Grad. Scal. Fac. for Micro threshold ....   0.100
   Minimum threshold for Micro iter.    ....   0.010
   NR start threshold (gradient norm)   ....   0.001
   Initial trust radius                 ....   0.400
   Minimum AH scaling param. (alpha)    ....   1.000
   Maximum AH scaling param. (alpha)    .... 1000.000
   Orbital update algorithm             .... Taylor
   White noise on init. David. guess    .... on
   Maximum white noise                  ....   0.010
   Quad. conv. algorithm                .... NR
 SOSCF                  CNVSOSCF        .... off
 Level Shifting         CNVShift        .... on
   Level shift para.    LevelShift      ....    0.2500
   Turn off err/grad.   ShiftErr        ....    0.0010
 Zerner damping         CNVZerner       .... off
 Static damping         CNVDamp         .... on
   Fraction old density DampFac         ....    0.7000
   Max. Damping (<1)    DampMax         ....    0.9800
   Min. Damping (>=0)   DampMin         ....    0.0000
   Turn off err/grad.   DampErr         ....    0.1000
 Fernandez-Rico         CNVRico         .... off

SCF Procedure:
 Maximum # iterations   MaxIter         ....   125
 SCF integral mode      SCFMode         .... Direct
   Integral package                     .... SHARK and LIBINT hybrid scheme
 Reset frequency        DirectResetFreq ....    20
 Integral Threshold     Thresh          ....  2.500e-11 Eh
 Primitive CutOff       TCut            ....  2.500e-12 Eh

Convergence Tolerance:
 Convergence Check Mode ConvCheckMode   .... Total+1el-Energy
 Convergence forced     ConvForced      .... 0
 Energy Change          TolE            ....  1.000e-08 Eh
 1-El. energy change                    ....  1.000e-05 Eh
 DIIS Error             TolErr          ....  5.000e-07


Diagonalization of the overlap matrix:
Smallest eigenvalue                        ... 6.084e-05
Time for diagonalization                   ...    0.036 sec
Threshold for overlap eigenvalues          ... 1.000e-08
Number of eigenvalues below threshold      ... 0
Time for construction of square roots      ...    0.023 sec
Total time needed                          ...    0.060 sec

Time for model grid setup =    0.131 sec

------------------------------
INITIAL GUESS: MODEL POTENTIAL
------------------------------
Loading Hartree-Fock densities                     ... done
Calculating cut-offs                               ... done
Initializing the effective Hamiltonian             ... done
Setting up the integral package (SHARK)            ... done
Starting the Coulomb interaction                   ... done (   0.1 sec)
Reading the grid                                   ... done
Mapping shells                                     ... done
Starting the XC term evaluation                    ... done (   0.1 sec)
  promolecular density results
     # of electrons  =    109.979423313
     EX              =    -87.570420679
     EC              =     -3.654726061
     EX+EC           =    -91.225146740
Transforming the Hamiltonian                       ... done (   0.0 sec)
Diagonalizing the Hamiltonian                      ... done (   0.0 sec)
Back transforming the eigenvectors                 ... done (   0.0 sec)
Now organizing SCF variables                       ... done
                      ------------------
                      INITIAL GUESS DONE (   0.4 sec)
                      ------------------
-------------------
DFT GRID GENERATION
-------------------

General Integration Accuracy     IntAcc      ... 4.388
Radial Grid Type                 RadialGrid  ... OptM3 with GC (2021)
Angular Grid (max. ang.)         AngularGrid ... 4 (Lebedev-302)
Angular grid pruning method      GridPruning ... 4 (adaptive)
Weight generation scheme         WeightScheme... Becke
Basis function cutoff            BFCut       ... 1.0000e-11
Integration weight cutoff        WCut        ... 1.0000e-14
Angular grids for H and He will be reduced by one unit
Partially contracted basis set               ... off
Rotationally invariant grid construction     ... off

Total number of grid points                  ...   144546
Total number of batches                      ...     2275
Average number of points per batch           ...       63
Average number of grid points per atom       ...     4380
Time for grid setup =    0.625 sec

--------------------
COSX GRID GENERATION
--------------------

GRIDX 1
-------
General Integration Accuracy     IntAcc      ... 3.816
Radial Grid Type                 RadialGrid  ... OptM3 with GC (2021)
Angular Grid (max. ang.)         AngularGrid ... 1 (Lebedev-50)
Angular grid pruning method      GridPruning ... 4 (adaptive)
Weight generation scheme         WeightScheme... Becke
Basis function cutoff            BFCut       ... 1.0000e-11
Integration weight cutoff        WCut        ... 1.0000e-14
Angular grids for H and He will be reduced by one unit
Partially contracted basis set               ... on
Rotationally invariant grid construction     ... off

Total number of grid points                  ...    18440
Total number of batches                      ...      308
Average number of points per batch           ...       59
Average number of grid points per atom       ...      559
UseSFitting                                  ... on

GRIDX 2
-------
General Integration Accuracy     IntAcc      ... 4.020
Radial Grid Type                 RadialGrid  ... OptM3 with GC (2021)
Angular Grid (max. ang.)         AngularGrid ... 2 (Lebedev-110)
Angular grid pruning method      GridPruning ... 4 (adaptive)
Weight generation scheme         WeightScheme... Becke
Basis function cutoff            BFCut       ... 1.0000e-11
Integration weight cutoff        WCut        ... 1.0000e-14
Angular grids for H and He will be reduced by one unit
Partially contracted basis set               ... on
Rotationally invariant grid construction     ... off

Total number of grid points                  ...    38864
Total number of batches                      ...      625
Average number of points per batch           ...       62
Average number of grid points per atom       ...     1178
UseSFitting                                  ... on

GRIDX 3
-------
General Integration Accuracy     IntAcc      ... 4.338
Radial Grid Type                 RadialGrid  ... OptM3 with GC (2021)
Angular Grid (max. ang.)         AngularGrid ... 3 (Lebedev-194)
Angular grid pruning method      GridPruning ... 4 (adaptive)
Weight generation scheme         WeightScheme... Becke
Basis function cutoff            BFCut       ... 1.0000e-11
Integration weight cutoff        WCut        ... 1.0000e-14
Angular grids for H and He will be reduced by one unit
Partially contracted basis set               ... on
Rotationally invariant grid construction     ... off

Total number of grid points                  ...    84686
Total number of batches                      ...     1339
Average number of points per batch           ...       63
Average number of grid points per atom       ...     2566
UseSFitting                                  ... on

Time for X-Grid setup             =    0.821 sec

--------------
SCF ITERATIONS
--------------
ITER       Energy         Delta-E        Max-DP      RMS-DP      [F,P]     Damp
               ***  Starting incremental Fock matrix formation  ***
  0   -668.4026523878   0.000000000000 0.07492486  0.00045013  0.1405802 0.7000
  1   -668.5891198890  -0.186467501218 0.06846556  0.00037187  0.0643740 0.7000
                               ***Turning on DIIS***
  2   -668.6730730408  -0.083953151820 0.12373601  0.00074566  0.0252156 0.0000
  3   -668.8094372452  -0.136364204369 0.03892443  0.00023094  0.0330975 0.0000
  4   -668.8329291862  -0.023491941058 0.00613576  0.00006662  0.0061891 0.0000
  5   -668.8339217630  -0.000992576729 0.00305806  0.00003173  0.0032791 0.0000
  6   -668.8341168212  -0.000195058236 0.00266656  0.00002249  0.0007707 0.0000
               *** Restarting incremental Fock matrix formation ***
                                   *** Resetting DIIS ***
  7   -668.8340850938   0.000031727390 0.00114981  0.00000998  0.0005338 0.0000
  8   -668.8340856963  -0.000000602501 0.00055925  0.00000418  0.0007825 0.0000
  9   -668.8340970001  -0.000011303781 0.00018136  0.00000205  0.0001844 0.0000
 10   -668.8340977089  -0.000000708860 0.00010029  0.00000102  0.0001241 0.0000
 11   -668.8340980483  -0.000000339406 0.00004639  0.00000037  0.0000383 0.0000
 12   -668.8340980831  -0.000000034751 0.00001346  0.00000011  0.0000120 0.0000
 13   -668.8340980716   0.000000011537 0.00000528  0.00000004  0.0000030 0.0000
 14   -668.8340981014  -0.000000029844 0.00000341  0.00000002  0.0000017 0.0000
                            ***DIIS convergence achieved***

               *****************************************************
               *                     SUCCESS                       *
               *           SCF CONVERGED AFTER  15 CYCLES          *
               *****************************************************

Old exchange energy                            =    -48.307958719 Eh
New exchange energy                            =    -48.307975594 Eh
Exchange energy change after final integration =     -0.000016875 Eh
Total energy after final integration           =   -668.834114991 Eh
Final COS-X integration done in                =     5.130 sec

----------------
TOTAL SCF ENERGY
----------------

Total Energy       :         -668.83411499 Eh          -18199.90153 eV

Components:
Nuclear Repulsion  :          963.97501926 Eh           26231.09384 eV
Electronic Energy  :        -1632.80913425 Eh          -44430.99537 eV
One Electron Energy:        -2806.47411771 Eh          -76368.04322 eV
Two Electron Energy:         1173.66498346 Eh           31937.04785 eV
Max COSX asymmetry :            0.00000148 Eh               0.00004 eV

Virial components:
Potential Energy   :        -1333.97202302 Eh          -36299.22416 eV
Kinetic Energy     :          665.13790803 Eh           18099.32263 eV
Virial Ratio       :            2.00555705


DFT components:
N(Alpha)           :       54.999899037659 electrons
N(Beta)            :       53.999923966832 electrons
N(Total)           :      108.999823004492 electrons
E(XC)              :      -45.054923674677 Eh       
DFET-embed. en.    :        0.000000000000 Eh       

---------------
SCF CONVERGENCE
---------------

  Last Energy change         ...   -1.5139e-08  Tolerance :   1.0000e-08
  Last MAX-Density change    ...    0.0000e+00  Tolerance :   1.0000e-07
  Last RMS-Density change    ...    0.0000e+00  Tolerance :   5.0000e-09
  Last DIIS Error            ...    8.9285e-07  Tolerance :   5.0000e-07

             **** THE GBW FILE WAS UPDATED (freq.gbw) ****
             **** DENSITY freq.scfp WAS UPDATED ****
             **** ENERGY FILE WAS UPDATED (freq.en.tmp) ****
----------------------
UHF SPIN CONTAMINATION
----------------------

Warning: in a DFT calculation there is little theoretical justification to 
         calculate <S**2> as in Hartree-Fock theory. We will do it anyways
         but you should keep in mind that the values have only limited relevance

Expectation value of <S**2>     :     0.755521
Ideal value S*(S+1) for S=0.5   :     0.750000
Deviation                       :     0.005521

             **** THE GBW FILE WAS UPDATED (freq.gbw) ****
             **** DENSITY freq.scfp WAS UPDATED ****
----------------
ORBITAL ENERGIES
----------------
                 SPIN UP ORBITALS
  NO   OCC          E(Eh)            E(eV) 
   0   1.0000     -19.750028      -537.4256 
   1   1.0000     -19.706197      -536.2329 
   2   1.0000     -14.996280      -408.0695 
   3   1.0000     -14.914775      -405.8517 
   4   1.0000     -14.896544      -405.3556 
   5   1.0000     -10.792747      -293.6856 
   6   1.0000     -10.760729      -292.8143 
   7   1.0000     -10.753906      -292.6287 
   8   1.0000     -10.720677      -291.7245 
   9   1.0000     -10.708350      -291.3890 
  10   1.0000     -10.689661      -290.8805 
  11   1.0000     -10.684569      -290.7419 
  12   1.0000     -10.679870      -290.6140 
  13   1.0000     -10.643904      -289.6354 
  14   1.0000      -1.305287       -35.5187 
  15   1.0000      -1.271389       -34.5963 
  16   1.0000      -1.240697       -33.7611 
  17   1.0000      -1.174442       -31.9582 
  18   1.0000      -1.148475       -31.2516 
  19   1.0000      -1.052139       -28.6302 
  20   1.0000      -1.003779       -27.3142 
  21   1.0000      -0.961444       -26.1622 
  22   1.0000      -0.933554       -25.4033 
  23   1.0000      -0.913097       -24.8466 
  24   1.0000      -0.851234       -23.1633 
  25   1.0000      -0.827327       -22.5127 
  26   1.0000      -0.818472       -22.2717 
  27   1.0000      -0.790037       -21.4980 
  28   1.0000      -0.781642       -21.2696 
  29   1.0000      -0.776192       -21.1213 
  30   1.0000      -0.744930       -20.2706 
  31   1.0000      -0.707480       -19.2515 
  32   1.0000      -0.697330       -18.9753 
  33   1.0000      -0.681158       -18.5352 
  34   1.0000      -0.675891       -18.3919 
  35   1.0000      -0.660274       -17.9670 
  36   1.0000      -0.656318       -17.8593 
  37   1.0000      -0.643187       -17.5020 
  38   1.0000      -0.640624       -17.4323 
  39   1.0000      -0.623485       -16.9659 
  40   1.0000      -0.606128       -16.4936 
  41   1.0000      -0.595635       -16.2081 
  42   1.0000      -0.591643       -16.0994 
  43   1.0000      -0.584264       -15.8986 
  44   1.0000      -0.580072       -15.7846 
  45   1.0000      -0.570591       -15.5266 
  46   1.0000      -0.560114       -15.2415 
  47   1.0000      -0.554036       -15.0761 
  48   1.0000      -0.541845       -14.7444 
  49   1.0000      -0.534706       -14.5501 
  50   1.0000      -0.496837       -13.5196 
  51   1.0000      -0.466034       -12.6814 
  52   1.0000      -0.449311       -12.2264 
  53   1.0000      -0.440396       -11.9838 
  54   1.0000      -0.411828       -11.2064 
  55   0.0000      -0.100963        -2.7473 
  56   0.0000      -0.092516        -2.5175 
  57   0.0000      -0.063452        -1.7266 
  58   0.0000      -0.055841        -1.5195 
  59   0.0000      -0.052649        -1.4326 
  60   0.0000      -0.042248        -1.1496 
  61   0.0000      -0.038808        -1.0560 
  62   0.0000      -0.031500        -0.8571 
  63   0.0000      -0.021156        -0.5757 
  64   0.0000      -0.020222        -0.5503 
  65   0.0000      -0.003481        -0.0947 
  66   0.0000       0.004159         0.1132 
  67   0.0000       0.006704         0.1824 
  68   0.0000       0.014748         0.4013 
  69   0.0000       0.027532         0.7492 
  70   0.0000       0.033640         0.9154 
  71   0.0000       0.036297         0.9877 
  72   0.0000       0.041094         1.1182 
  73   0.0000       0.050795         1.3822 
  74   0.0000       0.054540         1.4841 
  75   0.0000       0.062966         1.7134 
  76   0.0000       0.068007         1.8506 
  77   0.0000       0.069933         1.9030 
  78   0.0000       0.078041         2.1236 
  79   0.0000       0.084485         2.2989 
  80   0.0000       0.090086         2.4514 
  81   0.0000       0.091183         2.4812 
  82   0.0000       0.103668         2.8209 
  83   0.0000       0.104237         2.8364 
  84   0.0000       0.115489         3.1426 
  85   0.0000       0.118089         3.2134 
  86   0.0000       0.126498         3.4422 
  87   0.0000       0.133473         3.6320 
  88   0.0000       0.141641         3.8542 
  89   0.0000       0.149517         4.0686 
  90   0.0000       0.150150         4.0858 
  91   0.0000       0.159766         4.3474 
  92   0.0000       0.162397         4.4190 
  93   0.0000       0.168323         4.5803 
  94   0.0000       0.173865         4.7311 
  95   0.0000       0.184092         5.0094 
  96   0.0000       0.194417         5.2904 
  97   0.0000       0.195084         5.3085 
  98   0.0000       0.197312         5.3691 
  99   0.0000       0.215527         5.8648 
 100   0.0000       0.218361         5.9419 
 101   0.0000       0.226681         6.1683 
 102   0.0000       0.232188         6.3182 
 103   0.0000       0.239522         6.5177 
 104   0.0000       0.253542         6.8992 
 105   0.0000       0.254678         6.9301 
 106   0.0000       0.267112         7.2685 
 107   0.0000       0.277675         7.5559 
 108   0.0000       0.289410         7.8752 
 109   0.0000       0.293993         8.0000 
 110   0.0000       0.298528         8.1234 
 111   0.0000       0.303846         8.2681 
 112   0.0000       0.308540         8.3958 
 113   0.0000       0.318328         8.6621 
 114   0.0000       0.322901         8.7866 
 115   0.0000       0.328862         8.9488 
 116   0.0000       0.330544         8.9946 
 117   0.0000       0.335551         9.1308 
 118   0.0000       0.337956         9.1963 
 119   0.0000       0.339620         9.2415 
 120   0.0000       0.342207         9.3119 
 121   0.0000       0.351924         9.5764 
 122   0.0000       0.356687         9.7060 
 123   0.0000       0.358305         9.7500 
 124   0.0000       0.366929         9.9847 
 125   0.0000       0.371583        10.1113 
 126   0.0000       0.381380        10.3779 
 127   0.0000       0.383970        10.4483 
 128   0.0000       0.386058        10.5052 
 129   0.0000       0.396666        10.7938 
 130   0.0000       0.403817        10.9884 
 131   0.0000       0.409650        11.1472 
 132   0.0000       0.412710        11.2304 
 133   0.0000       0.417498        11.3607 
 134   0.0000       0.421153        11.4602 
 135   0.0000       0.431716        11.7476 
 136   0.0000       0.441357        12.0099 
 137   0.0000       0.444903        12.1064 
 138   0.0000       0.448475        12.2036 
 139   0.0000       0.463703        12.6180 
 140   0.0000       0.466964        12.7067 
 141   0.0000       0.476654        12.9704 
 142   0.0000       0.481160        13.0930 
 143   0.0000       0.481868        13.1123 
 144   0.0000       0.493570        13.4307 
 145   0.0000       0.509079        13.8527 
 146   0.0000       0.515670        14.0321 
 147   0.0000       0.522819        14.2266 
 148   0.0000       0.529753        14.4153 
 149   0.0000       0.539245        14.6736 
 150   0.0000       0.547994        14.9117 
 151   0.0000       0.559165        15.2157 
 152   0.0000       0.572759        15.5856 
 153   0.0000       0.578801        15.7500 
 154   0.0000       0.595921        16.2158 
 155   0.0000       0.614343        16.7171 
 156   0.0000       0.615525        16.7493 
 157   0.0000       0.627540        17.0762 
 158   0.0000       0.645977        17.5779 
 159   0.0000       0.663937        18.0666 
 160   0.0000       0.669859        18.2278 
 161   0.0000       0.682095        18.5608 
 162   0.0000       0.698890        19.0178 
 163   0.0000       0.715206        19.4617 
 164   0.0000       0.722654        19.6644 
 165   0.0000       0.732512        19.9327 
 166   0.0000       0.738539        20.0967 
 167   0.0000       0.757226        20.6052 
 168   0.0000       0.770423        20.9643 
 169   0.0000       0.776610        21.1326 
 170   0.0000       0.791966        21.5505 
 171   0.0000       0.795465        21.6457 
 172   0.0000       0.824221        22.4282 
 173   0.0000       0.827735        22.5238 
 174   0.0000       0.833485        22.6803 
 175   0.0000       0.845954        23.0196 
 176   0.0000       0.860470        23.4146 
 177   0.0000       0.878530        23.9060 
 178   0.0000       0.889504        24.2046 
 179   0.0000       0.900097        24.4929 
 180   0.0000       0.904944        24.6248 
 181   0.0000       0.915681        24.9169 
 182   0.0000       0.918548        24.9950 
 183   0.0000       0.922033        25.0898 
 184   0.0000       0.926408        25.2088 
 185   0.0000       0.941861        25.6293 
 186   0.0000       0.942782        25.6544 
 187   0.0000       0.963862        26.2280 
 188   0.0000       0.972064        26.4512 
 189   0.0000       0.982158        26.7259 
 190   0.0000       0.994727        27.0679 
 191   0.0000       1.000530        27.2258 
 192   0.0000       1.019994        27.7554 
 193   0.0000       1.031683        28.0735 
 194   0.0000       1.038047        28.2467 
 195   0.0000       1.054389        28.6914 
 196   0.0000       1.060065        28.8458 
 197   0.0000       1.080535        29.4028 
 198   0.0000       1.092092        29.7173 
 199   0.0000       1.099831        29.9279 
 200   0.0000       1.106101        30.0985 
 201   0.0000       1.138929        30.9918 
 202   0.0000       1.143978        31.1292 
 203   0.0000       1.167483        31.7688 
 204   0.0000       1.172089        31.8942 
 205   0.0000       1.189630        32.3715 
 206   0.0000       1.200264        32.6608 
 207   0.0000       1.206026        32.8176 
 208   0.0000       1.219312        33.1792 
 209   0.0000       1.256304        34.1858 
 210   0.0000       1.261490        34.3269 
 211   0.0000       1.272457        34.6253 
 212   0.0000       1.283496        34.9257 
 213   0.0000       1.299502        35.3612 
 214   0.0000       1.313355        35.7382 
 215   0.0000       1.335979        36.3538 
 216   0.0000       1.348680        36.6994 
 217   0.0000       1.364947        37.1421 
 218   0.0000       1.373074        37.3633 
 219   0.0000       1.386344        37.7243 
 220   0.0000       1.402671        38.1686 
 221   0.0000       1.411508        38.4091 
 222   0.0000       1.424399        38.7599 
 223   0.0000       1.425341        38.7855 
 224   0.0000       1.431557        38.9546 
 225   0.0000       1.443516        39.2801 
 226   0.0000       1.455136        39.5963 
 227   0.0000       1.459364        39.7113 
 228   0.0000       1.463774        39.8313 
 229   0.0000       1.468549        39.9612 
 230   0.0000       1.471991        40.0549 
 231   0.0000       1.480554        40.2879 
 232   0.0000       1.481931        40.3254 
 233   0.0000       1.487531        40.4778 
 234   0.0000       1.500262        40.8242 
 235   0.0000       1.504670        40.9442 
 236   0.0000       1.515767        41.2461 
 237   0.0000       1.526717        41.5441 
 238   0.0000       1.529228        41.6124 
 239   0.0000       1.546830        42.0914 
 240   0.0000       1.548078        42.1254 
 241   0.0000       1.557247        42.3748 
 242   0.0000       1.561408        42.4881 
 243   0.0000       1.573568        42.8190 
 244   0.0000       1.585548        43.1449 
 245   0.0000       1.590642        43.2836 
 246   0.0000       1.618784        44.0493 
 247   0.0000       1.626833        44.2684 
 248   0.0000       1.635049        44.4919 
 249   0.0000       1.638684        44.5909 
 250   0.0000       1.661281        45.2057 
 251   0.0000       1.668508        45.4024 
 252   0.0000       1.690787        46.0087 
 253   0.0000       1.694265        46.1033 
 254   0.0000       1.701049        46.2879 
 255   0.0000       1.713015        46.6135 
 256   0.0000       1.725858        46.9630 
 257   0.0000       1.733288        47.1652 
 258   0.0000       1.741119        47.3782 
 259   0.0000       1.760014        47.8924 
 260   0.0000       1.769686        48.1556 
 261   0.0000       1.779786        48.4304 
 262   0.0000       1.781853        48.4867 
 263   0.0000       1.799316        48.9619 
 264   0.0000       1.806293        49.1517 
 265   0.0000       1.810683        49.2712 
 266   0.0000       1.826835        49.7107 
 267   0.0000       1.832904        49.8759 
 268   0.0000       1.843962        50.1768 
 269   0.0000       1.858814        50.5809 
 270   0.0000       1.880857        51.1807 
 271   0.0000       1.887426        51.3595 
 272   0.0000       1.902656        51.7739 
 273   0.0000       1.915322        52.1186 
 274   0.0000       1.924788        52.3761 
 275   0.0000       1.929673        52.5091 
 276   0.0000       1.944760        52.9196 
 277   0.0000       1.951673        53.1077 
 278   0.0000       1.981764        53.9265 
 279   0.0000       1.984274        53.9949 
 280   0.0000       1.991223        54.1839 
 281   0.0000       2.003751        54.5248 
 282   0.0000       2.022426        55.0330 
 283   0.0000       2.039799        55.5057 
 284   0.0000       2.051641        55.8280 
 285   0.0000       2.069306        56.3087 
 286   0.0000       2.077148        56.5221 
 287   0.0000       2.086623        56.7799 
 288   0.0000       2.089046        56.8458 
 289   0.0000       2.125738        57.8443 
 290   0.0000       2.133623        58.0588 
 291   0.0000       2.143032        58.3149 
 292   0.0000       2.150176        58.5093 
 293   0.0000       2.163539        58.8729 
 294   0.0000       2.172805        59.1250 
 295   0.0000       2.196770        59.7772 
 296   0.0000       2.205001        60.0011 
 297   0.0000       2.215041        60.2743 
 298   0.0000       2.218866        60.3784 
 299   0.0000       2.227447        60.6119 
 300   0.0000       2.242315        61.0165 
 301   0.0000       2.251963        61.2790 
 302   0.0000       2.260165        61.5022 
 303   0.0000       2.262903        61.5767 
 304   0.0000       2.269642        61.7601 
 305   0.0000       2.280723        62.0616 
 306   0.0000       2.299802        62.5808 
 307   0.0000       2.304360        62.7048 
 308   0.0000       2.317028        63.0495 
 309   0.0000       2.328134        63.3518 
 310   0.0000       2.334960        63.5375 
 311   0.0000       2.350067        63.9486 
 312   0.0000       2.363229        64.3067 
 313   0.0000       2.390961        65.0613 
 314   0.0000       2.401237        65.3410 
 315   0.0000       2.409869        65.5759 
 316   0.0000       2.426802        66.0366 
 317   0.0000       2.442254        66.4571 
 318   0.0000       2.447171        66.5909 
 319   0.0000       2.450786        66.6893 
 320   0.0000       2.456508        66.8450 
 321   0.0000       2.464668        67.0670 
 322   0.0000       2.470366        67.2221 
 323   0.0000       2.479608        67.4736 
 324   0.0000       2.483165        67.5704 
 325   0.0000       2.492676        67.8292 
 326   0.0000       2.503295        68.1181 
 327   0.0000       2.516963        68.4901 
 328   0.0000       2.534373        68.9638 
 329   0.0000       2.549335        69.3709 
 330   0.0000       2.562818        69.7378 
 331   0.0000       2.570069        69.9351 
 332   0.0000       2.578497        70.1645 
 333   0.0000       2.586957        70.3947 
 334   0.0000       2.598649        70.7128 
 335   0.0000       2.604914        70.8833 
 336   0.0000       2.618118        71.2426 
 337   0.0000       2.625651        71.4476 
 338   0.0000       2.655371        72.2563 
 339   0.0000       2.662973        72.4632 
 340   0.0000       2.672863        72.7323 
 341   0.0000       2.686426        73.1014 
 342   0.0000       2.694264        73.3147 
 343   0.0000       2.700282        73.4784 
 344   0.0000       2.712720        73.8169 
 345   0.0000       2.723419        74.1080 
 346   0.0000       2.733107        74.3716 
 347   0.0000       2.749882        74.8281 
 348   0.0000       2.763149        75.1891 
 349   0.0000       2.776471        75.5516 
 350   0.0000       2.777998        75.5932 
 351   0.0000       2.793857        76.0247 
 352   0.0000       2.817242        76.6610 
 353   0.0000       2.821750        76.7837 
 354   0.0000       2.826642        76.9168 
 355   0.0000       2.838067        77.2277 
 356   0.0000       2.849246        77.5319 
 357   0.0000       2.868652        78.0600 
 358   0.0000       2.874447        78.2177 
 359   0.0000       2.876721        78.2796 
 360   0.0000       2.896908        78.8289 
 361   0.0000       2.904952        79.0478 
 362   0.0000       2.907681        79.1220 
 363   0.0000       2.911253        79.2192 
 364   0.0000       2.923369        79.5489 
 365   0.0000       2.929387        79.7127 
 366   0.0000       2.933194        79.8163 
 367   0.0000       2.947004        80.1920 
 368   0.0000       2.964733        80.6745 
 369   0.0000       2.980720        81.1095 
 370   0.0000       2.995677        81.5165 
 371   0.0000       2.999777        81.6281 
 372   0.0000       3.003922        81.7409 
 373   0.0000       3.020651        82.1961 
 374   0.0000       3.028700        82.4151 
 375   0.0000       3.038882        82.6922 
 376   0.0000       3.047250        82.9199 
 377   0.0000       3.055001        83.1308 
 378   0.0000       3.071140        83.5700 
 379   0.0000       3.074684        83.6664 
 380   0.0000       3.085099        83.9498 
 381   0.0000       3.095055        84.2207 
 382   0.0000       3.096287        84.2542 
 383   0.0000       3.109235        84.6066 
 384   0.0000       3.118917        84.8700 
 385   0.0000       3.123206        84.9868 
 386   0.0000       3.143071        85.5273 
 387   0.0000       3.153131        85.8011 
 388   0.0000       3.170225        86.2662 
 389   0.0000       3.181250        86.5662 
 390   0.0000       3.190574        86.8199 
 391   0.0000       3.198766        87.0429 
 392   0.0000       3.204397        87.1961 
 393   0.0000       3.214789        87.4789 
 394   0.0000       3.219461        87.6060 
 395   0.0000       3.222444        87.6871 
 396   0.0000       3.248773        88.4036 
 397   0.0000       3.256198        88.6057 
 398   0.0000       3.264185        88.8230 
 399   0.0000       3.269030        88.9548 
 400   0.0000       3.279295        89.2342 
 401   0.0000       3.299487        89.7836 
 402   0.0000       3.305663        89.9517 
 403   0.0000       3.313336        90.1605 
 404   0.0000       3.318505        90.3011 
 405   0.0000       3.323653        90.4412 
 406   0.0000       3.354023        91.2676 
 407   0.0000       3.356834        91.3441 
 408   0.0000       3.376423        91.8771 
 409   0.0000       3.381141        92.0055 
 410   0.0000       3.397780        92.4583 
 411   0.0000       3.415537        92.9415 
 412   0.0000       3.419587        93.0517 
 413   0.0000       3.440364        93.6171 
 414   0.0000       3.446218        93.7764 
 415   0.0000       3.474415        94.5436 
 416   0.0000       3.490663        94.9858 
 417   0.0000       3.504601        95.3650 
 418   0.0000       3.527180        95.9795 
 419   0.0000       3.537424        96.2582 
 420   0.0000       3.555111        96.7395 
 421   0.0000       3.572605        97.2155 
 422   0.0000       3.592488        97.7566 
 423   0.0000       3.605544        98.1118 
 424   0.0000       3.624841        98.6369 
 425   0.0000       3.642995        99.1309 
 426   0.0000       3.648216        99.2730 
 427   0.0000       3.668533        99.8259 
 428   0.0000       3.675129       100.0053 
 429   0.0000       3.694689       100.5376 
 430   0.0000       3.699399       100.6658 
 431   0.0000       3.722499       101.2943 
 432   0.0000       3.742031       101.8258 
 433   0.0000       3.750921       102.0677 
 434   0.0000       3.770027       102.5877 
 435   0.0000       3.774825       102.7182 
 436   0.0000       3.785781       103.0163 
 437   0.0000       3.791054       103.1598 
 438   0.0000       3.802260       103.4647 
 439   0.0000       3.841192       104.5242 
 440   0.0000       3.859407       105.0198 
 441   0.0000       3.867925       105.2516 
 442   0.0000       3.898808       106.0920 
 443   0.0000       3.924042       106.7786 
 444   0.0000       3.969443       108.0140 
 445   0.0000       3.980310       108.3097 
 446   0.0000       3.990554       108.5885 
 447   0.0000       4.004403       108.9654 
 448   0.0000       4.020156       109.3940 
 449   0.0000       4.049779       110.2001 
 450   0.0000       4.070540       110.7650 
 451   0.0000       4.079704       111.0144 
 452   0.0000       4.103221       111.6543 
 453   0.0000       4.138755       112.6213 
 454   0.0000       4.180682       113.7621 
 455   0.0000       4.195488       114.1650 
 456   0.0000       4.208407       114.5166 
 457   0.0000       4.217626       114.7674 
 458   0.0000       4.227072       115.0245 
 459   0.0000       4.241600       115.4198 
 460   0.0000       4.257142       115.8427 
 461   0.0000       4.271353       116.2294 
 462   0.0000       4.292701       116.8103 
 463   0.0000       4.313536       117.3773 
 464   0.0000       4.330741       117.8455 
 465   0.0000       4.362463       118.7086 
 466   0.0000       4.400571       119.7456 
 467   0.0000       4.416689       120.1842 
 468   0.0000       4.434975       120.6818 
 469   0.0000       4.492099       122.2362 
 470   0.0000       4.518309       122.9494 
 471   0.0000       4.537986       123.4849 
 472   0.0000       4.568562       124.3169 
 473   0.0000       4.575534       124.5066 
 474   0.0000       4.590166       124.9048 
 475   0.0000       4.600687       125.1911 
 476   0.0000       4.632549       126.0581 
 477   0.0000       4.637714       126.1986 
 478   0.0000       4.651158       126.5644 
 479   0.0000       4.662254       126.8664 
 480   0.0000       4.679197       127.3274 
 481   0.0000       4.710994       128.1927 
 482   0.0000       4.734339       128.8279 
 483   0.0000       4.754810       129.3850 
 484   0.0000       4.789066       130.3171 
 485   0.0000       4.793193       130.4294 
 486   0.0000       4.830282       131.4387 
 487   0.0000       4.861170       132.2792 
 488   0.0000       4.869990       132.5192 
 489   0.0000       4.880110       132.7946 
 490   0.0000       4.933468       134.2465 
 491   0.0000       4.941447       134.4636 
 492   0.0000       4.959628       134.9583 
 493   0.0000       5.003822       136.1609 
 494   0.0000       5.019063       136.5757 
 495   0.0000       5.062011       137.7443 
 496   0.0000       5.065397       137.8364 
 497   0.0000       5.073888       138.0675 
 498   0.0000       5.103870       138.8833 
 499   0.0000       5.125700       139.4774 
 500   0.0000       5.152076       140.1951 
 501   0.0000       5.174418       140.8031 
 502   0.0000       5.190375       141.2373 
 503   0.0000       5.205344       141.6446 
 504   0.0000       5.227102       142.2367 
 505   0.0000       5.237588       142.5220 
 506   0.0000       5.316796       144.6774 
 507   0.0000       5.340136       145.3125 
 508   0.0000       5.356599       145.7605 
 509   0.0000       5.411149       147.2448 
 510   0.0000       5.428225       147.7095 
 511   0.0000       5.503748       149.7646 
 512   0.0000       5.550644       151.0407 
 513   0.0000       5.571847       151.6177 
 514   0.0000       5.635668       153.3543 
 515   0.0000       5.685951       154.7226 
 516   0.0000       5.778335       157.2365 
 517   0.0000       5.843706       159.0153 
 518   0.0000       5.953819       162.0116 
 519   0.0000       5.988913       162.9666 
 520   0.0000       6.108322       166.2159 
 521   0.0000       6.206287       168.8817 
 522   0.0000       6.311438       171.7430 
 523   0.0000       6.316093       171.8696 
 524   0.0000       6.426805       174.8823 
 525   0.0000       6.441127       175.2720 
 526   0.0000       6.543879       178.0680 
 527   0.0000       6.582257       179.1123 
 528   0.0000       6.703225       182.4040 
 529   0.0000       6.713977       182.6966 
 530   0.0000       6.931692       188.6209 
 531   0.0000       6.942058       188.9030 
 532   0.0000       6.974723       189.7919 
 533   0.0000       7.119921       193.7429 
 534   0.0000      22.201455       604.1323 
 535   0.0000      22.303720       606.9151 
 536   0.0000      22.318242       607.3102 
 537   0.0000      22.357657       608.3828 
 538   0.0000      22.452775       610.9711 
 539   0.0000      22.501772       612.3044 
 540   0.0000      22.680298       617.1623 
 541   0.0000      23.175135       630.6275 
 542   0.0000      23.286455       633.6566 
 543   0.0000      31.909898       868.3125 
 544   0.0000      32.431587       882.5084 
 545   0.0000      32.508597       884.6039 
 546   0.0000      43.933784      1195.4990 
 547   0.0000      44.062039      1198.9890 

                 SPIN DOWN ORBITALS
  NO   OCC          E(Eh)            E(eV) 
   0   1.0000     -19.750033      -537.4257 
   1   1.0000     -19.706193      -536.2328 
   2   1.0000     -14.994839      -408.0303 
   3   1.0000     -14.914767      -405.8514 
   4   1.0000     -14.896529      -405.3552 
   5   1.0000     -10.792750      -293.6857 
   6   1.0000     -10.760727      -292.8143 
   7   1.0000     -10.754578      -292.6469 
   8   1.0000     -10.720593      -291.7222 
   9   1.0000     -10.701666      -291.2072 
  10   1.0000     -10.689662      -290.8805 
  11   1.0000     -10.685212      -290.7594 
  12   1.0000     -10.678886      -290.5873 
  13   1.0000     -10.643905      -289.6354 
  14   1.0000      -1.305247       -35.5176 
  15   1.0000      -1.271365       -34.5956 
  16   1.0000      -1.236657       -33.6512 
  17   1.0000      -1.174363       -31.9561 
  18   1.0000      -1.148308       -31.2470 
  19   1.0000      -1.037970       -28.2446 
  20   1.0000      -0.996747       -27.1229 
[...]
     44      -0.000138  -0.553344   0.131352
     45      -0.000014  -0.001638   0.000342
     46       0.000012  -0.000298   0.000083
     47       0.000025  -0.000529  -0.000125
     48       0.000021  -0.010216  -0.042808
     49       0.000033  -0.013602  -0.057075
     50      -0.000020  -0.001569  -0.006497
     51      -0.000325   0.136695   0.576648
     52      -0.000444   0.185526   0.774632
     53      -0.000006   0.020164   0.090326
     54       0.000002   0.000469  -0.000171
     55      -0.000008  -0.000537   0.000104
     56      -0.000011  -0.000814   0.000250
     57      -0.001400  -0.000431  -0.001394
     58      -0.007298  -0.001989  -0.006125
     59      -0.011920   0.000961   0.003442
     60       0.000017   0.000135   0.000584
     61       0.000024  -0.000067  -0.000260
     62       0.000001   0.000228   0.001186
     63       0.000091   0.000284   0.000589
     64      -0.000082   0.002104   0.007609
     65      -0.000073   0.001494   0.005527
     66      -0.000014   0.000481   0.001972
     67      -0.000012   0.001157   0.005414
     68      -0.000016  -0.001280  -0.005887
     69      -0.000059   0.001651   0.006350
     70       0.000074  -0.000056  -0.000490
     71      -0.000009   0.000532   0.001818
     72      -0.000002   0.000017   0.000028
     73       0.000001   0.000035  -0.000043
     74       0.000012   0.000356  -0.000121
     75      -0.000016  -0.000080   0.000135
     76      -0.000002   0.000280  -0.000152
     77       0.000003  -0.000344   0.000426
     78      -0.000006  -0.000289  -0.000218
     79      -0.000009  -0.000100  -0.000494
     80       0.000017  -0.000328  -0.000122
     81       0.000022   0.001113  -0.000780
     82      -0.000016  -0.003181   0.001243
     83      -0.000023  -0.003959   0.001428
     84      -0.000139   0.007943  -0.003759
     85       0.000052  -0.005062   0.003553
     86       0.000114  -0.004373   0.002207
     87      -0.000888   0.000205  -0.000985
     88      -0.000081   0.000462  -0.000710
     89       0.000896  -0.000038   0.000574
     90      -0.000352  -0.000059  -0.000145
     91      -0.000142  -0.000024   0.000165
     92      -0.000126   0.000391  -0.000670
     93       0.000002   0.000281   0.000295
     94       0.000009  -0.000012  -0.000232
     95      -0.000224   0.001393  -0.000432
     96      -0.000138   0.000503  -0.000481
     97      -0.000133   0.000111   0.000062
     98       0.000076   0.000031  -0.000316


-----------
IR SPECTRUM
-----------

 Mode   freq       eps      Int      T**2         TX        TY        TZ
       cm**-1   L/(mol*cm) km/mol    a.u.
----------------------------------------------------------------------------
  7:     23.12   0.001109    5.60  0.014965  (-0.046806  0.081559 -0.078248)
  8:     49.95   0.000455    2.30  0.002840  ( 0.011271 -0.051857  0.004830)
  9:     70.99   0.001295    6.54  0.005692  ( 0.024149 -0.069031 -0.018531)
 10:     80.29   0.001940    9.80  0.007540  (-0.035374 -0.003647 -0.079219)
 11:    105.85   0.001972    9.97  0.005815  ( 0.050770 -0.053293 -0.019931)
 12:    118.23   0.000373    1.88  0.000983  (-0.002960  0.013586  0.028106)
 13:    134.55   0.001210    6.12  0.002807  (-0.047021 -0.022451 -0.009599)
 14:    169.75   0.002688   13.59  0.004942  ( 0.047999  0.050798 -0.007604)
 15:    195.69   0.006087   30.76  0.009707  ( 0.017514  0.083182 -0.049811)
 16:    200.28   0.002250   11.37  0.003506  ( 0.038887  0.044121 -0.006868)
 17:    221.68   0.001804    9.12  0.002539  (-0.008381  0.045917 -0.018992)
 18:    254.88   0.003510   17.74  0.004297  ( 0.010035  0.064700 -0.003252)
 19:    281.96   0.001227    6.20  0.001358  (-0.034035 -0.007110  0.012222)
 20:    320.96   0.001039    5.25  0.001010  ( 0.011558  0.017156  0.024127)
 21:    333.89   0.009751   49.28  0.009114  (-0.020457 -0.086312  0.035291)
 22:    365.33   0.003628   18.33  0.003099  ( 0.000770  0.054207  0.012650)
 23:    384.62   0.004624   23.37  0.003752  (-0.003862  0.035481 -0.049782)
 24:    410.79   0.001646    8.32  0.001251  ( 0.007091 -0.033945 -0.006936)
 25:    443.78   0.011839   59.83  0.008325  ( 0.070244 -0.016235  0.055921)
 26:    463.82   0.013296   67.19  0.008946  (-0.007159  0.035902 -0.087209)
 27:    493.63   0.002460   12.43  0.001555  ( 0.013115  0.026298 -0.026294)
 28:    538.82   0.001141    5.76  0.000661  ( 0.009448 -0.011224 -0.021104)
 29:    585.59   0.004206   21.26  0.002241  (-0.023096 -0.028023 -0.030376)
 30:    603.96   0.004208   21.27  0.002174  (-0.036766  0.027270 -0.008888)
 31:    646.38   0.002112   10.67  0.001020  ( 0.017615 -0.026134  0.005142)
 32:    656.21   0.007272   36.75  0.003458  (-0.046226  0.001335  0.036328)
 33:    684.22   0.003071   15.52  0.001401  (-0.025176  0.015168  0.023165)
 34:    785.64   0.002596   13.12  0.001031  ( 0.009401  0.020739  0.022639)
 35:    813.65   0.001798    9.09  0.000690  (-0.012237  0.017166 -0.015655)
 36:    875.04   0.002860   14.46  0.001020  ( 0.024140  0.020898  0.000811)
 37:    882.74   0.005144   26.00  0.001819  (-0.014819  0.022366 -0.033148)
 38:    908.49   0.001228    6.21  0.000422  ( 0.020168  0.002388  0.003086)
 39:    925.67   0.001077    5.44  0.000363  (-0.008104  0.000519  0.017239)
 40:    970.41   0.000428    2.16  0.000138  (-0.011114  0.003463  0.001424)
 41:    991.20   0.000897    4.53  0.000282  ( 0.009132  0.005251 -0.013088)
 42:   1007.34   0.001412    7.13  0.000437  (-0.008117 -0.018811 -0.004199)
 43:   1038.00   0.001577    7.97  0.000474  (-0.004236 -0.004715  0.020830)
 44:   1053.85   0.000961    4.86  0.000285  ( 0.007990  0.012949  0.007294)
 45:   1061.24   0.000939    4.75  0.000276  (-0.006942  0.011012 -0.010328)
 46:   1088.35   0.004954   25.04  0.001421  (-0.004498 -0.035593 -0.011552)
 47:   1106.52   0.000513    2.59  0.000145  (-0.011637 -0.002018 -0.002264)
 48:   1140.30   0.002185   11.04  0.000598  (-0.020414 -0.011763 -0.006535)
 49:   1155.37   0.000494    2.50  0.000133  (-0.000748  0.003099 -0.011103)
 50:   1172.91   0.000785    3.97  0.000209  (-0.002971  0.001492 -0.014061)
 51:   1180.23   0.002372   11.99  0.000627  (-0.016422 -0.018726 -0.002599)
 52:   1203.41   0.002129   10.76  0.000552  ( 0.001277  0.014225 -0.018654)
 53:   1233.83   0.004139   20.92  0.001047  ( 0.012327  0.018300  0.023664)
 54:   1253.99   0.028542  144.24  0.007103  (-0.050958 -0.061781 -0.026253)
 55:   1276.16   0.000692    3.49  0.000169  (-0.006700  0.006429 -0.009105)
 56:   1291.15   0.004677   23.64  0.001130  ( 0.022653  0.023821  0.007057)
 57:   1311.19   0.003150   15.92  0.000750  ( 0.010059  0.025011 -0.004793)
 58:   1339.33   0.000120    0.61  0.000028  ( 0.000168 -0.000217  0.005284)
 59:   1352.42   0.001109    5.60  0.000256  (-0.006872 -0.007873 -0.012107)
 60:   1359.66   0.004801   24.26  0.001102  ( 0.019873  0.020302  0.017168)
 61:   1385.41   0.001053    5.32  0.000237  ( 0.008817 -0.007211  0.010366)
 62:   1389.67   0.001218    6.16  0.000274  ( 0.000641  0.002719  0.016304)
 63:   1407.54   0.009670   48.87  0.002144  (-0.035635 -0.026942 -0.012172)
 64:   1425.32   0.001686    8.52  0.000369  ( 0.005519 -0.012518  0.013493)
 65:   1459.97   0.008600   43.46  0.001838  (-0.004493 -0.033137  0.026832)
 66:   1471.56   0.001541    7.79  0.000327  (-0.007524  0.013664 -0.009131)
 67:   1487.15   0.006214   31.40  0.001304  ( 0.002040  0.023950  0.026947)
 68:   1490.99   0.000834    4.21  0.000175  ( 0.006282  0.000444  0.011613)
 69:   1494.56   0.002762   13.96  0.000577  (-0.016025  0.011195  0.013946)
 70:   1496.69   0.001937    9.79  0.000404  (-0.010575 -0.016063  0.005835)
 71:   1503.75   0.003435   17.36  0.000713  (-0.015142  0.002002  0.021900)
 72:   1511.33   0.004903   24.78  0.001012  (-0.015759 -0.024089 -0.013554)
 73:   1515.85   0.060151  303.98  0.012383  (-0.063398 -0.081648 -0.041200)
 74:   1555.83   0.018097   91.46  0.003630  ( 0.059552 -0.000214 -0.009132)
 75:   1608.81   0.035126  177.51  0.006813  ( 0.029158 -0.004137  0.077111)
 76:   1649.54   0.006739   34.06  0.001275  (-0.006780  0.028894 -0.019852)
 77:   1685.25   0.023391  118.21  0.004331  ( 0.001613  0.036459 -0.054768)
 78:   1696.19   0.148537  750.65  0.027328  (-0.054976 -0.142291  0.063709)
 79:   1823.98   0.047423  239.65  0.008114  ( 0.039224 -0.045486 -0.067127)
 80:   2439.28   0.399022  2016.49  0.051048  ( 0.041164  0.203339 -0.089479)
 81:   3049.41   0.001992   10.07  0.000204  ( 0.005071  0.003163 -0.012965)
 82:   3079.35   0.004293   21.69  0.000435  ( 0.004867  0.009659  0.017834)
 83:   3085.87   0.000567    2.86  0.000057  (-0.000279 -0.004036 -0.006399)
 84:   3091.34   0.000625    3.16  0.000063  (-0.000230  0.005821  0.005401)
 85:   3094.62   0.002100   10.61  0.000212  ( 0.006943  0.000570  0.012776)
 86:   3099.44   0.003378   17.07  0.000340  ( 0.016232  0.007498 -0.004519)
 87:   3117.88   0.000311    1.57  0.000031  ( 0.002896 -0.000515  0.004746)
 88:   3148.52   0.001199    6.06  0.000119  (-0.009540 -0.004851 -0.002068)
 89:   3168.51   0.000741    3.74  0.000073  ( 0.005622 -0.005221 -0.003755)
 90:   3170.46   0.000159    0.80  0.000016  ( 0.000512  0.003896 -0.000427)
 91:   3176.34   0.000133    0.67  0.000013  ( 0.002304 -0.002484 -0.001256)
 92:   3184.20   0.000945    4.78  0.000093  (-0.006103  0.001573  0.007276)
 93:   3206.21   0.000247    1.25  0.000024  ( 0.001355  0.004104 -0.002308)
 94:   3230.85   0.000110    0.55  0.000011  ( 0.001605  0.002793 -0.000479)
 95:   3461.04   0.014328   72.41  0.001292  (-0.029470 -0.020008  0.004806)
 96:   3530.19   0.013602   68.74  0.001202  ( 0.001147  0.011543  0.032678)
 97:   3623.03   0.006009   30.37  0.000518  ( 0.017856 -0.003630 -0.013622)
 98:   3628.53   0.017215   87.00  0.001481  ( 0.018335  0.033798  0.001431)

* The epsilon (eps) is given for a Dirac delta lineshape.
** The dipole moment derivative (T) already includes vibrational overlap.

The first frequency considered to be a vibration is 7
The total number of vibrations considered is 92


--------------------------
THERMOCHEMISTRY AT 298.15K
--------------------------

Temperature         ... 298.15 K
Pressure            ... 1.00 atm
Total Mass          ... 201.27 AMU

Throughout the following assumptions are being made:
  (1) The electronic state is orbitally nondegenerate
      but the spin degeneracy is treated
  (2) There are no thermally accessible electronically excited states
  (3) Hindered rotations indicated by low frequency modes are not
      treated as such but are treated as vibrations and this may
      cause some error
  (4) All equations used are the standard statistical mechanics
      equations for an ideal gas
  (5) All vibrations are strictly harmonic

freq.      23.12  E(vib)   ...       0.56 
freq.      49.95  E(vib)   ...       0.52 
freq.      70.99  E(vib)   ...       0.50 
freq.      80.29  E(vib)   ...       0.49 
freq.     105.85  E(vib)   ...       0.45 
freq.     118.23  E(vib)   ...       0.44 
freq.     134.55  E(vib)   ...       0.42 
freq.     169.75  E(vib)   ...       0.38 
freq.     195.69  E(vib)   ...       0.36 
freq.     200.28  E(vib)   ...       0.35 
freq.     221.68  E(vib)   ...       0.33 
freq.     254.88  E(vib)   ...       0.30 
freq.     281.96  E(vib)   ...       0.28 
freq.     320.96  E(vib)   ...       0.25 
freq.     333.89  E(vib)   ...       0.24 
freq.     365.33  E(vib)   ...       0.22 
freq.     384.62  E(vib)   ...       0.20 
freq.     410.79  E(vib)   ...       0.19 
freq.     443.78  E(vib)   ...       0.17 
freq.     463.82  E(vib)   ...       0.16 
freq.     493.63  E(vib)   ...       0.14 
freq.     538.82  E(vib)   ...       0.12 
freq.     585.59  E(vib)   ...       0.11 
freq.     603.96  E(vib)   ...       0.10 
freq.     646.38  E(vib)   ...       0.09 
freq.     656.21  E(vib)   ...       0.08 
freq.     684.22  E(vib)   ...       0.07 
freq.     785.64  E(vib)   ...       0.05 
freq.     813.65  E(vib)   ...       0.05 
freq.     875.04  E(vib)   ...       0.04 
freq.     882.74  E(vib)   ...       0.04 
freq.     908.49  E(vib)   ...       0.03 
freq.     925.67  E(vib)   ...       0.03 
freq.     970.41  E(vib)   ...       0.03 
freq.     991.20  E(vib)   ...       0.02 
freq.    1007.34  E(vib)   ...       0.02 
freq.    1038.00  E(vib)   ...       0.02 
freq.    1053.85  E(vib)   ...       0.02 
freq.    1061.24  E(vib)   ...       0.02 
freq.    1088.35  E(vib)   ...       0.02 
freq.    1106.52  E(vib)   ...       0.02 
freq.    1140.30  E(vib)   ...       0.01 
freq.    1155.37  E(vib)   ...       0.01 
freq.    1172.91  E(vib)   ...       0.01 
freq.    1180.23  E(vib)   ...       0.01 
freq.    1203.41  E(vib)   ...       0.01 
freq.    1233.83  E(vib)   ...       0.01 
freq.    1253.99  E(vib)   ...       0.01 
freq.    1276.16  E(vib)   ...       0.01 
freq.    1291.15  E(vib)   ...       0.01 
freq.    1311.19  E(vib)   ...       0.01 
freq.    1339.33  E(vib)   ...       0.01 
freq.    1352.42  E(vib)   ...       0.01 
freq.    1359.66  E(vib)   ...       0.01 
freq.    1385.41  E(vib)   ...       0.00 
freq.    1389.67  E(vib)   ...       0.00 
freq.    1407.54  E(vib)   ...       0.00 
freq.    1425.32  E(vib)   ...       0.00 
freq.    1459.97  E(vib)   ...       0.00 
freq.    1471.56  E(vib)   ...       0.00 
freq.    1487.15  E(vib)   ...       0.00 
freq.    1490.99  E(vib)   ...       0.00 
freq.    1494.56  E(vib)   ...       0.00 
freq.    1496.69  E(vib)   ...       0.00 
freq.    1503.75  E(vib)   ...       0.00 
freq.    1511.33  E(vib)   ...       0.00 
freq.    1515.85  E(vib)   ...       0.00 
freq.    1555.83  E(vib)   ...       0.00 
freq.    1608.81  E(vib)   ...       0.00 
freq.    1649.54  E(vib)   ...       0.00 
freq.    1685.25  E(vib)   ...       0.00 
freq.    1696.19  E(vib)   ...       0.00 
freq.    1823.98  E(vib)   ...       0.00 
freq.    2439.28  E(vib)   ...       0.00 
freq.    3049.41  E(vib)   ...       0.00 
freq.    3079.35  E(vib)   ...       0.00 
freq.    3085.87  E(vib)   ...       0.00 
freq.    3091.34  E(vib)   ...       0.00 
freq.    3094.62  E(vib)   ...       0.00 
freq.    3099.44  E(vib)   ...       0.00 
freq.    3117.88  E(vib)   ...       0.00 
freq.    3148.52  E(vib)   ...       0.00 
freq.    3168.51  E(vib)   ...       0.00 
freq.    3170.46  E(vib)   ...       0.00 
freq.    3176.34  E(vib)   ...       0.00 
freq.    3184.20  E(vib)   ...       0.00 
freq.    3206.21  E(vib)   ...       0.00 
freq.    3230.85  E(vib)   ...       0.00 
freq.    3461.04  E(vib)   ...       0.00 
freq.    3530.19  E(vib)   ...       0.00 
freq.    3623.03  E(vib)   ...       0.00 
freq.    3628.53  E(vib)   ...       0.00 

------------
INNER ENERGY
------------

The inner energy is: U= E(el) + E(ZPE) + E(vib) + E(rot) + E(trans)
    E(el)   - is the total energy from the electronic structure calculation
              = E(kin-el) + E(nuc-el) + E(el-el) + E(nuc-nuc)
    E(ZPE)  - the the zero temperature vibrational energy from the frequency calculation
    E(vib)  - the the finite temperature correction to E(ZPE) due to population
              of excited vibrational states
    E(rot)  - is the rotational thermal energy
    E(trans)- is the translational thermal energy

Summary of contributions to the inner energy U:
Electronic energy                ...   -668.83764915 Eh
Zero point energy                ...      0.29220171 Eh     183.36 kcal/mol
Thermal vibrational correction   ...      0.01288456 Eh       8.09 kcal/mol
Thermal rotational correction    ...      0.00141627 Eh       0.89 kcal/mol
Thermal translational correction ...      0.00141627 Eh       0.89 kcal/mol
-----------------------------------------------------------------------
Total thermal energy                   -668.52973034 Eh


Summary of corrections to the electronic energy:
(perhaps to be used in another calculation)
Total thermal correction                  0.01571710 Eh       9.86 kcal/mol
Non-thermal (ZPE) correction              0.29220171 Eh     183.36 kcal/mol
-----------------------------------------------------------------------
Total correction                          0.30791881 Eh     193.22 kcal/mol


--------
ENTHALPY
--------

The enthalpy is H = U + kB*T
                kB is Boltzmann's constant
Total free energy                 ...   -668.52973034 Eh 
Thermal Enthalpy correction       ...      0.00094421 Eh       0.59 kcal/mol
-----------------------------------------------------------------------
Total Enthalpy                    ...   -668.52878613 Eh


Note: Only C1 symmetry has been detected, increase convergence thresholds 
      if your molecule has a higher symmetry. Symmetry factor of 1.0 is   
      used for the rotational entropy correction. 
 

Note: Rotational entropy computed according to Herzberg 
Infrared and Raman Spectra, Chapter V,1, Van Nostrand Reinhold, 1945 
Point Group:  C1, Symmetry Number:   1  
Rotational constants in cm-1:     0.027469     0.014687     0.010719 

Vibrational entropy computed according to the QRRHO of S. Grimme
Chem.Eur.J. 2012 18 9955


-------
ENTROPY
-------

The entropy contributions are T*S = T*(S(el)+S(vib)+S(rot)+S(trans))
     S(el)   - electronic entropy
     S(vib)  - vibrational entropy
     S(rot)  - rotational entropy
     S(trans)- translational entropy
The entropies will be listed as multiplied by the temperature to get
units of energy

Electronic entropy                ...      0.00065446 Eh      0.41 kcal/mol
Vibrational entropy               ...      0.02287129 Eh     14.35 kcal/mol
Rotational entropy                ...      0.01534170 Eh      9.63 kcal/mol
Translational entropy             ...      0.01986189 Eh     12.46 kcal/mol
-----------------------------------------------------------------------
Final entropy term                ...      0.05872935 Eh     36.85 kcal/mol

In case the symmetry of your molecule has not been determined correctly
or in case you have a reason to use a different symmetry number we print 
out the resulting rotational entropy values for sn=1,12 :
 --------------------------------------------------------
|  sn= 1 | S(rot)=       0.01534170 Eh      9.63 kcal/mol|
|  sn= 2 | S(rot)=       0.01468725 Eh      9.22 kcal/mol|
|  sn= 3 | S(rot)=       0.01430442 Eh      8.98 kcal/mol|
|  sn= 4 | S(rot)=       0.01403279 Eh      8.81 kcal/mol|
|  sn= 5 | S(rot)=       0.01382210 Eh      8.67 kcal/mol|
|  sn= 6 | S(rot)=       0.01364996 Eh      8.57 kcal/mol|
|  sn= 7 | S(rot)=       0.01350441 Eh      8.47 kcal/mol|
|  sn= 8 | S(rot)=       0.01337834 Eh      8.40 kcal/mol|
|  sn= 9 | S(rot)=       0.01326713 Eh      8.33 kcal/mol|
|  sn=10 | S(rot)=       0.01316765 Eh      8.26 kcal/mol|
|  sn=11 | S(rot)=       0.01307766 Eh      8.21 kcal/mol|
|  sn=12 | S(rot)=       0.01299550 Eh      8.15 kcal/mol|
 --------------------------------------------------------


-------------------
GIBBS FREE ENERGY
-------------------

The Gibbs free energy is G = H - T*S

Total enthalpy                    ...   -668.52878613 Eh 
Total entropy correction          ...     -0.05872935 Eh    -36.85 kcal/mol
-----------------------------------------------------------------------
Final Gibbs free energy         ...   -668.58751547 Eh

For completeness - the Gibbs free energy minus the electronic energy
G-E(el)                           ...      0.25013367 Eh    156.96 kcal/mol


Timings for individual modules:

Sum of individual times         ...     2673.812 sec (=  44.564 min)
GTO integral calculation        ...       81.588 sec (=   1.360 min)   3.1 %
SCF iterations                  ...     1315.762 sec (=  21.929 min)  49.2 %
SCF Gradient evaluation         ...      389.727 sec (=   6.495 min)  14.6 %
Geometry relaxation             ...        1.429 sec (=   0.024 min)   0.1 %
Analytical frequency calculation...      885.306 sec (=  14.755 min)  33.1 %
                             ****ORCA TERMINATED NORMALLY****
TOTAL RUN TIME: 0 days 0 hours 45 minutes 44 seconds 735 msec
