
                                 *****************
                                 * O   R   C   A *
                                 *****************

                                            #,                                       
                                            ###                                      
                                            ####                                     
                                            #####                                    
                                            ######                                   
                                           ########,                                 
                                     ,,################,,,,,                         
                               ,,#################################,,                 
                          ,,##########################################,,             
                       ,#########################################, ''#####,          
                    ,#############################################,,   '####,        
                  ,##################################################,,,,####,       
                ,###########''''           ''''###############################       
              ,#####''   ,,,,##########,,,,          '''####'''          '####       
            ,##' ,,,,###########################,,,                        '##       
           ' ,,###''''                  '''############,,,                           
         ,,##''                                '''############,,,,        ,,,,,,###''
      ,#''                                            '''#######################'''  
     '                                                          ''''####''''         
             ,#######,   #######,   ,#######,      ##                                
            ,#'     '#,  ##    ##  ,#'     '#,    #''#        ######   ,####,        
            ##       ##  ##   ,#'  ##            #'  '#       #        #'  '#        
            ##       ##  #######   ##           ,######,      #####,   #    #        
            '#,     ,#'  ##    ##  '#,     ,#' ,#      #,         ##   #,  ,#        
             '#######'   ##     ##  '#######'  #'      '#     #####' # '####'        



                  #######################################################
                  #                        -***-                        #
                  #          Department of theory and spectroscopy      #
                  #    Directorship and core code : Frank Neese         #
                  #        Max Planck Institute fuer Kohlenforschung    #
                  #                Kaiser Wilhelm Platz 1               #
                  #                 D-45470 Muelheim/Ruhr               #
                  #                      Germany                        #
                  #                                                     #
                  #                  All rights reserved                #
                  #                        -***-                        #
                  #######################################################


                         Program Version 5.0.4 -  RELEASE  -


 With contributions from (in alphabetic order):
   Daniel Aravena         : Magnetic Suceptibility
   Michael Atanasov       : Ab Initio Ligand Field Theory (pilot matlab implementation)
   Alexander A. Auer      : GIAO ZORA, VPT2 properties, NMR spectrum
   Ute Becker             : Parallelization
   Giovanni Bistoni       : ED, misc. LED, open-shell LED, HFLD
   Martin Brehm           : Molecular dynamics
   Dmytro Bykov           : SCF Hessian
   Vijay G. Chilkuri      : MRCI spin determinant printing, contributions to CSF-ICE
   Dipayan Datta          : RHF DLPNO-CCSD density
   Achintya Kumar Dutta   : EOM-CC, STEOM-CC
   Dmitry Ganyushin       : Spin-Orbit,Spin-Spin,Magnetic field MRCI
   Miquel Garcia          : C-PCM and meta-GGA Hessian, CC/C-PCM, Gaussian charge scheme
   Yang Guo               : DLPNO-NEVPT2, F12-NEVPT2, CIM, IAO-localization
   Andreas Hansen         : Spin unrestricted coupled pair/coupled cluster methods
   Benjamin Helmich-Paris : MC-RPA, TRAH-SCF, COSX integrals
   Lee Huntington         : MR-EOM, pCC
   Robert Izsak           : Overlap fitted RIJCOSX, COSX-SCS-MP3, EOM
   Marcus Kettner         : VPT2
   Christian Kollmar      : KDIIS, OOCD, Brueckner-CCSD(T), CCSD density, CASPT2, CASPT2-K
   Simone Kossmann        : Meta GGA functionals, TD-DFT gradient, OOMP2, MP2 Hessian
   Martin Krupicka        : Initial AUTO-CI
   Lucas Lang             : DCDCAS
   Marvin Lechner         : AUTO-CI (C++ implementation), FIC-MRCC
   Dagmar Lenk            : GEPOL surface, SMD
   Dimitrios Liakos       : Extrapolation schemes; Compound Job, initial MDCI parallelization
   Dimitrios Manganas     : Further ROCIS development; embedding schemes
   Dimitrios Pantazis     : SARC Basis sets
   Anastasios Papadopoulos: AUTO-CI, single reference methods and gradients
   Taras Petrenko         : DFT Hessian,TD-DFT gradient, ASA, ECA, R-Raman, ABS, FL, XAS/XES, NRVS
   Peter Pinski           : DLPNO-MP2, DLPNO-MP2 Gradient
   Christoph Reimann      : Effective Core Potentials
   Marius Retegan         : Local ZFS, SOC
   Christoph Riplinger    : Optimizer, TS searches, QM/MM, DLPNO-CCSD(T), (RO)-DLPNO pert. Triples
   Tobias Risthaus        : Range-separated hybrids, TD-DFT gradient, RPA, STAB
   Michael Roemelt        : Original ROCIS implementation
   Masaaki Saitow         : Open-shell DLPNO-CCSD energy and density
   Barbara Sandhoefer     : DKH picture change effects
   Avijit Sen             : IP-ROCIS
   Kantharuban Sivalingam : CASSCF convergence, NEVPT2, FIC-MRCI
   Bernardo de Souza      : ESD, SOC TD-DFT
   Georgi Stoychev        : AutoAux, RI-MP2 NMR, DLPNO-MP2 response
   Willem Van den Heuvel  : Paramagnetic NMR
   Boris Wezisla          : Elementary symmetry handling
   Frank Wennmohs         : Technical directorship


 We gratefully acknowledge several colleagues who have allowed us to
 interface, adapt or use parts of their codes:
   Stefan Grimme, W. Hujo, H. Kruse, P. Pracht,  : VdW corrections, initial TS optimization,
                  C. Bannwarth, S. Ehlert          DFT functionals, gCP, sTDA/sTD-DF
   Ed Valeev, F. Pavosevic, A. Kumar             : LibInt (2-el integral package), F12 methods
   Garnet Chan, S. Sharma, J. Yang, R. Olivares  : DMRG
   Ulf Ekstrom                                   : XCFun DFT Library
   Mihaly Kallay                                 : mrcc  (arbitrary order and MRCC methods)
   Jiri Pittner, Ondrej Demel                    : Mk-CCSD
   Frank Weinhold                                : gennbo (NPA and NBO analysis)
   Christopher J. Cramer and Donald G. Truhlar   : smd solvation model
   Lars Goerigk                                  : TD-DFT with DH, B97 family of functionals
   V. Asgeirsson, H. Jonsson                     : NEB implementation
   FAccTs GmbH                                   : IRC, NEB, NEB-TS, DLPNO-Multilevel, CI-OPT
                                                   MM, QMMM, 2- and 3-layer-ONIOM, Crystal-QMMM,
                                                   LR-CPCM, SF, NACMEs, symmetry and pop. for TD-DFT,
                                                   nearIR, NL-DFT gradient (VV10), updates on ESD,
                                                   ML-optimized integration grids
   S Lehtola, MJT Oliveira, MAL Marques          : LibXC Library
   Liviu Ungur et al                             : ANISO software


 Your calculation uses the libint2 library for the computation of 2-el integrals
 For citations please refer to: http://libint.valeyev.net

 Your ORCA version has been built with support for libXC version: 5.1.0
 For citations please refer to: https://tddft.org/programs/libxc/

 This ORCA versions uses:
   CBLAS   interface :  Fast vector & matrix operations
   LAPACKE interface :  Fast linear algebra routines
   SCALAPACK package :  Parallel linear algebra routines
   Shared memory     :  Shared parallel matrices
   BLAS/LAPACK       :  OpenBLAS 0.3.15  USE64BITINT DYNAMIC_ARCH NO_AFFINITY Zen SINGLE_THREADED
        Core in use  :  Zen
   Copyright (c) 2011-2014, The OpenBLAS Project




***************************************
The coordinates will be read from file: model.xyz
***************************************


================================================================================

----- Orbital basis set information -----
Your calculation utilizes the basis: EPR-II
   V. Barone, in Recent Advances in Density Functional Methods, Part 1 (ed. D. P. Chong), World Scientific, Singapore, 1995, p. 287.

----- AuxJ basis set information -----
Your calculation utilizes the auxiliary basis: def2/J
   F. Weigend, Phys. Chem. Chem. Phys. 8, 1057 (2006).

================================================================================
                                        WARNINGS
                       Please study these warnings very carefully!
================================================================================


WARNING: your system is open-shell and RHF/RKS was chosen
  ===> : WILL SWITCH to UHF/UKS


WARNING: Geometry Optimization
  ===> : Switching off AutoStart
         For restart on a previous wavefunction, please use MOREAD

INFO   : the flag for use of the SHARK integral package has been found!

================================================================================
                                       INPUT FILE
================================================================================
NAME = opt.inp
|  1> ! B3LYP EPR-II OPT
|  2> %pal nprocs 16 end
|  3> *XYZFile 1 2 model.xyz
|  4> 
|  5>                          ****END OF INPUT****
================================================================================

                       *****************************
                       * Geometry Optimization Run *
                       *****************************

Geometry optimization settings:
Update method            Update   .... BFGS
Choice of coordinates    CoordSys .... Z-matrix Internals
Initial Hessian          InHess   .... Almoef's Model

Convergence Tolerances:
Energy Change            TolE     ....  5.0000e-06 Eh
Max. Gradient            TolMAXG  ....  3.0000e-04 Eh/bohr
RMS Gradient             TolRMSG  ....  1.0000e-04 Eh/bohr
Max. Displacement        TolMAXD  ....  4.0000e-03 bohr
RMS Displacement         TolRMSD  ....  2.0000e-03 bohr
Strict Convergence                ....  False
------------------------------------------------------------------------------
                        ORCA OPTIMIZATION COORDINATE SETUP
------------------------------------------------------------------------------

The optimization will be done in new redundant internal coordinates
Making redundant internal coordinates   ...  (new redundants) done
Evaluating the initial hessian          ...  (Almloef) done
Evaluating the coordinates              ...  done
Calculating the B-matrix                .... done
Calculating the G-matrix                .... done
Diagonalizing the G-matrix              .... done
Small eigenvalue found = 4.552e-03
Small eigenvalue found = 8.112e-03
Small eigenvalue found = 1.105e-02
Small eigenvalue found = 1.434e-02
Small eigenvalue found = 1.535e-02
The first mode is                       ....   67
The number of degrees of freedom        ....   93

    -----------------------------------------------------------------
                    Redundant Internal Coordinates


    -----------------------------------------------------------------
         Definition                    Initial Value    Approx d2E/dq
    -----------------------------------------------------------------
      1. B(C   1,N   0)                  1.4456         0.456265   
      2. B(C   2,C   1)                  1.5421         0.357366   
      3. B(O   3,C   2)                  1.2386         0.975954   
      4. B(C   4,C   1)                  1.5396         0.360600   
      5. B(C   5,C   4)                  1.5659         0.327382   
      6. B(C   6,C   5)                  1.5004         0.416480   
      7. B(C   7,C   6)                  1.4971         0.421533   
      8. B(N   8,C   7)                  1.5228         0.343573   
      9. B(H   9,C   6)                  1.0876         0.363255   
     10. B(H  10,C   7)                  1.0982         0.349399   
     11. B(H  11,C   7)                  1.0936         0.355409   
     12. B(H  12,N   8)                  1.0229         0.412693   
     13. B(H  13,N   8)                  1.0217         0.414431   
     14. B(H  14,N   0)                  1.0099         0.432832   
     15. B(C  15,N   0)                  1.3856         0.568776   
     16. B(N  16,C   2)                  1.3275         0.703910   
     17. B(H  17,N  16)                  1.0100         0.432678   
     18. B(O  18,C  15)                  1.2075         1.094116   
     19. B(H  19,N   8)                  1.0679         0.349839   
     20. B(C  20,N  16)                  1.4549         0.440864   
     21. B(H  21,C  20)                  1.0964         0.351683   
     22. B(H  22,C  20)                  1.0926         0.356709   
     23. B(H  23,C  20)                  1.0949         0.353676   
     24. B(C  24,C  15)                  1.5174         0.391339   
     25. B(H  25,C  24)                  1.0962         0.352042   
     26. B(H  26,C  24)                  1.0955         0.352932   
     27. B(H  27,C  24)                  1.0948         0.353819   
     28. B(H  28,C   1)                  1.1011         0.345704   
     29. B(H  29,C   4)                  1.0960         0.352199   
     30. B(H  30,C   4)                  1.0955         0.352897   
     31. B(H  31,C   5)                  1.1002         0.346912   
     32. B(H  32,C   5)                  1.0972         0.350683   
     33. A(C   1,N   0,H  14)          118.9763         0.340603   
     34. A(C   1,N   0,C  15)          120.5218         0.399532   
     35. A(H  14,N   0,C  15)          118.1922         0.353473   
     36. A(C   2,C   1,H  28)          105.8500         0.319827   
     37. A(C   4,C   1,H  28)          107.8371         0.320298   
     38. A(N   0,C   1,H  28)          104.7509         0.330943   
     39. A(N   0,C   1,C   4)          114.0504         0.371422   
     40. A(N   0,C   1,C   2)          112.3413         0.370847   
     41. A(C   2,C   1,C   4)          111.3438         0.358446   
     42. A(C   1,C   2,N  16)          116.8269         0.399909   
     43. A(O   3,C   2,N  16)          121.5118         0.476079   
     44. A(C   1,C   2,O   3)          121.6112         0.423775   
     45. A(C   1,C   4,C   5)          113.9035         0.353155   
     46. A(C   1,C   4,H  29)          107.4129         0.321274   
     47. A(H  29,C   4,H  30)          106.2345         0.288912   
     48. A(C   5,C   4,H  30)          110.1516         0.316351   
     49. A(C   1,C   4,H  30)          108.1820         0.321378   
     50. A(C   5,C   4,H  29)          110.6242         0.316249   
     51. A(C   6,C   5,H  32)          109.5885         0.328739   
     52. A(C   4,C   5,C   6)          112.5220         0.361910   
     53. A(C   4,C   5,H  32)          109.2077         0.316027   
     54. A(C   6,C   5,H  31)          108.6747         0.328153   
     55. A(H  31,C   5,H  32)          107.3493         0.287945   
     56. A(C   4,C   5,H  31)          109.3628         0.315472   
     57. A(C   5,C   6,C   7)          120.5390         0.377979   
     58. A(C   7,C   6,H   9)          118.7039         0.331318   
     59. A(C   5,C   6,H   9)          120.5284         0.330658   
     60. A(H  10,C   7,H  11)          109.0316         0.288872   
     61. A(N   8,C   7,H  11)          107.3229         0.317323   
     62. A(C   6,C   7,H  11)          112.4228         0.330124   
     63. A(N   8,C   7,H  10)          104.7153         0.316444   
     64. A(C   6,C   7,H  10)          111.4196         0.329195   
     65. A(C   6,C   7,N   8)          111.5585         0.363386   
     66. A(H  13,N   8,H  19)          109.1457         0.291207   
     67. A(H  12,N   8,H  19)          107.8980         0.291015   
     68. A(C   7,N   8,H  19)          110.0359         0.313857   
     69. A(H  12,N   8,H  13)          107.8610         0.298912   
     70. A(C   7,N   8,H  13)          110.7447         0.322648   
     71. A(C   7,N   8,H  12)          111.0723         0.322426   
     72. A(N   0,C  15,O  18)          121.1570         0.467512   
     73. A(O  18,C  15,C  24)          122.9501         0.439682   
     74. A(N   0,C  15,C  24)          115.8823         0.391417   
     75. A(H  17,N  16,C  20)          119.6497         0.338635   
     76. A(C   2,N  16,C  20)          122.8836         0.412359   
     77. A(C   2,N  16,H  17)          117.4327         0.366524   
     78. A(N  16,C  20,H  21)          110.7595         0.330003   
     79. A(H  22,C  20,H  23)          109.4172         0.289589   
     80. A(H  21,C  20,H  23)          108.7676         0.288946   
     81. A(N  16,C  20,H  23)          109.9755         0.330312   
     82. A(H  21,C  20,H  22)          109.2454         0.289332   
     83. A(N  16,C  20,H  22)          108.6572         0.330779   
     84. A(H  26,C  24,H  27)          109.6022         0.289124   
     85. A(H  25,C  24,H  27)          109.4932         0.289010   
     86. A(C  15,C  24,H  27)          113.6535         0.325861   
     87. A(H  25,C  24,H  26)          107.3809         0.288896   
     88. A(C  15,C  24,H  26)          108.3048         0.325726   
     89. A(C  15,C  24,H  25)          108.2082         0.325591   
     90. D(C   2,C   1,N   0,H  14)     70.5278         0.017766   
     91. D(H  28,C   1,N   0,H  14)   -175.0439         0.017766   
     92. D(C   2,C   1,N   0,C  15)   -127.0370         0.017766   
     93. D(C   4,C   1,N   0,H  14)    -57.3746         0.017766   
     94. D(C   4,C   1,N   0,C  15)    105.0606         0.017766   
     95. D(H  28,C   1,N   0,C  15)    -12.6086         0.017766   
     96. D(N  16,C   2,C   1,N   0)     32.5988         0.009615   
     97. D(N  16,C   2,C   1,C   4)    161.9189         0.009615   
     98. D(O   3,C   2,C   1,C   4)    -20.6181         0.009615   
     99. D(O   3,C   2,C   1,N   0)   -149.9382         0.009615   
    100. D(N  16,C   2,C   1,H  28)    -81.1571         0.009615   
    101. D(O   3,C   2,C   1,H  28)     96.3059         0.009615   
    102. D(C   5,C   4,C   1,C   2)    -62.4844         0.010430   
    103. D(C   5,C   4,C   1,H  28)   -178.1919         0.010430   
    104. D(C   5,C   4,C   1,N   0)     65.9270         0.010430   
    105. D(H  30,C   4,C   1,C   2)    174.6823         0.010430   
    106. D(H  30,C   4,C   1,N   0)    -56.9064         0.010430   
    107. D(H  30,C   4,C   1,H  28)     58.9748         0.010430   
    108. D(H  29,C   4,C   1,H  28)    -55.3181         0.010430   
    109. D(H  29,C   4,C   1,N   0)   -171.1992         0.010430   
    110. D(H  29,C   4,C   1,C   2)     60.3895         0.010430   
    111. D(H  32,C   5,C   4,H  30)     27.0770         0.008742   
    112. D(H  32,C   5,C   4,H  29)    144.2259         0.008742   
    113. D(H  32,C   5,C   4,C   1)    -94.6729         0.008742   
    114. D(H  31,C   5,C   4,H  30)    144.2797         0.008742   
    115. D(H  31,C   5,C   4,H  29)    -98.5715         0.008742   
    116. D(C   6,C   5,C   4,H  30)    -94.8474         0.008742   
    117. D(C   6,C   5,C   4,H  29)     22.3014         0.008742   
    118. D(C   6,C   5,C   4,C   1)    143.4026         0.008742   
    119. D(H  31,C   5,C   4,C   1)     22.5297         0.008742   
    120. D(C   7,C   6,C   5,C   4)    -93.4456         0.012833   
    121. D(H   9,C   6,C   5,H  32)    -40.7193         0.012833   
    122. D(H   9,C   6,C   5,H  31)   -157.7444         0.012833   
    123. D(H   9,C   6,C   5,C   4)     80.9891         0.012833   
    124. D(C   7,C   6,C   5,H  32)    144.8460         0.012833   
    125. D(C   7,C   6,C   5,H  31)     27.8210         0.012833   
    126. D(H  11,C   7,C   6,H   9)     13.1635         0.013136   
    127. D(H  11,C   7,C   6,C   5)   -172.3017         0.013136   
    128. D(H  10,C   7,C   6,H   9)    135.9020         0.013136   
    129. D(H  10,C   7,C   6,C   5)    -49.5631         0.013136   
    130. D(N   8,C   7,C   6,H   9)   -107.4583         0.013136   
    131. D(N   8,C   7,C   6,C   5)     67.0766         0.013136   
    132. D(H  19,N   8,C   7,H  11)    177.5311         0.010904   
    133. D(H  19,N   8,C   7,H  10)     61.7405         0.010904   
    134. D(H  19,N   8,C   7,C   6)    -58.9064         0.010904   
    135. D(H  13,N   8,C   7,H  11)    -61.7099         0.010904   
    136. D(H  13,N   8,C   7,H  10)   -177.5005         0.010904   
    137. D(H  13,N   8,C   7,C   6)     61.8527         0.010904   
    138. D(H  12,N   8,C   7,H  11)     58.1194         0.010904   
    139. D(H  12,N   8,C   7,H  10)    -57.6712         0.010904   
    140. D(H  12,N   8,C   7,C   6)   -178.3180         0.010904   
    141. D(C  24,C  15,N   0,H  14)     -9.8430         0.025884   
    142. D(C  24,C  15,N   0,C   1)   -172.4129         0.025884   
    143. D(O  18,C  15,N   0,H  14)    171.3085         0.025884   
    144. D(O  18,C  15,N   0,C   1)      8.7386         0.025884   
    145. D(C  20,N  16,C   2,O   3)     -2.3766         0.041049   
    146. D(C  20,N  16,C   2,C   1)    175.0891         0.041049   
    147. D(H  17,N  16,C   2,O   3)    179.7557         0.041049   
    148. D(H  17,N  16,C   2,C   1)     -2.7786         0.041049   
    149. D(H  22,C  20,N  16,H  17)      8.7422         0.016574   
    150. D(H  22,C  20,N  16,C   2)   -169.0802         0.016574   
    151. D(H  21,C  20,N  16,H  17)   -111.2604         0.016574   
    152. D(H  21,C  20,N  16,C   2)     70.9172         0.016574   
    153. D(H  23,C  20,N  16,H  17)    128.4829         0.016574   
    154. D(H  23,C  20,N  16,C   2)    -49.3395         0.016574   
    155. D(H  27,C  24,C  15,O  18)    176.4804         0.011390   
    156. D(H  27,C  24,C  15,N   0)     -2.3453         0.011390   
    157. D(H  26,C  24,C  15,O  18)     54.4294         0.011390   
    158. D(H  26,C  24,C  15,N   0)   -124.3963         0.011390   
    159. D(H  25,C  24,C  15,O  18)    -61.6775         0.011390   
    160. D(H  25,C  24,C  15,N   0)    119.4969         0.011390   
    -----------------------------------------------------------------

Number of atoms                         .... 33
Number of degrees of freedom            .... 160

         *************************************************************
         *                GEOMETRY OPTIMIZATION CYCLE   1            *
         *************************************************************
---------------------------------
CARTESIAN COORDINATES (ANGSTROEM)
---------------------------------
  N     -7.693031    0.940624   -0.057290
  C     -6.402231    1.540384   -0.309872
  C     -5.653816    1.890787    0.992083
  O     -4.862273    2.841689    1.050100
  C     -6.445967    2.741746   -1.271774
  C     -7.218276    3.980518   -0.705103
  C     -6.591151    5.282518   -1.108492
  C     -5.594092    5.955136   -0.216957
  N     -4.306846    5.148822   -0.108606
  H     -6.784055    5.707764   -2.090777
  H     -5.964250    6.029620    0.814307
  H     -5.323981    6.953619   -0.571873
  H     -3.641866    5.600826    0.523692
  H     -3.858553    5.058234   -1.022277
  H     -8.434660    1.515072    0.316793
  C     -8.033053   -0.269300   -0.640621
  N     -5.858378    1.093705    2.033809
  H     -6.520195    0.339320    1.919620
  O     -7.215828   -0.925058   -1.240746
  H     -4.516337    4.175208    0.276797
  C     -5.142864    1.239140    3.292250
  H     -5.473360    2.138330    3.825546
  H     -5.341062    0.360443    3.910578
  H     -4.067048    1.316637    3.104050
  C     -9.470973   -0.715155   -0.450977
  H     -9.934226   -0.807531   -1.440133
  H     -9.465027   -1.712558    0.002027
  H    -10.063993   -0.034157    0.168002
  H     -5.812572    0.744511   -0.790831
  H     -5.410076    3.008718   -1.510431
  H     -6.901240    2.410752   -2.211609
  H     -7.240119    3.925454    0.393457
  H     -8.257716    3.948857   -1.055018

----------------------------
CARTESIAN COORDINATES (A.U.)
----------------------------
  NO LB      ZA    FRAG     MASS         X           Y           Z
   0 N     7.0000    0    14.007  -14.537721    1.777523   -0.108263
   1 C     6.0000    0    12.011  -12.098464    2.910904   -0.585574
   2 C     6.0000    0    12.011  -10.684164    3.573069    1.874765
   3 O     8.0000    0    15.999   -9.188364    5.370015    1.984401
   4 C     6.0000    0    12.011  -12.181112    5.181148   -2.403305
   5 C     6.0000    0    12.011  -13.640566    7.522089   -1.332452
   6 C     6.0000    0    12.011  -12.455470    9.982513   -2.094746
   7 C     6.0000    0    12.011  -10.571302   11.253577   -0.409989
   8 N     7.0000    0    14.007   -8.138759    9.729863   -0.205236
   9 H     1.0000    0     1.008  -12.820005   10.786111   -3.950995
  10 H     1.0000    0     1.008  -11.270799   11.394331    1.538817
  11 H     1.0000    0     1.008  -10.060867   13.140436   -1.080684
  12 H     1.0000    0     1.008   -6.882129   10.584027    0.989635
  13 H     1.0000    0     1.008   -7.291608    9.558677   -1.931824
  14 H     1.0000    0     1.008  -15.939197    2.863071    0.598653
  15 C     6.0000    0    12.011  -15.180270   -0.508904   -1.210598
  16 N     7.0000    0    14.007  -11.070729    2.066803    3.843342
  17 H     1.0000    0     1.008  -12.321383    0.641222    3.627557
  18 O     8.0000    0    15.999  -13.635940   -1.748107   -2.344671
  19 H     1.0000    0     1.008   -8.534640    7.890000    0.523071
  20 C     6.0000    0    12.011   -9.718605    2.341635    6.221451
  21 H     1.0000    0     1.008  -10.343152    4.040858    7.229235
  22 H     1.0000    0     1.008  -10.093145    0.681138    7.389922
  23 H     1.0000    0     1.008   -7.685606    2.488083    5.865805
  24 C     6.0000    0    12.011  -17.897545   -1.351446   -0.852223
  25 H     1.0000    0     1.008  -18.772967   -1.526012   -2.721458
  26 H     1.0000    0     1.008  -17.886308   -3.236266    0.003831
  27 H     1.0000    0     1.008  -19.018191   -0.064548    0.317477
  28 H     1.0000    0     1.008  -10.984169    1.406921   -1.494454
  29 H     1.0000    0     1.008  -10.223561    5.685653   -2.854301
  30 H     1.0000    0     1.008  -13.041454    4.555661   -4.179336
  31 H     1.0000    0     1.008  -13.681842    7.418033    0.743526
  32 H     1.0000    0     1.008  -15.604821    7.462259   -1.993695

--------------------------------
INTERNAL COORDINATES (ANGSTROEM)
--------------------------------
 N      0   0   0     0.000000000000     0.00000000     0.00000000
 C      1   0   0     1.445570105325     0.00000000     0.00000000
 C      2   1   0     1.542074933022   112.34127948     0.00000000
 O      3   2   1     1.238597052296   121.61123003   210.06175169
 C      2   1   3     1.539622361746   114.05036350   232.09757097
 C      5   2   1     1.565929372042   113.90354791    65.92696098
 C      6   5   2     1.500404866431   112.52198995   143.40264803
 C      7   6   5     1.497122327472   120.53897407   266.55438834
 N      8   7   6     1.522789036242   111.55854865    67.07657059
 H      7   6   5     1.087625362374   120.52840378    80.98907588
 H      8   7   6     1.098211993271   111.41960063   310.43688601
 H      8   7   6     1.093569199542   112.42278332   187.69831831
 H      9   8   7     1.022891826865   111.07229364   181.68195249
 H      9   8   7     1.021747376321   110.74470639    61.85267300
 H      1   2   3     1.009921860345   118.97627247    70.52782693
 C      1   2   3     1.385571278177   120.52181796   232.96304028
 N      3   2   1     1.327545896628   116.82694389    32.59875918
 H     17   3   2     1.010018869885   117.43265197   357.22139184
 O     16   1   2     1.207486993028   121.15696541     8.73860043
 H      9   8   7     1.067869452471   110.03593332   301.09363793
 C     17   3   2     1.454917005110   122.88360818   175.08912806
 H     21  17   3     1.096437897035   110.75947551    70.91719554
 H     21  17   3     1.092575258849   108.65719687   190.91983857
 H     21  17   3     1.094900167312   109.97549629   310.66050587
 C     16   1   2     1.517354345781   115.88231915   187.58706692
 H     25  16   1     1.096160555533   108.20815652   119.49686676
 H     25  16   1     1.095473522330   108.30475368   235.60368345
 H     25  16   1     1.094789958072   113.65353961   357.65474279
 H      2   1   3     1.101105705588   104.75087286   114.42831731
 H      5   2   1     1.096039441040   107.41287010   188.80076551
 H      5   2   1     1.095499891181   108.18198390   303.09363902
 H      6   5   2     1.100156279912   109.36276535    22.52973284
 H      6   5   2     1.097213163150   109.20766647   265.32711541

---------------------------
INTERNAL COORDINATES (A.U.)
---------------------------
 N      0   0   0     0.000000000000     0.00000000     0.00000000
 C      1   0   0     2.731731606448     0.00000000     0.00000000
 C      2   1   0     2.914099301397   112.34127948     0.00000000
 O      3   2   1     2.340609219122   121.61123003   210.06175169
 C      2   1   3     2.909464613361   114.05036350   232.09757097
 C      5   2   1     2.959177658222   113.90354791    65.92696098
 C      6   5   2     2.835354287557   112.52198995   143.40264803
 C      7   6   5     2.829151187900   120.53897407   266.55438834
 N      8   7   6     2.877654238236   111.55854865    67.07657059
 H      7   6   5     2.055314071194   120.52840378    80.98907588
 H      8   7   6     2.075319904269   111.41960063   310.43688601
 H      8   7   6     2.066546295626   112.42278332   187.69831831
 H      9   8   7     1.932985417400   111.07229364   181.68195249
 H      9   8   7     1.930822719299   110.74470639    61.85267300
 H      1   2   3     1.908475732712   118.97627247    70.52782693
 C      1   2   3     2.618350254781   120.52181796   232.96304028
 N      3   2   1     2.508698174838   116.82694389    32.59875918
 H     17   3   2     1.908659054174   117.43265197   357.22139184
 O     16   1   2     2.281819727094   121.15696541     8.73860043
 H      9   8   7     2.017980811951   110.03593332   301.09363793
 C     17   3   2     2.749394687242   122.88360818   175.08912806
 H     21  17   3     2.071967348249   110.75947551    70.91719554
 H     21  17   3     2.064668019922   108.65719687   190.91983857
 H     21  17   3     2.069061460205   109.97549629   310.66050587
 C     16   1   2     2.867384161642   115.88231915   187.58706692
 H     25  16   1     2.071443248765   108.20815652   119.49686676
 H     25  16   1     2.070144944165   108.30475368   235.60368345
 H     25  16   1     2.068853194923   113.65353961   357.65474279
 H      2   1   3     2.080788228059   104.75087286   114.42831731
 H      5   2   1     2.071214375542   107.41287010   188.80076551
 H      5   2   1     2.070194774073   108.18198390   303.09363902
 H      6   5   2     2.078994073548   109.36276535    22.52973284
 H      6   5   2     2.073432388888   109.20766647   265.32711541

---------------------
BASIS SET INFORMATION
---------------------
There are 4 groups of distinct atoms

 Group   1 Type N   : 10s5p1d contracted to 6s2p1d pattern {511111/41/1}
 Group   2 Type C   : 10s5p1d contracted to 6s2p1d pattern {511111/41/1}
 Group   3 Type O   : 10s5p1d contracted to 6s2p1d pattern {511111/41/1}
 Group   4 Type H   : 6s1p contracted to 4s1p pattern {3111/1}

Atom   0N    basis set group =>   1
Atom   1C    basis set group =>   2
Atom   2C    basis set group =>   2
Atom   3O    basis set group =>   3
Atom   4C    basis set group =>   2
Atom   5C    basis set group =>   2
Atom   6C    basis set group =>   2
Atom   7C    basis set group =>   2
Atom   8N    basis set group =>   1
Atom   9H    basis set group =>   4
Atom  10H    basis set group =>   4
Atom  11H    basis set group =>   4
Atom  12H    basis set group =>   4
Atom  13H    basis set group =>   4
Atom  14H    basis set group =>   4
Atom  15C    basis set group =>   2
Atom  16N    basis set group =>   1
Atom  17H    basis set group =>   4
Atom  18O    basis set group =>   3
Atom  19H    basis set group =>   4
Atom  20C    basis set group =>   2
Atom  21H    basis set group =>   4
Atom  22H    basis set group =>   4
Atom  23H    basis set group =>   4
Atom  24C    basis set group =>   2
Atom  25H    basis set group =>   4
Atom  26H    basis set group =>   4
Atom  27H    basis set group =>   4
Atom  28H    basis set group =>   4
Atom  29H    basis set group =>   4
Atom  30H    basis set group =>   4
Atom  31H    basis set group =>   4
Atom  32H    basis set group =>   4
---------------------------------
AUXILIARY/J BASIS SET INFORMATION
---------------------------------
There are 4 groups of distinct atoms

 Group   1 Type N   : 12s5p4d2f1g contracted to 6s4p3d1f1g pattern {711111/2111/211/2/1}
 Group   2 Type C   : 12s5p4d2f1g contracted to 6s4p3d1f1g pattern {711111/2111/211/2/1}
 Group   3 Type O   : 12s5p4d2f1g contracted to 6s4p3d1f1g pattern {711111/2111/211/2/1}
 Group   4 Type H   : 5s2p1d contracted to 3s1p1d pattern {311/2/1}

Atom   0N    basis set group =>   1
Atom   1C    basis set group =>   2
Atom   2C    basis set group =>   2
Atom   3O    basis set group =>   3
Atom   4C    basis set group =>   2
Atom   5C    basis set group =>   2
Atom   6C    basis set group =>   2
Atom   7C    basis set group =>   2
Atom   8N    basis set group =>   1
Atom   9H    basis set group =>   4
Atom  10H    basis set group =>   4
Atom  11H    basis set group =>   4
Atom  12H    basis set group =>   4
Atom  13H    basis set group =>   4
Atom  14H    basis set group =>   4
Atom  15C    basis set group =>   2
Atom  16N    basis set group =>   1
Atom  17H    basis set group =>   4
Atom  18O    basis set group =>   3
Atom  19H    basis set group =>   4
Atom  20C    basis set group =>   2
Atom  21H    basis set group =>   4
Atom  22H    basis set group =>   4
Atom  23H    basis set group =>   4
Atom  24C    basis set group =>   2
Atom  25H    basis set group =>   4
Atom  26H    basis set group =>   4
Atom  27H    basis set group =>   4
Atom  28H    basis set group =>   4
Atom  29H    basis set group =>   4
Atom  30H    basis set group =>   4
Atom  31H    basis set group =>   4
Atom  32H    basis set group =>   4


           ************************************************************
           *        Program running with 16 parallel MPI-processes    *
           *              working on a common directory               *
           ************************************************************
------------------------------------------------------------------------------
                           ORCA GTO INTEGRAL CALCULATION
                           -- RI-GTO INTEGRALS CHOSEN --
------------------------------------------------------------------------------
------------------------------------------------------------------------------
                   ___                                                        
                  /   \      - P O W E R E D   B Y -                         
                 /     \                                                     
                 |  |  |   _    _      __       _____    __    __             
                 |  |  |  | |  | |    /  \     |  _  \  |  |  /  |          
                  \  \/   | |  | |   /    \    | | | |  |  | /  /          
                 / \  \   | |__| |  /  /\  \   | |_| |  |  |/  /          
                |  |  |   |  __  | /  /__\  \  |    /   |      \           
                |  |  |   | |  | | |   __   |  |    \   |  |\   \          
                \     /   | |  | | |  |  |  |  | |\  \  |  | \   \       
                 \___/    |_|  |_| |__|  |__|  |_| \__\ |__|  \__/        
                                                                              
                      - O R C A' S   B I G   F R I E N D -                    
                                      &                                       
                       - I N T E G R A L  F E E D E R -                       
                                                                              
 v1 FN, 2020, v2 2021                                                         
------------------------------------------------------------------------------


Reading SHARK input file opt.SHARKINP.tmp ... ok
----------------------
SHARK INTEGRAL PACKAGE
----------------------

Number of atoms                             ...     33
Number of basis functions                   ...    371
Number of shells                            ...    221
Maximum angular momentum                    ...      2
Integral batch strategy                     ... SHARK/LIBINT Hybrid
RI-J (if used) integral strategy            ... SPLIT-RIJ (Revised 2003 algorithm where possible)
Printlevel                                  ...      1
Contraction scheme used                     ... SEGMENTED contraction
Coulomb Range Separation                    ... NOT USED
Exchange Range Separation                   ... NOT USED
Finite Nucleus Model                        ... NOT USED
Auxiliary Coulomb fitting basis             ... AVAILABLE
   # of basis functions in Aux-J            ...    895
   # of shells in Aux-J                     ...    305
   Maximum angular momentum in Aux-J        ...      4
Auxiliary J/K fitting basis                 ... NOT available
Auxiliary Correlation fitting basis         ... NOT available
Auxiliary 'external' fitting basis          ... NOT available
Integral threshold                          ...     2.500000e-11
Primitive cut-off                           ...     2.500000e-12
Primitive pair pre-selection threshold      ...     2.500000e-12

Calculating pre-screening integrals         ... done (  0.0 sec) Dimension = 221
Organizing shell pair data                  ... done (  0.0 sec)
Shell pair information
Total number of shell pairs                 ...     24531
Shell pairs after pre-screening             ...     16635
Total number of primitive shell pairs       ...     64184
Primitive shell pairs kept                  ...     31764
          la=0 lb=0:   7846 shell pairs
          la=1 lb=0:   5654 shell pairs
          la=1 lb=1:    966 shell pairs
          la=2 lb=0:   1535 shell pairs
          la=2 lb=1:    547 shell pairs
          la=2 lb=2:     87 shell pairs

Calculating one electron integrals          ... done (  0.0 sec)
Calculating RI/J V-Matrix + Cholesky decomp.... done (  0.0 sec)
Calculating Nuclear repulsion               ... done (  0.0 sec) ENN=    969.824866834481 Eh

SHARK setup successfully completed in   0.3 seconds

Maximum memory used throughout the entire GTOINT-calculation: 23.7 MB


           ************************************************************
           *        Program running with 16 parallel MPI-processes    *
           *              working on a common directory               *
           ************************************************************
-------------------------------------------------------------------------------
                                 ORCA SCF
-------------------------------------------------------------------------------

------------
SCF SETTINGS
------------
Hamiltonian:
 Density Functional     Method          .... DFT(GTOs)
 Exchange Functional    Exchange        .... B88
   X-Alpha parameter    XAlpha          ....  0.666667
   Becke's b parameter  XBeta           ....  0.004200
 Correlation Functional Correlation     .... LYP
 LDA part of GGA corr.  LDAOpt          .... VWN-5
 Gradients option       PostSCFGGA      .... off
 Hybrid DFT is turned on
   Fraction HF Exchange ScalHFX         ....  0.200000
   Scaling of DF-GGA-X  ScalDFX         ....  0.720000
   Scaling of DF-GGA-C  ScalDFC         ....  0.810000
   Scaling of DF-LDA-C  ScalLDAC        ....  1.000000
   Perturbative correction              ....  0.000000
   Density functional embedding theory  .... OFF
   NL short-range parameter             ....  4.800000
 RI-approximation to the Coulomb term is turned on
   Number of AuxJ basis functions       .... 895
   RIJ-COSX (HFX calculated with COS-X)).... on


General Settings:
 Integral files         IntName         .... opt
 Hartree-Fock type      HFTyp           .... UHF
 Total Charge           Charge          ....    1
 Multiplicity           Mult            ....    2
 Number of Electrons    NEL             ....  109
 Basis Dimension        Dim             ....  371
 Nuclear Repulsion      ENuc            ....    969.8248668345 Eh

Convergence Acceleration:
 DIIS                   CNVDIIS         .... on
   Start iteration      DIISMaxIt       ....    12
   Startup error        DIISStart       ....  0.200000
   # of expansion vecs  DIISMaxEq       ....     5
   Bias factor          DIISBfac        ....   1.050
   Max. coefficient     DIISMaxC        ....  10.000
 Trust-Rad. Augm. Hess. CNVTRAH         .... auto
   Auto Start mean grad. ratio tolernc. ....  1.125000
   Auto Start start iteration           ....    20
   Auto Start num. interpolation iter.  ....    10
   Max. Number of Micro iterations      ....    16
   Max. Number of Macro iterations      .... Maxiter - #DIIS iter
   Number of Davidson start vectors     ....     2
   Converg. threshold I  (grad. norm)   ....   1.000e-05
   Converg. threshold II (energy diff.) ....   1.000e-08
   Grad. Scal. Fac. for Micro threshold ....   0.100
   Minimum threshold for Micro iter.    ....   0.010
   NR start threshold (gradient norm)   ....   0.001
   Initial trust radius                 ....   0.400
   Minimum AH scaling param. (alpha)    ....   1.000
   Maximum AH scaling param. (alpha)    .... 1000.000
   Orbital update algorithm             .... Taylor
   White noise on init. David. guess    .... on
   Maximum white noise                  ....   0.010
   Quad. conv. algorithm                .... NR
 SOSCF                  CNVSOSCF        .... off
 Level Shifting         CNVShift        .... on
   Level shift para.    LevelShift      ....    0.2500
   Turn off err/grad.   ShiftErr        ....    0.0010
 Zerner damping         CNVZerner       .... off
 Static damping         CNVDamp         .... on
   Fraction old density DampFac         ....    0.7000
   Max. Damping (<1)    DampMax         ....    0.9800
   Min. Damping (>=0)   DampMin         ....    0.0000
   Turn off err/grad.   DampErr         ....    0.1000
 Fernandez-Rico         CNVRico         .... off

SCF Procedure:
 Maximum # iterations   MaxIter         ....   125
 SCF integral mode      SCFMode         .... Direct
   Integral package                     .... SHARK and LIBINT hybrid scheme
 Reset frequency        DirectResetFreq ....    20
 Integral Threshold     Thresh          ....  2.500e-11 Eh
 Primitive CutOff       TCut            ....  2.500e-12 Eh

Convergence Tolerance:
 Convergence Check Mode ConvCheckMode   .... Total+1el-Energy
 Convergence forced     ConvForced      .... 0
 Energy Change          TolE            ....  1.000e-08 Eh
 1-El. energy change                    ....  1.000e-05 Eh
 DIIS Error             TolErr          ....  5.000e-07


Diagonalization of the overlap matrix:
Smallest eigenvalue                        ... 7.940e-04
Time for diagonalization                   ...    0.020 sec
Threshold for overlap eigenvalues          ... 1.000e-08
Number of eigenvalues below threshold      ... 0
Time for construction of square roots      ...    0.012 sec
Total time needed                          ...    0.033 sec

Time for model grid setup =    0.128 sec

------------------------------
INITIAL GUESS: MODEL POTENTIAL
------------------------------
Loading Hartree-Fock densities                     ... done
Calculating cut-offs                               ... done
Initializing the effective Hamiltonian             ... done
Setting up the integral package (SHARK)            ... done
Starting the Coulomb interaction                   ... done (   0.1 sec)
Reading the grid                                   ... done
Mapping shells                                     ... done
Starting the XC term evaluation                    ... done (   0.0 sec)
  promolecular density results
     # of electrons  =    109.980324784
     EX              =    -88.087789388
     EC              =     -3.696532369
     EX+EC           =    -91.784321758
Transforming the Hamiltonian                       ... done (   0.0 sec)
Diagonalizing the Hamiltonian                      ... done (   0.0 sec)
Back transforming the eigenvectors                 ... done (   0.0 sec)
Now organizing SCF variables                       ... done
                      ------------------
                      INITIAL GUESS DONE (   0.3 sec)
                      ------------------
-------------------
DFT GRID GENERATION
-------------------

General Integration Accuracy     IntAcc      ... 4.388
Radial Grid Type                 RadialGrid  ... OptM3 with GC (2021)
Angular Grid (max. ang.)         AngularGrid ... 4 (Lebedev-302)
Angular grid pruning method      GridPruning ... 4 (adaptive)
Weight generation scheme         WeightScheme... Becke
Basis function cutoff            BFCut       ... 1.0000e-11
Integration weight cutoff        WCut        ... 1.0000e-14
Angular grids for H and He will be reduced by one unit
Partially contracted basis set               ... off
Rotationally invariant grid construction     ... off

Total number of grid points                  ...   144477
Total number of batches                      ...     2273
Average number of points per batch           ...       63
Average number of grid points per atom       ...     4378
Time for grid setup =    0.613 sec

--------------------
COSX GRID GENERATION
--------------------

GRIDX 1
-------
General Integration Accuracy     IntAcc      ... 3.816
Radial Grid Type                 RadialGrid  ... OptM3 with GC (2021)
Angular Grid (max. ang.)         AngularGrid ... 1 (Lebedev-50)
Angular grid pruning method      GridPruning ... 4 (adaptive)
Weight generation scheme         WeightScheme... Becke
Basis function cutoff            BFCut       ... 1.0000e-11
Integration weight cutoff        WCut        ... 1.0000e-14
Angular grids for H and He will be reduced by one unit
Partially contracted basis set               ... on
Rotationally invariant grid construction     ... off

Total number of grid points                  ...    18438
Total number of batches                      ...      308
Average number of points per batch           ...       59
Average number of grid points per atom       ...      559
UseSFitting                                  ... on

GRIDX 2
-------
General Integration Accuracy     IntAcc      ... 4.020
Radial Grid Type                 RadialGrid  ... OptM3 with GC (2021)
Angular Grid (max. ang.)         AngularGrid ... 2 (Lebedev-110)
Angular grid pruning method      GridPruning ... 4 (adaptive)
Weight generation scheme         WeightScheme... Becke
Basis function cutoff            BFCut       ... 1.0000e-11
Integration weight cutoff        WCut        ... 1.0000e-14
Angular grids for H and He will be reduced by one unit
Partially contracted basis set               ... on
Rotationally invariant grid construction     ... off

Total number of grid points                  ...    38826
Total number of batches                      ...      623
Average number of points per batch           ...       62
Average number of grid points per atom       ...     1177
UseSFitting                                  ... on

GRIDX 3
-------
General Integration Accuracy     IntAcc      ... 4.338
Radial Grid Type                 RadialGrid  ... OptM3 with GC (2021)
Angular Grid (max. ang.)         AngularGrid ... 3 (Lebedev-194)
Angular grid pruning method      GridPruning ... 4 (adaptive)
Weight generation scheme         WeightScheme... Becke
Basis function cutoff            BFCut       ... 1.0000e-11
Integration weight cutoff        WCut        ... 1.0000e-14
Angular grids for H and He will be reduced by one unit
Partially contracted basis set               ... on
Rotationally invariant grid construction     ... off

Total number of grid points                  ...    84633
Total number of batches                      ...     1338
Average number of points per batch           ...       63
Average number of grid points per atom       ...     2565
UseSFitting                                  ... on

Time for X-Grid setup             =    0.835 sec

--------------
SCF ITERATIONS
--------------
ITER       Energy         Delta-E        Max-DP      RMS-DP      [F,P]     Damp
               ***  Starting incremental Fock matrix formation  ***
  0   -668.1852454892   0.000000000000 0.06065783  0.00085845  0.1236724 0.7000
  1   -668.3882024839  -0.202956994744 0.03730533  0.00058899  0.0461626 0.7000
                               ***Turning on DIIS***
  2   -668.4633817348  -0.075179250873 0.05053401  0.00090244  0.0176985 0.0000
  3   -668.5878901933  -0.124508458500 0.04295977  0.00044324  0.0229202 0.0000
  4   -668.6132519880  -0.025361794726 0.01385244  0.00014484  0.0071819 0.0000
  5   -668.6147726140  -0.001520625943 0.00595832  0.00005547  0.0046482 0.0000
  6   -668.6150792479  -0.000306633904 0.00398954  0.00003422  0.0006226 0.0000
               *** Restarting incremental Fock matrix formation ***
                                   *** Resetting DIIS ***
  7   -668.6151299702  -0.000050722300 0.00147716  0.00001844  0.0005173 0.0000
  8   -668.6151177472   0.000012222997 0.00100771  0.00001027  0.0008949 0.0000
  9   -668.6151396548  -0.000021907676 0.00029303  0.00000294  0.0001590 0.0000
 10   -668.6151397585  -0.000000103618 0.00017893  0.00000178  0.0001707 0.0000
 11   -668.6151402069  -0.000000448401 0.00004904  0.00000061  0.0000347 0.0000
 12   -668.6151402303  -0.000000023419 0.00002021  0.00000026  0.0000143 0.0000
 13   -668.6151402408  -0.000000010517 0.00000820  0.00000010  0.0000056 0.0000
 14   -668.6151402445  -0.000000003713 0.00000513  0.00000005  0.0000048 0.0000
 15   -668.6151402481  -0.000000003591 0.00000245  0.00000003  0.0000024 0.0000
                            ***DIIS convergence achieved***

               *****************************************************
               *                     SUCCESS                       *
               *           SCF CONVERGED AFTER  16 CYCLES          *
               *****************************************************

Old exchange energy                            =    -17.891535945 Eh
New exchange energy                            =    -17.891591131 Eh
Exchange energy change after final integration =     -0.000055187 Eh
Total energy after final integration           =   -668.615195431 Eh
Final COS-X integration done in                =     2.388 sec

----------------
TOTAL SCF ENERGY
----------------

Total Energy       :         -668.61519543 Eh          -18193.94443 eV

Components:
Nuclear Repulsion  :          969.82486683 Eh           26390.27628 eV
Electronic Energy  :        -1638.44006227 Eh          -44584.22071 eV
One Electron Energy:        -2818.23222817 Eh          -76687.99767 eV
Two Electron Energy:         1179.79216591 Eh           32103.77696 eV
Max COSX asymmetry :            0.00000158 Eh               0.00004 eV

Virial components:
Potential Energy   :        -1332.87234174 Eh          -36269.30031 eV
Kinetic Energy     :          664.25714631 Eh           18075.35588 eV
Virial Ratio       :            2.00656079


DFT components:
N(Alpha)           :       54.999906072984 electrons
N(Beta)            :       53.999925279957 electrons
N(Total)           :      108.999831352941 electrons
E(X)               :      -71.057240691597 Eh       
E(C)               :       -4.321501260765 Eh       
E(XC)              :      -75.378741952362 Eh       
DFET-embed. en.    :        0.000000000000 Eh       

---------------
SCF CONVERGENCE
---------------

  Last Energy change         ...    3.6165e-09  Tolerance :   1.0000e-08
  Last MAX-Density change    ...    0.0000e+00  Tolerance :   1.0000e-07
  Last RMS-Density change    ...    0.0000e+00  Tolerance :   5.0000e-09
  Last DIIS Error            ...    8.6302e-07  Tolerance :   5.0000e-07

             **** THE GBW FILE WAS UPDATED (opt.gbw) ****
             **** DENSITY opt.scfp WAS UPDATED ****
             **** ENERGY FILE WAS UPDATED (opt.en.tmp) ****
----------------------
UHF SPIN CONTAMINATION
----------------------

Warning: in a DFT calculation there is little theoretical justification to 
         calculate <S**2> as in Hartree-Fock theory. We will do it anyways
         but you should keep in mind that the values have only limited relevance

Expectation value of <S**2>     :     0.754032
Ideal value S*(S+1) for S=0.5   :     0.750000
Deviation                       :     0.004032

             **** THE GBW FILE WAS UPDATED (opt.gbw) ****
             **** DENSITY opt.scfp WAS UPDATED ****
----------------
ORBITAL ENERGIES
----------------
                 SPIN UP ORBITALS
  NO   OCC          E(Eh)            E(eV) 
   0   1.0000     -19.259979      -524.0907 
   1   1.0000     -19.219061      -522.9772 
   2   1.0000     -14.581524      -396.7834 
   3   1.0000     -14.495182      -394.4340 
   4   1.0000     -14.476212      -393.9178 
   5   1.0000     -10.432924      -283.8943 
   6   1.0000     -10.403620      -283.0969 
   7   1.0000     -10.400270      -283.0057 
   8   1.0000     -10.363154      -281.9957 
   9   1.0000     -10.356144      -281.8050 
  10   1.0000     -10.333372      -281.1853 
  11   1.0000     -10.332764      -281.1688 
  12   1.0000     -10.327070      -281.0139 
  13   1.0000     -10.288982      -279.9774 
  14   1.0000      -1.186943       -32.2984 
  15   1.0000      -1.153779       -31.3959 
  16   1.0000      -1.138063       -30.9683 
  17   1.0000      -1.065212       -28.9859 
  18   1.0000      -1.041082       -28.3293 
  19   1.0000      -0.950866       -25.8744 
  20   1.0000      -0.905076       -24.6284 
  21   1.0000      -0.864922       -23.5357 
  22   1.0000      -0.836578       -22.7644 
  23   1.0000      -0.819155       -22.2904 
  24   1.0000      -0.763584       -20.7782 
  25   1.0000      -0.742845       -20.2138 
  26   1.0000      -0.739252       -20.1161 
  27   1.0000      -0.713053       -19.4032 
  28   1.0000      -0.706631       -19.2284 
  29   1.0000      -0.697890       -18.9905 
  30   1.0000      -0.665603       -18.1120 
  31   1.0000      -0.638114       -17.3640 
  32   1.0000      -0.621026       -16.8990 
  33   1.0000      -0.602909       -16.4060 
  34   1.0000      -0.601341       -16.3633 
  35   1.0000      -0.584325       -15.9003 
  36   1.0000      -0.580224       -15.7887 
  37   1.0000      -0.569859       -15.5066 
  38   1.0000      -0.568009       -15.4563 
  39   1.0000      -0.548664       -14.9299 
  40   1.0000      -0.537599       -14.6288 
  41   1.0000      -0.527132       -14.3440 
  42   1.0000      -0.517459       -14.0808 
  43   1.0000      -0.515145       -14.0178 
  44   1.0000      -0.510076       -13.8799 
  45   1.0000      -0.502839       -13.6829 
  46   1.0000      -0.492894       -13.4123 
  47   1.0000      -0.486543       -13.2395 
  48   1.0000      -0.478128       -13.0105 
  49   1.0000      -0.465825       -12.6757 
  50   1.0000      -0.419387       -11.4121 
  51   1.0000      -0.398977       -10.8567 
  52   1.0000      -0.377168       -10.2633 
  53   1.0000      -0.364615        -9.9217 
  54   1.0000      -0.355347        -9.6695 
  55   0.0000      -0.134301        -3.6545 
  56   0.0000      -0.123262        -3.3541 
  57   0.0000      -0.101169        -2.7529 
  58   0.0000      -0.091955        -2.5022 
  59   0.0000      -0.086071        -2.3421 
  60   0.0000      -0.082112        -2.2344 
  61   0.0000      -0.075318        -2.0495 
  62   0.0000      -0.063281        -1.7220 
  63   0.0000      -0.052925        -1.4402 
  64   0.0000      -0.044088        -1.1997 
  65   0.0000      -0.040388        -1.0990 
  66   0.0000      -0.032231        -0.8771 
  67   0.0000      -0.020839        -0.5671 
  68   0.0000      -0.012298        -0.3346 
  69   0.0000      -0.004921        -0.1339 
  70   0.0000       0.010907         0.2968 
  71   0.0000       0.019182         0.5220 
  72   0.0000       0.023252         0.6327 
  73   0.0000       0.033631         0.9152 
  74   0.0000       0.040529         1.1029 
  75   0.0000       0.054795         1.4910 
  76   0.0000       0.059687         1.6242 
  77   0.0000       0.068590         1.8664 
  78   0.0000       0.072725         1.9789 
  79   0.0000       0.077111         2.0983 
  80   0.0000       0.084117         2.2889 
  81   0.0000       0.090563         2.4643 
  82   0.0000       0.093704         2.5498 
  83   0.0000       0.098643         2.6842 
  84   0.0000       0.104011         2.8303 
  85   0.0000       0.109151         2.9701 
  86   0.0000       0.114124         3.1055 
  87   0.0000       0.121092         3.2951 
  88   0.0000       0.130222         3.5435 
  89   0.0000       0.137320         3.7367 
  90   0.0000       0.138946         3.7809 
  91   0.0000       0.140948         3.8354 
  92   0.0000       0.145651         3.9634 
  93   0.0000       0.152914         4.1610 
  94   0.0000       0.158596         4.3156 
  95   0.0000       0.167666         4.5624 
  96   0.0000       0.175564         4.7773 
  97   0.0000       0.185506         5.0479 
  98   0.0000       0.193320         5.2605 
  99   0.0000       0.195989         5.3331 
 100   0.0000       0.200780         5.4635 
 101   0.0000       0.206389         5.6161 
 102   0.0000       0.210291         5.7223 
 103   0.0000       0.218639         5.9495 
 104   0.0000       0.225871         6.1463 
 105   0.0000       0.230529         6.2730 
 106   0.0000       0.235482         6.4078 
 107   0.0000       0.244173         6.6443 
 108   0.0000       0.263302         7.1648 
 109   0.0000       0.269975         7.3464 
 110   0.0000       0.281146         7.6504 
 111   0.0000       0.282823         7.6960 
 112   0.0000       0.295917         8.0523 
 113   0.0000       0.309769         8.4292 
 114   0.0000       0.311742         8.4829 
 115   0.0000       0.318751         8.6737 
 116   0.0000       0.333122         9.0647 
 117   0.0000       0.342477         9.3193 
 118   0.0000       0.344453         9.3730 
 119   0.0000       0.357993         9.7415 
 120   0.0000       0.375411        10.2155 
 121   0.0000       0.379085        10.3154 
 122   0.0000       0.389331        10.5942 
 123   0.0000       0.402048        10.9403 
 124   0.0000       0.409148        11.1335 
 125   0.0000       0.417649        11.3648 
 126   0.0000       0.427522        11.6335 
 127   0.0000       0.441890        12.0244 
 128   0.0000       0.444209        12.0875 
 129   0.0000       0.453978        12.3534 
 130   0.0000       0.479388        13.0448 
 131   0.0000       0.489439        13.3183 
 132   0.0000       0.519368        14.1327 
 133   0.0000       0.531805        14.4712 
 134   0.0000       0.559802        15.2330 
 135   0.0000       0.565337        15.3836 
 136   0.0000       0.595599        16.2071 
 137   0.0000       0.598447        16.2846 
 138   0.0000       0.638216        17.3667 
 139   0.0000       0.644391        17.5348 
 140   0.0000       0.652218        17.7477 
 141   0.0000       0.675487        18.3809 
 142   0.0000       0.688423        18.7329 
 143   0.0000       0.699256        19.0277 
 144   0.0000       0.705897        19.2084 
 145   0.0000       0.710717        19.3396 
 146   0.0000       0.719653        19.5827 
 147   0.0000       0.727127        19.7861 
 148   0.0000       0.732486        19.9320 
 149   0.0000       0.742108        20.1938 
 150   0.0000       0.756084        20.5741 
 151   0.0000       0.757211        20.6048 
 152   0.0000       0.764385        20.8000 
 153   0.0000       0.774799        21.0833 
 154   0.0000       0.781270        21.2594 
 155   0.0000       0.791643        21.5417 
 156   0.0000       0.796734        21.6802 
 157   0.0000       0.803820        21.8731 
 158   0.0000       0.811162        22.0728 
 159   0.0000       0.814066        22.1519 
 160   0.0000       0.816881        22.2285 
 161   0.0000       0.829808        22.5802 
 162   0.0000       0.835791        22.7430 
 163   0.0000       0.846603        23.0373 
 164   0.0000       0.851765        23.1777 
 165   0.0000       0.858190        23.3525 
 166   0.0000       0.866892        23.5893 
 167   0.0000       0.886404        24.1203 
 168   0.0000       0.891694        24.2642 
 169   0.0000       0.896760        24.4021 
 170   0.0000       0.912860        24.8402 
 171   0.0000       0.925875        25.1943 
 172   0.0000       0.940769        25.5996 
 173   0.0000       0.944410        25.6987 
 174   0.0000       0.964705        26.2510 
 175   0.0000       0.990365        26.9492 
 176   0.0000       1.017711        27.6933 
 177   0.0000       1.026466        27.9316 
 178   0.0000       1.048181        28.5225 
 179   0.0000       1.052574        28.6420 
 180   0.0000       1.058909        28.8144 
 181   0.0000       1.079756        29.3816 
 182   0.0000       1.080547        29.4032 
 183   0.0000       1.094738        29.7893 
 184   0.0000       1.121186        30.5090 
 185   0.0000       1.126739        30.6601 
 186   0.0000       1.157392        31.4942 
 187   0.0000       1.165403        31.7122 
 188   0.0000       1.172187        31.8968 
 189   0.0000       1.205782        32.8110 
 190   0.0000       1.215033        33.0627 
 191   0.0000       1.230914        33.4949 
 192   0.0000       1.248466        33.9725 
 193   0.0000       1.270391        34.5691 
 194   0.0000       1.278427        34.7878 
 195   0.0000       1.295820        35.2610 
 196   0.0000       1.300266        35.3820 
 197   0.0000       1.311256        35.6811 
 198   0.0000       1.317110        35.8404 
 199   0.0000       1.318203        35.8701 
 200   0.0000       1.337009        36.3819 
 201   0.0000       1.341674        36.5088 
 202   0.0000       1.366350        37.1803 
 203   0.0000       1.372131        37.3376 
 204   0.0000       1.379923        37.5496 
 205   0.0000       1.387956        37.7682 
 206   0.0000       1.397021        38.0149 
 207   0.0000       1.402003        38.1504 
 208   0.0000       1.412312        38.4310 
 209   0.0000       1.419814        38.6351 
 210   0.0000       1.432343        38.9760 
 211   0.0000       1.450040        39.4576 
 212   0.0000       1.457347        39.6564 
 213   0.0000       1.471697        40.0469 
 214   0.0000       1.479564        40.2610 
 215   0.0000       1.485934        40.4343 
 216   0.0000       1.507208        41.0132 
 217   0.0000       1.511675        41.1348 
 218   0.0000       1.522199        41.4211 
 219   0.0000       1.530869        41.6571 
 220   0.0000       1.543212        41.9929 
 221   0.0000       1.562257        42.5112 
 222   0.0000       1.572807        42.7982 
 223   0.0000       1.583150        43.0797 
 224   0.0000       1.589885        43.2630 
 225   0.0000       1.607437        43.7406 
 226   0.0000       1.618208        44.0337 
 227   0.0000       1.625343        44.2278 
 228   0.0000       1.636062        44.5195 
 229   0.0000       1.651350        44.9355 
 230   0.0000       1.660365        45.1808 
 231   0.0000       1.673193        45.5299 
 232   0.0000       1.682936        45.7950 
 233   0.0000       1.701306        46.2949 
 234   0.0000       1.710127        46.5349 
 235   0.0000       1.723465        46.8979 
 236   0.0000       1.732090        47.1326 
 237   0.0000       1.740707        47.3670 
 238   0.0000       1.756149        47.7872 
 239   0.0000       1.766355        48.0650 
 240   0.0000       1.787004        48.6269 
 241   0.0000       1.802402        49.0459 
 242   0.0000       1.820347        49.5342 
 243   0.0000       1.855594        50.4933 
 244   0.0000       1.867762        50.8244 
 245   0.0000       1.887410        51.3590 
 246   0.0000       1.893528        51.5255 
 247   0.0000       1.921924        52.2982 
 248   0.0000       1.935472        52.6669 
 249   0.0000       1.938418        52.7470 
 250   0.0000       1.955390        53.2089 
 251   0.0000       1.964850        53.4663 
 252   0.0000       1.993833        54.2550 
 253   0.0000       1.998637        54.3857 
 254   0.0000       2.007796        54.6349 
 255   0.0000       2.028371        55.1948 
 256   0.0000       2.045316        55.6559 
 257   0.0000       2.059318        56.0369 
 258   0.0000       2.075661        56.4816 
 259   0.0000       2.101915        57.1960 
 260   0.0000       2.107651        57.3521 
 261   0.0000       2.137894        58.1751 
 262   0.0000       2.155530        58.6550 
 263   0.0000       2.159422        58.7609 
 264   0.0000       2.181381        59.3584 
 265   0.0000       2.211289        60.1722 
 266   0.0000       2.218506        60.3686 
 267   0.0000       2.252259        61.2871 
 268   0.0000       2.270742        61.7900 
 269   0.0000       2.274451        61.8910 
 270   0.0000       2.279984        62.0415 
 271   0.0000       2.290419        62.3255 
 272   0.0000       2.293019        62.3962 
 273   0.0000       2.304098        62.6977 
 274   0.0000       2.318032        63.0769 
 275   0.0000       2.327108        63.3238 
 276   0.0000       2.334786        63.5327 
 277   0.0000       2.355033        64.0837 
 278   0.0000       2.373823        64.5950 
 279   0.0000       2.387580        64.9694 
 280   0.0000       2.394370        65.1541 
 281   0.0000       2.396601        65.2148 
 282   0.0000       2.417739        65.7900 
 283   0.0000       2.428770        66.0902 
 284   0.0000       2.439096        66.3712 
 285   0.0000       2.474330        67.3299 
 286   0.0000       2.516595        68.4800 
 287   0.0000       2.535494        68.9943 
 288   0.0000       2.560903        69.6857 
 289   0.0000       2.585983        70.3682 
 290   0.0000       2.589456        70.4627 
 291   0.0000       2.638802        71.8055 
 292   0.0000       2.648425        72.0673 
 293   0.0000       2.660821        72.4046 
 294   0.0000       2.675462        72.8030 
 295   0.0000       2.686949        73.1156 
 296   0.0000       2.810461        76.4765 
 297   0.0000       2.847910        77.4956 
 298   0.0000       2.915492        79.3346 
 299   0.0000       2.969289        80.7985 
 300   0.0000       3.009667        81.8972 
 301   0.0000       3.297555        89.7310 
 302   0.0000       3.310022        90.0703 
 303   0.0000       3.343353        90.9773 
 304   0.0000       3.383789        92.0776 
 305   0.0000       4.726240       128.6075 
 306   0.0000       4.836857       131.6176 
 307   0.0000       4.865748       132.4037 
 308   0.0000       4.877476       132.7229 
 309   0.0000       4.888419       133.0207 
 310   0.0000       4.892942       133.1437 
 311   0.0000       4.905536       133.4864 
 312   0.0000       4.915311       133.7524 
 313   0.0000       4.932286       134.2143 
 314   0.0000       4.952377       134.7610 
 315   0.0000       4.993790       135.8879 
 316   0.0000       5.003353       136.1482 
 317   0.0000       5.004747       136.1861 
 318   0.0000       5.096214       138.6750 
 319   0.0000       5.106967       138.9676 
 320   0.0000       5.112085       139.1069 
 321   0.0000       5.144983       140.0021 
 322   0.0000       5.159433       140.3953 
 323   0.0000       5.168536       140.6430 
 324   0.0000       5.193925       141.3339 
 325   0.0000       5.244197       142.7019 
 326   0.0000       5.261892       143.1834 
 327   0.0000       5.314830       144.6239 
 328   0.0000       5.481909       149.1703 
 329   0.0000       5.547287       150.9494 
 330   0.0000       5.601725       152.4307 
 331   0.0000       5.625013       153.0644 
 332   0.0000       5.704001       155.2138 
 333   0.0000       7.140568       194.3047 
 334   0.0000       7.166648       195.0144 
 335   0.0000       7.224666       196.5932 
 336   0.0000       8.953811       243.6456 
 337   0.0000       9.030241       245.7253 
 338   0.0000      29.469432       801.9040 
 339   0.0000      29.524761       803.4096 
 340   0.0000      29.545987       803.9872 
 341   0.0000      29.742416       809.3323 
 342   0.0000      29.820582       811.4593 
 343   0.0000      29.939834       814.7043 
 344   0.0000      29.964480       815.3749 
 345   0.0000      30.007258       816.5390 
 346   0.0000      30.122585       819.6772 
 347   0.0000      36.321592       988.3608 
 348   0.0000      36.452609       991.9259 
 349   0.0000      36.490862       992.9668 
 350   0.0000      36.496609       993.1232 
 351   0.0000      36.503592       993.3132 
 352   0.0000      36.506731       993.3987 
 353   0.0000      36.524975       993.8951 
 354   0.0000      36.533672       994.1318 
 355   0.0000      36.570411       995.1315 
 356   0.0000      36.582779       995.4680 
 357   0.0000      36.595761       995.8213 
 358   0.0000      36.628045       996.6998 
 359   0.0000      36.649529       997.2844 
 360   0.0000      36.697860       998.5996 
 361   0.0000      36.706753       998.8415 
 362   0.0000      36.748756       999.9845 
 363   0.0000      36.780739      1000.8548 
 364   0.0000      36.800192      1001.3841 
 365   0.0000      36.818272      1001.8761 
 366   0.0000      41.062675      1117.3722 
 367   0.0000      41.094478      1118.2376 
 368   0.0000      41.182022      1120.6198 
 369   0.0000      53.491897      1455.5885 
 370   0.0000      53.566024      1457.6056 

                 SPIN DOWN ORBITALS
  NO   OCC          E(Eh)            E(eV) 
   0   1.0000     -19.259974      -524.0905 
   1   1.0000     -19.219050      -522.9769 
   2   1.0000     -14.579747      -396.7351 
   3   1.0000     -14.495164      -394.4335 
   4   1.0000     -14.476174      -393.9167 
   5   1.0000     -10.432933      -283.8945 
   6   1.0000     -10.403613      -283.0967 
   7   1.0000     -10.401123      -283.0289 
   8   1.0000     -10.362991      -281.9913 
   9   1.0000     -10.342554      -281.4352 
  10   1.0000     -10.333549      -281.1902 
  11   1.0000     -10.333373      -281.1854 
  12   1.0000     -10.325617      -280.9743 
  13   1.0000     -10.288983      -279.9774 
  14   1.0000      -1.186884       -32.2967 
  15   1.0000      -1.153739       -31.3948 
  16   1.0000      -1.134739       -30.8778 
  17   1.0000      -1.065141       -28.9840 
  18   1.0000      -1.040887       -28.3240 
  19   1.0000      -0.938398       -25.5351 
  20   1.0000      -0.899482       -24.4762 
  21   1.0000      -0.863721       -23.5030 
  22   1.0000      -0.836519       -22.7628 
  23   1.0000      -0.816668       -22.2227 
  24   1.0000      -0.755444       -20.5567 
  25   1.0000      -0.741012       -20.1640 
  26   1.0000      -0.736384       -20.0380 
  27   1.0000      -0.708918       -19.2906 
  28   1.0000      -0.705373       -19.1942 
  29   1.0000      -0.692235       -18.8367 
  30   1.0000      -0.665224       -18.1017 
  31   1.0000      -0.631180       -17.1753 
  32   1.0000      -0.618816       -16.8388 
  33   1.0000      -0.600383       -16.3373 
  34   1.0000      -0.600024       -16.3275 
  35   1.0000      -0.582391       -15.8477 
  36   1.0000      -0.579351       -15.7650 
  37   1.0000      -0.567891       -15.4531 
  38   1.0000      -0.565347       -15.3839 
  39   1.0000      -0.547317       -14.8932 
  40   1.0000      -0.535304       -14.5664 
  41   1.0000      -0.524444       -14.2708 
  42   1.0000      -0.517111       -14.0713 
  43   1.0000      -0.514151       -13.9908 
  44   1.0000      -0.507999       -13.8234 
  45   1.0000      -0.501158       -13.6372 
  46   1.0000      -0.490837       -13.3564 
  47   1.0000      -0.482228       -13.1221 
  48   1.0000      -0.476371       -12.9627 
  49   1.0000      -0.464464       -12.6387 
  50   1.0000      -0.418873       -11.3981 
  51   1.0000      -0.398788       -10.8516 
  52   1.0000      -0.375800       -10.2260 
  53   1.0000      -0.363852        -9.9009 
  54   0.0000      -0.220222        -5.9925 
  55   0.0000      -0.129619        -3.5271 
  56   0.0000      -0.121418        -3.3039 
  57   0.0000      -0.100431        -2.7329 
  58   0.0000      -0.091338        -2.4854 
  59   0.0000      -0.085577        -2.3287 
  60   0.0000      -0.080906        -2.2016 
  61   0.0000      -0.073958        -2.0125 
  62   0.0000      -0.062568        -1.7026 
  63   0.0000      -0.051838        -1.4106 
  64   0.0000      -0.043499        -1.1837 
  65   0.0000      -0.039586        -1.0772 
  66   0.0000      -0.030143        -0.8202 
  67   0.0000      -0.019087        -0.5194 
  68   0.0000      -0.010779        -0.2933 
  69   0.0000      -0.001465        -0.0399 
  70   0.0000       0.012195         0.3318 
  71   0.0000       0.021213         0.5772 
  72   0.0000       0.027333         0.7438 
  73   0.0000       0.034606         0.9417 
  74   0.0000       0.043100         1.1728 
  75   0.0000       0.056402         1.5348 
  76   0.0000       0.061396         1.6707 
  77   0.0000       0.069244         1.8842 
  78   0.0000       0.073584         2.0023 
  79   0.0000       0.078501         2.1361 
  80   0.0000       0.085369         2.3230 
  81   0.0000       0.092221         2.5095 
  82   0.0000       0.093883         2.5547 
  83   0.0000       0.099650         2.7116 
  84   0.0000       0.105822         2.8796 
  85   0.0000       0.110642         3.0107 
  86   0.0000       0.114999         3.1293 
  87   0.0000       0.123294         3.3550 
  88   0.0000       0.132082         3.5941 
  89   0.0000       0.138447         3.7673 
  90   0.0000       0.139768         3.8033 
  91   0.0000       0.143408         3.9023 
  92   0.0000       0.150861         4.1051 
  93   0.0000       0.153838         4.1862 
  94   0.0000       0.162400         4.4191 
  95   0.0000       0.168486         4.5847 
  96   0.0000       0.176236         4.7956 
  97   0.0000       0.187317         5.0971 
  98   0.0000       0.194309         5.2874 
  99   0.0000       0.198015         5.3883 
 100   0.0000       0.202010         5.4970 
 101   0.0000       0.207281         5.6404 
 102   0.0000       0.211600         5.7579 
 103   0.0000       0.220050         5.9879 
 104   0.0000       0.226632         6.1670 
 105   0.0000       0.232985         6.3398 
 106   0.0000       0.239792         6.5251 
 107   0.0000       0.245281         6.6744 
 108   0.0000       0.266381         7.2486 
 109   0.0000       0.270295         7.3551 
 110   0.0000       0.282960         7.6997 
 111   0.0000       0.296945         8.0803 
 112   0.0000       0.305394         8.3102 
 113   0.0000       0.311300         8.4709 
 114   0.0000       0.314630         8.5615 
 115   0.0000       0.321873         8.7586 
 116   0.0000       0.341272         9.2865 
 117   0.0000       0.344361         9.3705 
 118   0.0000       0.347186         9.4474 
 119   0.0000       0.359445         9.7810 
 120   0.0000       0.379975        10.3396 
 121   0.0000       0.382955        10.4207 
 122   0.0000       0.392794        10.6885 
 123   0.0000       0.402934        10.9644 
 124   0.0000       0.411350        11.1934 
 125   0.0000       0.419931        11.4269 
 126   0.0000       0.428879        11.6704 
 127   0.0000       0.443681        12.0732 
 128   0.0000       0.445346        12.1185 
 129   0.0000       0.454688        12.3727 
 130   0.0000       0.480580        13.0773 
 131   0.0000       0.490532        13.3481 
 132   0.0000       0.521753        14.1976 
 133   0.0000       0.533064        14.5054 
 134   0.0000       0.560172        15.2431 
 135   0.0000       0.567070        15.4308 
 136   0.0000       0.596875        16.2418 
 137   0.0000       0.599455        16.3120 
 138   0.0000       0.640466        17.4280 
 139   0.0000       0.645583        17.5672 
 140   0.0000       0.657535        17.8924 
 141   0.0000       0.676416        18.4062 
 142   0.0000       0.689546        18.7635 
 143   0.0000       0.700177        19.0528 
 144   0.0000       0.707208        19.2441 
 145   0.0000       0.712504        19.3882 
 146   0.0000       0.720623        19.6092 
 147   0.0000       0.729446        19.8492 
 148   0.0000       0.733782        19.9672 
 149   0.0000       0.743731        20.2380 
 150   0.0000       0.757629        20.6161 
 151   0.0000       0.758867        20.6498 
 152   0.0000       0.766185        20.8490 
 153   0.0000       0.775921        21.1139 
 154   0.0000       0.783778        21.3277 
 155   0.0000       0.793605        21.5951 
 156   0.0000       0.798337        21.7239 
 157   0.0000       0.804506        21.8917 
 158   0.0000       0.812827        22.1181 
 159   0.0000       0.815887        22.2014 
 160   0.0000       0.818238        22.2654 
 161   0.0000       0.831249        22.6194 
 162   0.0000       0.837111        22.7790 
 163   0.0000       0.847272        23.0554 
 164   0.0000       0.852360        23.1939 
 165   0.0000       0.859563        23.3899 
 166   0.0000       0.868116        23.6226 
 167   0.0000       0.888534        24.1782 
 168   0.0000       0.893602        24.3162 
 169   0.0000       0.898677        24.4542 
 170   0.0000       0.915852        24.9216 
 171   0.0000       0.927117        25.2281 
 172   0.0000       0.942804        25.6550 
 173   0.0000       0.949091        25.8261 
 174   0.0000       0.965520        26.2731 
 175   0.0000       0.993912        27.0457 
 176   0.0000       1.022809        27.8320 
 177   0.0000       1.027952        27.9720 
 178   0.0000       1.048487        28.5308 
 179   0.0000       1.057475        28.7754 
 180   0.0000       1.063911        28.9505 
 181   0.0000       1.081215        29.4213 
 182   0.0000       1.082069        29.4446 
 183   0.0000       1.096304        29.8319 
 184   0.0000       1.123671        30.5767 
 185   0.0000       1.127698        30.6862 
 186   0.0000       1.160592        31.5813 
 187   0.0000       1.167516        31.7697 
 188   0.0000       1.173186        31.9240 
 189   0.0000       1.210426        32.9374 
 190   0.0000       1.216842        33.1120 
 191   0.0000       1.234821        33.6012 
 192   0.0000       1.251210        34.0472 
 193   0.0000       1.271952        34.6116 
 194   0.0000       1.278852        34.7993 
 195   0.0000       1.298186        35.3254 
 196   0.0000       1.302550        35.4442 
 197   0.0000       1.311361        35.6839 
 198   0.0000       1.319379        35.9021 
 199   0.0000       1.323168        36.0052 
 200   0.0000       1.343079        36.5470 
 201   0.0000       1.345356        36.6090 
 202   0.0000       1.368155        37.2294 
 203   0.0000       1.373319        37.3699 
 204   0.0000       1.380191        37.5569 
 205   0.0000       1.388550        37.7844 
 206   0.0000       1.398154        38.0457 
 207   0.0000       1.403686        38.1962 
 208   0.0000       1.414433        38.4887 
 209   0.0000       1.420820        38.6625 
 210   0.0000       1.439430        39.1689 
[...]
      py      :     0.978439
      dz2     :     0.045186  d :     0.201335
      dxz     :     0.035876
      dyz     :     0.023243
      dx2y2   :     0.044936
      dxy     :     0.052096
  8 N s       :     3.059782  s :     3.059782
      pz      :     1.172545  p :     3.590092
      px      :     1.181895
      py      :     1.235653
      dz2     :     0.006559  d :     0.049499
      dxz     :     0.015511
      dyz     :     0.006052
      dx2y2   :     0.010703
      dxy     :     0.010674
  9 H s       :     0.855951  s :     0.855951
      pz      :     0.048269  p :     0.091701
      px      :     0.020680
      py      :     0.022752
 10 H s       :     0.853510  s :     0.853510
      pz      :     0.046911  p :     0.081016
      px      :     0.019017
      py      :     0.015087
 11 H s       :     0.860954  s :     0.860954
      pz      :     0.020961  p :     0.081600
      px      :     0.014668
      py      :     0.045971
 12 H s       :     0.758518  s :     0.758518
      pz      :     0.048002  p :     0.132423
      px      :     0.045873
      py      :     0.038548
 13 H s       :     0.758500  s :     0.758500
      pz      :     0.066340  p :     0.132515
      px      :     0.037386
      py      :     0.028789
 14 H s       :     0.768643  s :     0.768643
      pz      :     0.049919  p :     0.147418
      px      :     0.054121
      py      :     0.043377
 15 C s       :     2.851697  s :     2.851697
      pz      :     0.839445  p :     2.760021
      px      :     1.019662
      py      :     0.900914
      dz2     :     0.077455  d :     0.482513
      dxz     :     0.070997
      dyz     :     0.090234
      dx2y2   :     0.158085
      dxy     :     0.085743
 16 N s       :     3.058142  s :     3.058142
      pz      :     1.196242  p :     3.772649
      px      :     1.316843
      py      :     1.259565
      dz2     :     0.025511  d :     0.082631
      dxz     :     0.016491
      dyz     :     0.023930
      dx2y2   :     0.006656
      dxy     :     0.010043
 17 H s       :     0.755565  s :     0.755565
      pz      :     0.025271  p :     0.148000
      px      :     0.061022
      py      :     0.061707
 18 O s       :     3.580666  s :     3.580666
      pz      :     1.413032  p :     4.535115
      px      :     1.566224
      py      :     1.555858
      dz2     :     0.004338  d :     0.033335
      dxz     :     0.008595
      dyz     :     0.006363
      dx2y2   :     0.005254
      dxy     :     0.008786
 19 H s       :     0.687228  s :     0.687228
      pz      :     0.042232  p :     0.220597
      px      :     0.028180
      py      :     0.150184
 20 C s       :     2.855310  s :     2.855310
      pz      :     0.894915  p :     2.959702
      px      :     1.009356
      py      :     1.055431
      dz2     :     0.036843  d :     0.153883
      dxz     :     0.039385
      dyz     :     0.038000
      dx2y2   :     0.031270
      dxy     :     0.008384
 21 H s       :     0.878412  s :     0.878412
      pz      :     0.022816  p :     0.079754
      px      :     0.018813
      py      :     0.038125
 22 H s       :     0.875774  s :     0.875774
      pz      :     0.023923  p :     0.080035
      px      :     0.016669
      py      :     0.039443
 23 H s       :     0.870919  s :     0.870919
      pz      :     0.014023  p :     0.081042
      px      :     0.049671
      py      :     0.017348
 24 C s       :     2.866807  s :     2.866807
      pz      :     1.038490  p :     3.057683
      px      :     0.981094
      py      :     1.038098
      dz2     :     0.018136  d :     0.105006
      dxz     :     0.022763
      dyz     :     0.012849
      dx2y2   :     0.030721
      dxy     :     0.020537
 25 H s       :     0.852856  s :     0.852856
      pz      :     0.042864  p :     0.082372
      px      :     0.022186
      py      :     0.017322
 26 H s       :     0.852955  s :     0.852955
      pz      :     0.019776  p :     0.082362
      px      :     0.015431
      py      :     0.047155
 27 H s       :     0.882743  s :     0.882743
      pz      :     0.029738  p :     0.081634
      px      :     0.025931
      py      :     0.025965
 28 H s       :     0.816506  s :     0.816506
      pz      :     0.024840  p :     0.089183
      px      :     0.022613
      py      :     0.041729
 29 H s       :     0.871713  s :     0.871713
      pz      :     0.020342  p :     0.082098
      px      :     0.044160
      py      :     0.017596
 30 H s       :     0.856777  s :     0.856777
      pz      :     0.040283  p :     0.082538
      px      :     0.022299
      py      :     0.019956
 31 H s       :     0.863269  s :     0.863269
      pz      :     0.047938  p :     0.081099
      px      :     0.017311
      py      :     0.015850
 32 H s       :     0.858612  s :     0.858612
      pz      :     0.020570  p :     0.081602
      px      :     0.044741
      py      :     0.016291

SPIN
  0 N s       :     0.000066  s :     0.000066
      pz      :     0.000834  p :     0.001305
      px      :    -0.000006
      py      :     0.000477
      dz2     :     0.000001  d :     0.000117
      dxz     :    -0.000000
      dyz     :     0.000003
      dx2y2   :     0.000075
      dxy     :     0.000038
  1 C s       :     0.000495  s :     0.000495
      pz      :     0.001092  p :     0.004648
      px      :     0.000363
      py      :     0.003193
      dz2     :     0.000722  d :     0.000865
      dxz     :    -0.000016
      dyz     :    -0.000052
      dx2y2   :     0.000109
      dxy     :     0.000101
  2 C s       :     0.000089  s :     0.000089
      pz      :    -0.000050  p :    -0.000050
      px      :    -0.000022
      py      :     0.000022
      dz2     :    -0.000005  d :     0.000149
      dxz     :     0.000021
      dyz     :     0.000010
      dx2y2   :     0.000045
      dxy     :     0.000078
  3 O s       :     0.000097  s :     0.000097
      pz      :    -0.000041  p :     0.000314
      px      :     0.000184
      py      :     0.000171
      dz2     :     0.000001  d :    -0.000002
      dxz     :    -0.000000
      dyz     :    -0.000001
      dx2y2   :    -0.000003
      dxy     :     0.000001
  4 C s       :     0.013447  s :     0.013447
      pz      :     0.004504  p :     0.039108
      px      :     0.002981
      py      :     0.031623
      dz2     :    -0.000195  d :    -0.000312
      dxz     :    -0.000165
      dyz     :     0.000240
      dx2y2   :    -0.000271
      dxy     :     0.000079
  5 C s       :    -0.003326  s :    -0.003326
      pz      :    -0.004210  p :    -0.020266
      px      :    -0.004847
      py      :    -0.011209
      dz2     :     0.002628  d :     0.031133
      dxz     :     0.000727
      dyz     :     0.002677
      dx2y2   :     0.015562
      dxy     :     0.009539
  6 C s       :     0.026215  s :     0.026215
      pz      :     0.113252  p :     0.775144
      px      :     0.431368
      py      :     0.230525
      dz2     :    -0.000765  d :    -0.003824
      dxz     :    -0.001098
      dyz     :    -0.000729
      dx2y2   :     0.000355
      dxy     :    -0.001586
  7 C s       :    -0.002059  s :    -0.002059
      pz      :    -0.007442  p :    -0.011219
      px      :     0.000801
      py      :    -0.004578
      dz2     :     0.011994  d :     0.041088
      dxz     :     0.004288
      dyz     :     0.006037
      dx2y2   :     0.015603
      dxy     :     0.003165
  8 N s       :     0.021469  s :     0.021469
      pz      :     0.003127  p :     0.032946
      px      :     0.020932
      py      :     0.008888
      dz2     :    -0.000011  d :     0.000177
      dxz     :    -0.000010
      dyz     :     0.000110
      dx2y2   :     0.000109
      dxy     :    -0.000022
  9 H s       :    -0.020442  s :    -0.020442
      pz      :     0.005883  p :     0.025673
      px      :     0.012492
      py      :     0.007297
 10 H s       :     0.018546  s :     0.018546
      pz      :    -0.000412  p :    -0.000553
      px      :     0.000001
      py      :    -0.000142
 11 H s       :     0.001068  s :     0.001068
      pz      :    -0.000314  p :    -0.000732
      px      :    -0.000279
      py      :    -0.000139
 12 H s       :     0.002877  s :     0.002877
      pz      :     0.000361  p :     0.001960
      px      :     0.001409
      py      :     0.000189
 13 H s       :    -0.000656  s :    -0.000656
      pz      :     0.000414  p :     0.002011
      px      :     0.001028
      py      :     0.000569
 14 H s       :     0.000017  s :     0.000017
      pz      :     0.000076  p :     0.000056
      px      :    -0.000003
      py      :    -0.000016
 15 C s       :     0.000018  s :     0.000018
      pz      :     0.000247  p :     0.000229
      px      :     0.000050
      py      :    -0.000069
      dz2     :     0.000103  d :     0.000118
      dxz     :     0.000000
      dyz     :    -0.000000
      dx2y2   :     0.000013
      dxy     :     0.000002
 16 N s       :     0.000021  s :     0.000021
      pz      :     0.000059  p :     0.000691
      px      :     0.000366
      py      :     0.000266
      dz2     :    -0.000006  d :    -0.000014
      dxz     :    -0.000003
      dyz     :    -0.000001
      dx2y2   :    -0.000001
      dxy     :    -0.000003
 17 H s       :    -0.000027  s :    -0.000027
      pz      :    -0.000001  p :     0.000020
      px      :     0.000002
      py      :     0.000019
 18 O s       :     0.000013  s :     0.000013
      pz      :     0.000280  p :     0.000354
      px      :    -0.000021
      py      :     0.000096
      dz2     :     0.000002  d :     0.000002
      dxz     :     0.000000
      dyz     :     0.000000
      dx2y2   :     0.000000
      dxy     :    -0.000000
 19 H s       :    -0.000691  s :    -0.000691
      pz      :     0.000047  p :     0.001042
      px      :     0.000521
      py      :     0.000474
 20 C s       :     0.000003  s :     0.000003
      pz      :    -0.000025  p :    -0.000044
      px      :    -0.000011
      py      :    -0.000008
      dz2     :     0.000006  d :     0.000039
      dxz     :     0.000007
      dyz     :     0.000013
      dx2y2   :     0.000013
      dxy     :     0.000000
 21 H s       :     0.000036  s :     0.000036
      pz      :    -0.000001  p :    -0.000002
      px      :    -0.000000
      py      :    -0.000001
 22 H s       :     0.000001  s :     0.000001
      pz      :    -0.000001  p :    -0.000001
      px      :    -0.000000
      py      :    -0.000000
 23 H s       :     0.000036  s :     0.000036
      pz      :    -0.000001  p :    -0.000002
      px      :    -0.000001
      py      :    -0.000000
 24 C s       :    -0.000001  s :    -0.000001
      pz      :    -0.000001  p :    -0.000011
      px      :    -0.000007
      py      :    -0.000003
      dz2     :     0.000002  d :     0.000018
      dxz     :     0.000015
      dyz     :     0.000000
      dx2y2   :     0.000003
      dxy     :    -0.000001
 25 H s       :     0.000037  s :     0.000037
      pz      :    -0.000001  p :    -0.000001
      px      :    -0.000000
      py      :    -0.000000
 26 H s       :     0.000009  s :     0.000009
      pz      :    -0.000000  p :    -0.000001
      px      :    -0.000000
      py      :    -0.000000
 27 H s       :     0.000009  s :     0.000009
      pz      :    -0.000000  p :    -0.000001
      px      :    -0.000000
      py      :    -0.000000
 28 H s       :     0.001159  s :     0.001159
      pz      :     0.000195  p :     0.000281
      px      :    -0.000002
      py      :     0.000088
 29 H s       :    -0.000824  s :    -0.000824
      pz      :     0.000270  p :     0.001209
      px      :     0.001100
      py      :    -0.000161
 30 H s       :    -0.000865  s :    -0.000865
      pz      :     0.000113  p :     0.001220
      px      :     0.000062
      py      :     0.001045
 31 H s       :     0.006381  s :     0.006381
      pz      :    -0.000219  p :    -0.000694
      px      :     0.000067
      py      :    -0.000542
 32 H s       :     0.013534  s :     0.013534
      pz      :    -0.000010  p :    -0.000942
      px      :    -0.000344
      py      :    -0.000588


                      *****************************
                      * MAYER POPULATION ANALYSIS *
                      *****************************

  NA   - Mulliken gross atomic population
  ZA   - Total nuclear charge
  QA   - Mulliken gross atomic charge
  VA   - Mayer's total valence
  BVA  - Mayer's bonded valence
  FA   - Mayer's free valence

  ATOM       NA         ZA         QA         VA         BVA        FA
  0 N      7.1839     7.0000    -0.1839     3.1948     3.1948     0.0000
  1 C      6.0875     6.0000    -0.0875     4.0622     4.0622    -0.0000
  2 C      5.9190     6.0000     0.0810     4.0651     4.0651     0.0000
  3 O      8.3643     8.0000    -0.3643     2.0626     2.0626     0.0000
  4 C      6.2864     6.0000    -0.2864     3.9377     3.9343     0.0034
  5 C      6.2858     6.0000    -0.2858     3.9807     3.9788     0.0020
  6 C      6.0922     6.0000    -0.0922     3.8167     3.0949     0.7218
  7 C      6.2872     6.0000    -0.2872     3.8772     3.8747     0.0025
  8 N      7.3807     7.0000    -0.3807     3.4491     3.4461     0.0030
  9 H      0.8337     1.0000     0.1663     0.9684     0.9658     0.0026
 10 H      0.7921     1.0000     0.2079     0.9479     0.9473     0.0006
 11 H      0.7967     1.0000     0.2033     0.9445     0.9445     0.0000
 12 H      0.6886     1.0000     0.3114     0.9078     0.9078     0.0000
 13 H      0.6873     1.0000     0.3127     0.9062     0.9062     0.0000
 14 H      0.7620     1.0000     0.2380     0.9601     0.9601     0.0000
 15 C      5.8126     6.0000     0.1874     3.9833     3.9833     0.0000
 16 N      7.0662     7.0000    -0.0662     3.3278     3.3278     0.0000
 17 H      0.7353     1.0000     0.2647     0.9504     0.9504     0.0000
 18 O      8.2632     8.0000    -0.2632     2.1872     2.1872     0.0000
 19 H      0.6628     1.0000     0.3372     0.9376     0.9376     0.0000
 20 C      6.4245     6.0000    -0.4245     3.8992     3.8992     0.0000
 21 H      0.8174     1.0000     0.1826     0.9504     0.9504     0.0000
 22 H      0.8294     1.0000     0.1706     0.9623     0.9623     0.0000
 23 H      0.8098     1.0000     0.1902     0.9529     0.9529     0.0000
 24 C      6.5378     6.0000    -0.5378     3.8350     3.8350     0.0000
 25 H      0.7986     1.0000     0.2014     0.9554     0.9554     0.0000
 26 H      0.7960     1.0000     0.2040     0.9551     0.9551     0.0000
 27 H      0.8527     1.0000     0.1473     0.9705     0.9705     0.0000
 28 H      0.7861     1.0000     0.2139     0.9522     0.9522     0.0000
 29 H      0.8611     1.0000     0.1389     0.9673     0.9673     0.0000
 30 H      0.8209     1.0000     0.1791     0.9639     0.9639     0.0000
 31 H      0.8512     1.0000     0.1488     0.9705     0.9704     0.0001
 32 H      0.8271     1.0000     0.1729     0.9587     0.9584     0.0003

  Mayer bond orders larger than 0.100000
B(  0-N ,  1-C ) :   1.0098 B(  0-N , 14-H ) :   0.9228 B(  0-N , 15-C ) :   1.0956 
B(  1-C ,  2-C ) :   0.9336 B(  1-C ,  4-C ) :   0.9566 B(  1-C , 18-O ) :   0.1329 
B(  1-C , 28-H ) :   0.9138 B(  2-C ,  3-O ) :   1.6585 B(  2-C , 16-N ) :   1.3595 
B(  3-O , 19-H ) :   0.2051 B(  4-C ,  5-C ) :   0.9231 B(  4-C , 29-H ) :   0.9667 
B(  4-C , 30-H ) :   0.9660 B(  5-C ,  6-C ) :   1.0242 B(  5-C , 31-H ) :   0.9699 
B(  5-C , 32-H ) :   0.9521 B(  6-C ,  7-C ) :   1.0203 B(  6-C ,  9-H ) :   0.9705 
B(  7-C ,  8-N ) :   0.9030 B(  7-C , 10-H ) :   0.9461 B(  7-C , 11-H ) :   0.9518 
B(  8-N , 12-H ) :   0.9000 B(  8-N , 13-H ) :   0.9020 B(  8-N , 19-H ) :   0.7160 
B( 15-C , 18-O ) :   1.9346 B( 15-C , 24-C ) :   0.9166 B( 16-N , 17-H ) :   0.9073 
B( 16-N , 20-C ) :   0.9574 B( 20-C , 21-H ) :   0.9507 B( 20-C , 22-H ) :   0.9587 
B( 20-C , 23-H ) :   0.9494 B( 24-C , 25-H ) :   0.9464 B( 24-C , 26-H ) :   0.9482 
B( 24-C , 27-H ) :   0.9723 

-------
TIMINGS
-------

Total SCF time: 0 days 0 hours 0 min 18 sec 

Total time                  ....      18.313 sec
Sum of individual times     ....      17.480 sec  ( 95.4%)

Fock matrix formation       ....      15.121 sec  ( 82.6%)
  Split-RI-J                ....       1.304 sec  (  8.6% of F)
  Chain of spheres X        ....      10.150 sec  ( 67.1% of F)
  XC integration            ....       3.319 sec  ( 21.9% of F)
    Basis function eval.    ....       0.342 sec  ( 10.3% of XC)
    Density eval.           ....       0.493 sec  ( 14.9% of XC)
    XC-Functional eval.     ....       0.073 sec  (  2.2% of XC)
    XC-Potential eval.      ....       0.300 sec  (  9.1% of XC)
Diagonalization             ....       0.558 sec  (  3.0%)
Density matrix formation    ....       0.042 sec  (  0.2%)
Population analysis         ....       0.069 sec  (  0.4%)
Initial guess               ....       0.060 sec  (  0.3%)
Orbital Transformation      ....       0.000 sec  (  0.0%)
Orbital Orthonormalization  ....       0.043 sec  (  0.2%)
DIIS solution               ....       0.287 sec  (  1.6%)
Grid generation             ....       1.342 sec  (  7.3%)

Maximum memory used throughout the entire SCF-calculation: 86.2 MB

-------------------------   --------------------
FINAL SINGLE POINT ENERGY      -668.616913377576
-------------------------   --------------------

                                *** OPTIMIZATION RUN DONE ***

                            ***************************************
                            *     ORCA property calculations      *
                            ***************************************

                                    ---------------------
                                    Active property flags
                                    ---------------------
   (+) Dipole Moment


------------------------------------------------------------------------------
                       ORCA ELECTRIC PROPERTIES CALCULATION
------------------------------------------------------------------------------

Dipole Moment Calculation                       ... on
Quadrupole Moment Calculation                   ... off
Polarizability Calculation                      ... off
GBWName                                         ... opt.gbw
Electron density                                ... opt.scfp
The origin for moment calculation is the CENTER OF MASS  = (-12.152510,  4.155448  0.213327)

-------------
DIPOLE MOMENT
-------------
                                X             Y             Z
Electronic contribution:      1.74971      -4.75753      -1.45006
Nuclear contribution   :     -0.77639       8.30757       2.27150
                        -----------------------------------------
Total Dipole Moment    :      0.97332       3.55004       0.82144
                        -----------------------------------------
Magnitude (a.u.)       :      3.77159
Magnitude (Debye)      :      9.58662



--------------------
Rotational spectrum 
--------------------
 
Rotational constants in cm-1:     0.028669     0.013617     0.010295 
Rotational constants in MHz :   859.469821   408.228366   308.643980 

 Dipole components along the rotational axes: 
x,y,z [a.u.] :     3.637841    -0.156516     0.983109 
x,y,z [Debye]:     9.246657    -0.397831     2.498864 

 

Timings for individual modules:

Sum of individual times         ...      481.996 sec (=   8.033 min)
GTO integral calculation        ...       37.781 sec (=   0.630 min)   7.8 %
SCF iterations                  ...      329.282 sec (=   5.488 min)  68.3 %
SCF Gradient evaluation         ...      114.251 sec (=   1.904 min)  23.7 %
Geometry relaxation             ...        0.682 sec (=   0.011 min)   0.1 %
                             ****ORCA TERMINATED NORMALLY****
TOTAL RUN TIME: 0 days 0 hours 8 minutes 34 seconds 797 msec
