
                                 *****************
                                 * O   R   C   A *
                                 *****************

                                            #,                                       
                                            ###                                      
                                            ####                                     
                                            #####                                    
                                            ######                                   
                                           ########,                                 
                                     ,,################,,,,,                         
                               ,,#################################,,                 
                          ,,##########################################,,             
                       ,#########################################, ''#####,          
                    ,#############################################,,   '####,        
                  ,##################################################,,,,####,       
                ,###########''''           ''''###############################       
              ,#####''   ,,,,##########,,,,          '''####'''          '####       
            ,##' ,,,,###########################,,,                        '##       
           ' ,,###''''                  '''############,,,                           
         ,,##''                                '''############,,,,        ,,,,,,###''
      ,#''                                            '''#######################'''  
     '                                                          ''''####''''         
             ,#######,   #######,   ,#######,      ##                                
            ,#'     '#,  ##    ##  ,#'     '#,    #''#        ######   ,####,        
            ##       ##  ##   ,#'  ##            #'  '#       #        #'  '#        
            ##       ##  #######   ##           ,######,      #####,   #    #        
            '#,     ,#'  ##    ##  '#,     ,#' ,#      #,         ##   #,  ,#        
             '#######'   ##     ##  '#######'  #'      '#     #####' # '####'        



                  #######################################################
                  #                        -***-                        #
                  #          Department of theory and spectroscopy      #
                  #    Directorship and core code : Frank Neese         #
                  #        Max Planck Institute fuer Kohlenforschung    #
                  #                Kaiser Wilhelm Platz 1               #
                  #                 D-45470 Muelheim/Ruhr               #
                  #                      Germany                        #
                  #                                                     #
                  #                  All rights reserved                #
                  #                        -***-                        #
                  #######################################################


                         Program Version 5.0.4 -  RELEASE  -


 With contributions from (in alphabetic order):
   Daniel Aravena         : Magnetic Suceptibility
   Michael Atanasov       : Ab Initio Ligand Field Theory (pilot matlab implementation)
   Alexander A. Auer      : GIAO ZORA, VPT2 properties, NMR spectrum
   Ute Becker             : Parallelization
   Giovanni Bistoni       : ED, misc. LED, open-shell LED, HFLD
   Martin Brehm           : Molecular dynamics
   Dmytro Bykov           : SCF Hessian
   Vijay G. Chilkuri      : MRCI spin determinant printing, contributions to CSF-ICE
   Dipayan Datta          : RHF DLPNO-CCSD density
   Achintya Kumar Dutta   : EOM-CC, STEOM-CC
   Dmitry Ganyushin       : Spin-Orbit,Spin-Spin,Magnetic field MRCI
   Miquel Garcia          : C-PCM and meta-GGA Hessian, CC/C-PCM, Gaussian charge scheme
   Yang Guo               : DLPNO-NEVPT2, F12-NEVPT2, CIM, IAO-localization
   Andreas Hansen         : Spin unrestricted coupled pair/coupled cluster methods
   Benjamin Helmich-Paris : MC-RPA, TRAH-SCF, COSX integrals
   Lee Huntington         : MR-EOM, pCC
   Robert Izsak           : Overlap fitted RIJCOSX, COSX-SCS-MP3, EOM
   Marcus Kettner         : VPT2
   Christian Kollmar      : KDIIS, OOCD, Brueckner-CCSD(T), CCSD density, CASPT2, CASPT2-K
   Simone Kossmann        : Meta GGA functionals, TD-DFT gradient, OOMP2, MP2 Hessian
   Martin Krupicka        : Initial AUTO-CI
   Lucas Lang             : DCDCAS
   Marvin Lechner         : AUTO-CI (C++ implementation), FIC-MRCC
   Dagmar Lenk            : GEPOL surface, SMD
   Dimitrios Liakos       : Extrapolation schemes; Compound Job, initial MDCI parallelization
   Dimitrios Manganas     : Further ROCIS development; embedding schemes
   Dimitrios Pantazis     : SARC Basis sets
   Anastasios Papadopoulos: AUTO-CI, single reference methods and gradients
   Taras Petrenko         : DFT Hessian,TD-DFT gradient, ASA, ECA, R-Raman, ABS, FL, XAS/XES, NRVS
   Peter Pinski           : DLPNO-MP2, DLPNO-MP2 Gradient
   Christoph Reimann      : Effective Core Potentials
   Marius Retegan         : Local ZFS, SOC
   Christoph Riplinger    : Optimizer, TS searches, QM/MM, DLPNO-CCSD(T), (RO)-DLPNO pert. Triples
   Tobias Risthaus        : Range-separated hybrids, TD-DFT gradient, RPA, STAB
   Michael Roemelt        : Original ROCIS implementation
   Masaaki Saitow         : Open-shell DLPNO-CCSD energy and density
   Barbara Sandhoefer     : DKH picture change effects
   Avijit Sen             : IP-ROCIS
   Kantharuban Sivalingam : CASSCF convergence, NEVPT2, FIC-MRCI
   Bernardo de Souza      : ESD, SOC TD-DFT
   Georgi Stoychev        : AutoAux, RI-MP2 NMR, DLPNO-MP2 response
   Willem Van den Heuvel  : Paramagnetic NMR
   Boris Wezisla          : Elementary symmetry handling
   Frank Wennmohs         : Technical directorship


 We gratefully acknowledge several colleagues who have allowed us to
 interface, adapt or use parts of their codes:
   Stefan Grimme, W. Hujo, H. Kruse, P. Pracht,  : VdW corrections, initial TS optimization,
                  C. Bannwarth, S. Ehlert          DFT functionals, gCP, sTDA/sTD-DF
   Ed Valeev, F. Pavosevic, A. Kumar             : LibInt (2-el integral package), F12 methods
   Garnet Chan, S. Sharma, J. Yang, R. Olivares  : DMRG
   Ulf Ekstrom                                   : XCFun DFT Library
   Mihaly Kallay                                 : mrcc  (arbitrary order and MRCC methods)
   Jiri Pittner, Ondrej Demel                    : Mk-CCSD
   Frank Weinhold                                : gennbo (NPA and NBO analysis)
   Christopher J. Cramer and Donald G. Truhlar   : smd solvation model
   Lars Goerigk                                  : TD-DFT with DH, B97 family of functionals
   V. Asgeirsson, H. Jonsson                     : NEB implementation
   FAccTs GmbH                                   : IRC, NEB, NEB-TS, DLPNO-Multilevel, CI-OPT
                                                   MM, QMMM, 2- and 3-layer-ONIOM, Crystal-QMMM,
                                                   LR-CPCM, SF, NACMEs, symmetry and pop. for TD-DFT,
                                                   nearIR, NL-DFT gradient (VV10), updates on ESD,
                                                   ML-optimized integration grids
   S Lehtola, MJT Oliveira, MAL Marques          : LibXC Library
   Liviu Ungur et al                             : ANISO software


 Your calculation uses the libint2 library for the computation of 2-el integrals
 For citations please refer to: http://libint.valeyev.net

 Your ORCA version has been built with support for libXC version: 5.1.0
 For citations please refer to: https://tddft.org/programs/libxc/

 This ORCA versions uses:
   CBLAS   interface :  Fast vector & matrix operations
   LAPACKE interface :  Fast linear algebra routines
   SCALAPACK package :  Parallel linear algebra routines
   Shared memory     :  Shared parallel matrices
   BLAS/LAPACK       :  OpenBLAS 0.3.15  USE64BITINT DYNAMIC_ARCH NO_AFFINITY Zen SINGLE_THREADED
        Core in use  :  Zen
   Copyright (c) 2011-2014, The OpenBLAS Project




***************************************
The coordinates will be read from file: opt.xyz
***************************************


================================================================================

----- Orbital basis set information -----
Your calculation utilizes the basis: EPR-II
   V. Barone, in Recent Advances in Density Functional Methods, Part 1 (ed. D. P. Chong), World Scientific, Singapore, 1995, p. 287.

----- AuxJ basis set information -----
Your calculation utilizes the AutoAux generation procedure.
  G. L. Stoychev, A. A. Auer, F. Neese, J. Chem. Theory Comput. 13, 554 (2017)

----- AuxC basis set information -----
Your calculation utilizes the AutoAux generation procedure.
  G. L. Stoychev, A. A. Auer, F. Neese, J. Chem. Theory Comput. 13, 554 (2017)

----- AuxJK basis set information -----
Your calculation utilizes the AutoAux generation procedure.
  G. L. Stoychev, A. A. Auer, F. Neese, J. Chem. Theory Comput. 13, 554 (2017)

================================================================================
                                        WARNINGS
                       Please study these warnings very carefully!
================================================================================


WARNING: your system is open-shell and RHF/RKS was chosen
  ===> : WILL SWITCH to UHF/UKS


INFO   : the flag for use of the SHARK integral package has been found!

================================================================================
                                       INPUT FILE
================================================================================
NAME = epr_info.inp
|  1> ! B3LYP EPR-II AUTOAUX
|  2> %pal nprocs 16 end
|  3> *XYZFile 1 2 opt.xyz
|  4> %EPRNMR
|  5>         GTENSOR   TRUE
|  6>         NUCLEI    = 9,11,12,13,14,15,16,17,18,24 {SHIFT, AISO, ADIP, AORB}
|  7>         ORI       GIAO
|  8> END
|  9> 
| 10>                          ****END OF INPUT****
================================================================================

                       ****************************
                       * Single Point Calculation *
                       ****************************

---------------------------------
CARTESIAN COORDINATES (ANGSTROEM)
---------------------------------
  N     -7.851626    0.799444    0.170181
  C     -6.390469    0.844836    0.182893
  C     -5.965356    0.818841    1.676719
  O     -6.601538    1.465768    2.511323
  C     -5.817132    2.080472   -0.467175
  C     -6.470127    3.415446   -0.264898
  C     -5.566508    4.587081   -0.705116
  C     -6.297812    5.918138   -0.538914
  N     -5.417382    7.081994   -1.013077
  H     -5.060965    1.958819   -1.237713
  H     -6.754472    3.532009    0.789594
  H     -7.405948    3.454877   -0.847108
  H     -5.284452    4.449332   -1.757662
  H     -4.645374    4.588312   -0.107926
  H     -6.544967    6.132026    0.503548
  H     -7.209766    5.968579   -1.138315
  H     -5.888980    7.986498   -0.913089
  H     -5.164230    6.963603   -1.999371
  H     -8.315898    0.853298    1.066453
  C     -8.564552    0.838758   -0.999714
  N     -4.853318    0.089083    1.952542
  H     -4.449509   -0.459995    1.208327
  O     -8.007595    0.946558   -2.092879
  H     -4.545030    7.118187   -0.476113
  C     -4.288345   -0.033807    3.295923
  H     -4.366477   -1.063815    3.656948
  H     -3.236744    0.268291    3.299944
  H     -4.854967    0.618495    3.960012
  C    -10.076216    0.711913   -0.860585
  H    -10.369793   -0.282560   -1.210530
  H    -10.430992    0.840499    0.165323
  H    -10.555404    1.445026   -1.513034
  H     -5.996827   -0.034264   -0.340772

----------------------------
CARTESIAN COORDINATES (A.U.)
----------------------------
  NO LB      ZA    FRAG     MASS         X           Y           Z
   0 N     7.0000    0    14.007  -14.837423    1.510731    0.321596
   1 C     6.0000    0    12.011  -12.076237    1.596508    0.345618
   2 C     6.0000    0    12.011  -11.272890    1.547385    3.168540
   3 O     8.0000    0    15.999  -12.475098    2.769900    4.745713
   4 C     6.0000    0    12.011  -10.992787    3.931522   -0.882832
   5 C     6.0000    0    12.011  -12.226768    6.454257   -0.500584
   6 C     6.0000    0    12.011  -10.519175    8.668326   -1.332476
   7 C     6.0000    0    12.011  -11.901141   11.183661   -1.018400
   8 N     7.0000    0    14.007  -10.237368   13.383030   -1.914437
   9 H     1.0000    0     1.008   -9.563838    3.701632   -2.338939
  10 H     1.0000    0     1.008  -12.764102    6.674529    1.492117
  11 H     1.0000    0     1.008  -13.995213    6.528771   -1.600801
  12 H     1.0000    0     1.008   -9.986168    8.408019   -3.321499
  13 H     1.0000    0     1.008   -8.778484    8.670653   -0.203950
  14 H     1.0000    0     1.008  -12.368196   11.587851    0.951569
  15 H     1.0000    0     1.008  -13.624482   11.278980   -2.151103
  16 H     1.0000    0     1.008  -11.128559   15.092295   -1.725489
  17 H     1.0000    0     1.008   -9.758981   13.159302   -3.778264
  18 H     1.0000    0     1.008  -15.714771    1.612499    2.015305
  19 C     6.0000    0    12.011  -16.184658    1.585023   -1.889186
  20 N     7.0000    0    14.007   -9.171441    0.168342    3.689769
  21 H     1.0000    0     1.008   -8.408353   -0.869264    2.283407
  22 O     8.0000    0    15.999  -15.132162    1.788736   -3.954969
  23 H     1.0000    0     1.008   -8.588861   13.451424   -0.899724
  24 C     6.0000    0    12.011   -8.103798   -0.063886    6.228392
  25 H     1.0000    0     1.008   -8.251445   -2.010318    6.910630
  26 H     1.0000    0     1.008   -6.116559    0.506996    6.235990
  27 H     1.0000    0     1.008   -9.174559    1.168787    7.483339
  28 C     6.0000    0    12.011  -19.041289    1.345320   -1.626269
  29 H     1.0000    0     1.008  -19.596069   -0.533961   -2.287570
  30 H     1.0000    0     1.008  -19.711719    1.588312    0.312415
  31 H     1.0000    0     1.008  -19.946823    2.730704   -2.859220
  32 H     1.0000    0     1.008  -11.332361   -0.064750   -0.643966

--------------------------------
INTERNAL COORDINATES (ANGSTROEM)
--------------------------------
 N      0   0   0     0.000000000000     0.00000000     0.00000000
 C      1   0   0     1.461916671623     0.00000000     0.00000000
 C      2   1   0     1.553355209078   106.34223991     0.00000000
 O      3   2   1     1.232803810998   120.06898086   319.82945727
 C      2   1   3     1.509337473514   113.66174642   240.19574314
 C      5   2   1     1.499824202242   120.34522114    39.59376347
 C      6   5   2     1.543712527958   112.47247497   165.89014727
 C      7   6   5     1.527790485380   110.48897932   177.45222761
 N      8   7   6     1.534453736658   110.64332470   181.61395552
 H      5   2   1     1.086424490638   118.56708599   232.10455420
 H      6   5   2     1.098358919096   109.67310220    42.92551421
 H      6   5   2     1.102852659833   109.27278798   286.57863725
 H      7   6   5     1.098354787982   109.17214386    56.77744634
 H      7   6   5     1.097782208819   109.68712127   298.84341280
 H      8   7   6     1.092502488511   112.49847392    63.22431880
 H      8   7   6     1.092466730463   112.34076825   299.76848950
 H      9   8   7     1.024953357259   112.03666973   179.85429540
 H      9   8   7     1.025124297936   110.57301793    59.29375216
 H      1   2   3     1.010817862884   116.72449463     5.84123863
 C      1   2   3     1.370570824797   121.76444803   178.48435107
 N      3   2   1     1.358401695302   115.35960360   141.94405094
 H     21   3   2     1.009159736350   118.04263949   353.20064964
 O     20   1   2     1.231597437145   121.66276666   358.22640692
 H      9   8   7     1.025006284845   110.68469967   300.48653374
 C     21   3   2     1.462521368144   123.22230599   178.91469816
 H     25  21   3     1.094239167384   110.76686727   114.14523788
 H     25  21   3     1.094140887196   110.57642957   235.22718906
 H     25  21   3     1.089758786214   107.97459501   354.88823469
 C     20   1   2     1.523343654815   115.83822825   177.00204714
 H     29  20   1     1.094360685113   108.22013711   252.98550991
 H     29  20   1     1.093108831249   113.45260354    13.64710367
 H     29  20   1     1.092138641408   108.96197118   136.34080875
 H      2   1   3     1.096355840815   109.25722780   119.09149278

---------------------------
INTERNAL COORDINATES (A.U.)
---------------------------
 N      0   0   0     0.000000000000     0.00000000     0.00000000
 C      1   0   0     2.762622139982     0.00000000     0.00000000
 C      2   1   0     2.935415933857   106.34223991     0.00000000
 O      3   2   1     2.329661579641   120.06898086   319.82945727
 C      2   1   3     2.852234468606   113.66174642   240.19574314
 C      5   2   1     2.834256991265   120.34522114    39.59376347
 C      6   5   2     2.917193907343   112.47247497   165.89014727
 C      7   6   5     2.887105607378   110.48897932   177.45222761
 N      8   7   6     2.899697327456   110.64332470   181.61395552
 H      5   2   1     2.053044752490   118.56708599   232.10455420
 H      6   5   2     2.075597553842   109.67310220    42.92551421
 H      6   5   2     2.084089493151   109.27278798   286.57863725
 H      7   6   5     2.075589747168   109.17214386    56.77744634
 H      7   6   5     2.074507729359   109.68712127   298.84341280
 H      8   7   6     2.064530503913   112.49847392    63.22431880
 H      8   7   6     2.064462930996   112.34076825   299.76848950
 H      9   8   7     1.936881145263   112.03666973   179.85429540
 H      9   8   7     1.937204176327   110.57301793    59.29375216
 H      1   2   3     1.910168932127   116.72449463     5.84123863
 C      1   2   3     2.590003506008   121.76444803   178.48435107
 N      3   2   1     2.567007183975   115.35960360   141.94405094
 H     21   3   2     1.907035527081   118.04263949   353.20064964
 O     20   1   2     2.327381863443   121.66276666   358.22640692
 H      9   8   7     1.936981163905   110.68469967   300.48653374
 C     21   3   2     2.763764850800   123.22230599   178.91469816
 H     25  21   3     2.067812351365   110.76686727   114.14523788
 H     25  21   3     2.067626628725   110.57642957   235.22718906
 H     25  21   3     2.059345657979   107.97459501   354.88823469
 C     20   1   2     2.878702315447   115.83822825   177.00204714
 H     29  20   1     2.068041986595   108.22013711   252.98550991
 H     29  20   1     2.065676325632   113.45260354    13.64710367
 H     29  20   1     2.063842932533   108.96197118   136.34080875
 H      2   1   3     2.071812284465   109.25722780   119.09149278

---------------------
BASIS SET INFORMATION
---------------------
There are 4 groups of distinct atoms

 Group   1 Type N   : 10s5p1d contracted to 6s2p1d pattern {511111/41/1}
 Group   2 Type C   : 10s5p1d contracted to 6s2p1d pattern {511111/41/1}
 Group   3 Type O   : 10s5p1d contracted to 6s2p1d pattern {511111/41/1}
 Group   4 Type H   : 6s1p contracted to 4s1p pattern {3111/1}

Atom   0N    basis set group =>   1
Atom   1C    basis set group =>   2
Atom   2C    basis set group =>   2
Atom   3O    basis set group =>   3
Atom   4C    basis set group =>   2
Atom   5C    basis set group =>   2
Atom   6C    basis set group =>   2
Atom   7C    basis set group =>   2
Atom   8N    basis set group =>   1
Atom   9H    basis set group =>   4
Atom  10H    basis set group =>   4
Atom  11H    basis set group =>   4
Atom  12H    basis set group =>   4
Atom  13H    basis set group =>   4
Atom  14H    basis set group =>   4
Atom  15H    basis set group =>   4
Atom  16H    basis set group =>   4
Atom  17H    basis set group =>   4
Atom  18H    basis set group =>   4
Atom  19C    basis set group =>   2
Atom  20N    basis set group =>   1
Atom  21H    basis set group =>   4
Atom  22O    basis set group =>   3
Atom  23H    basis set group =>   4
Atom  24C    basis set group =>   2
Atom  25H    basis set group =>   4
Atom  26H    basis set group =>   4
Atom  27H    basis set group =>   4
Atom  28C    basis set group =>   2
Atom  29H    basis set group =>   4
Atom  30H    basis set group =>   4
Atom  31H    basis set group =>   4
Atom  32H    basis set group =>   4
---------------------------------
AUXILIARY/J BASIS SET INFORMATION
---------------------------------
There are 4 groups of distinct atoms

 Group   1 Type N   : 17s13p12d2f contracted to 17s13p12d2f pattern {11111111111111111/1111111111111/111111111111/11}
 Group   2 Type C   : 17s13p12d2f contracted to 17s13p12d2f pattern {11111111111111111/1111111111111/111111111111/11}
 Group   3 Type O   : 17s13p12d2f contracted to 17s13p12d2f pattern {11111111111111111/1111111111111/111111111111/11}
 Group   4 Type H   : 15s6p1d contracted to 15s6p1d pattern {111111111111111/111111/1}

Atom   0N    basis set group =>   1
Atom   1C    basis set group =>   2
Atom   2C    basis set group =>   2
Atom   3O    basis set group =>   3
Atom   4C    basis set group =>   2
Atom   5C    basis set group =>   2
Atom   6C    basis set group =>   2
Atom   7C    basis set group =>   2
Atom   8N    basis set group =>   1
Atom   9H    basis set group =>   4
Atom  10H    basis set group =>   4
Atom  11H    basis set group =>   4
Atom  12H    basis set group =>   4
Atom  13H    basis set group =>   4
Atom  14H    basis set group =>   4
Atom  15H    basis set group =>   4
Atom  16H    basis set group =>   4
Atom  17H    basis set group =>   4
Atom  18H    basis set group =>   4
Atom  19C    basis set group =>   2
Atom  20N    basis set group =>   1
Atom  21H    basis set group =>   4
Atom  22O    basis set group =>   3
Atom  23H    basis set group =>   4
Atom  24C    basis set group =>   2
Atom  25H    basis set group =>   4
Atom  26H    basis set group =>   4
Atom  27H    basis set group =>   4
Atom  28C    basis set group =>   2
Atom  29H    basis set group =>   4
Atom  30H    basis set group =>   4
Atom  31H    basis set group =>   4
Atom  32H    basis set group =>   4
---------------------------------
AUXILIARY/C BASIS SET INFORMATION
---------------------------------
There are 4 groups of distinct atoms

 Group   1 Type N   : 17s13p12d2f contracted to 17s13p12d2f pattern {11111111111111111/1111111111111/111111111111/11}
 Group   2 Type C   : 17s13p12d2f contracted to 17s13p12d2f pattern {11111111111111111/1111111111111/111111111111/11}
 Group   3 Type O   : 17s13p12d2f contracted to 17s13p12d2f pattern {11111111111111111/1111111111111/111111111111/11}
 Group   4 Type H   : 15s6p1d contracted to 15s6p1d pattern {111111111111111/111111/1}

Atom   0N    basis set group =>   1
Atom   1C    basis set group =>   2
Atom   2C    basis set group =>   2
Atom   3O    basis set group =>   3
Atom   4C    basis set group =>   2
Atom   5C    basis set group =>   2
Atom   6C    basis set group =>   2
Atom   7C    basis set group =>   2
Atom   8N    basis set group =>   1
Atom   9H    basis set group =>   4
Atom  10H    basis set group =>   4
Atom  11H    basis set group =>   4
Atom  12H    basis set group =>   4
Atom  13H    basis set group =>   4
Atom  14H    basis set group =>   4
Atom  15H    basis set group =>   4
Atom  16H    basis set group =>   4
Atom  17H    basis set group =>   4
Atom  18H    basis set group =>   4
Atom  19C    basis set group =>   2
Atom  20N    basis set group =>   1
Atom  21H    basis set group =>   4
Atom  22O    basis set group =>   3
Atom  23H    basis set group =>   4
Atom  24C    basis set group =>   2
Atom  25H    basis set group =>   4
Atom  26H    basis set group =>   4
Atom  27H    basis set group =>   4
Atom  28C    basis set group =>   2
Atom  29H    basis set group =>   4
Atom  30H    basis set group =>   4
Atom  31H    basis set group =>   4
Atom  32H    basis set group =>   4
----------------------------------
AUXILIARY/JK BASIS SET INFORMATION
----------------------------------
There are 4 groups of distinct atoms

 Group   1 Type N   : 17s13p12d2f contracted to 17s13p12d2f pattern {11111111111111111/1111111111111/111111111111/11}
 Group   2 Type C   : 17s13p12d2f contracted to 17s13p12d2f pattern {11111111111111111/1111111111111/111111111111/11}
 Group   3 Type O   : 17s13p12d2f contracted to 17s13p12d2f pattern {11111111111111111/1111111111111/111111111111/11}
 Group   4 Type H   : 15s6p1d contracted to 15s6p1d pattern {111111111111111/111111/1}

Atom   0N    basis set group =>   1
Atom   1C    basis set group =>   2
Atom   2C    basis set group =>   2
Atom   3O    basis set group =>   3
Atom   4C    basis set group =>   2
Atom   5C    basis set group =>   2
Atom   6C    basis set group =>   2
Atom   7C    basis set group =>   2
Atom   8N    basis set group =>   1
Atom   9H    basis set group =>   4
Atom  10H    basis set group =>   4
Atom  11H    basis set group =>   4
Atom  12H    basis set group =>   4
Atom  13H    basis set group =>   4
Atom  14H    basis set group =>   4
Atom  15H    basis set group =>   4
Atom  16H    basis set group =>   4
Atom  17H    basis set group =>   4
Atom  18H    basis set group =>   4
Atom  19C    basis set group =>   2
Atom  20N    basis set group =>   1
Atom  21H    basis set group =>   4
Atom  22O    basis set group =>   3
Atom  23H    basis set group =>   4
Atom  24C    basis set group =>   2
Atom  25H    basis set group =>   4
Atom  26H    basis set group =>   4
Atom  27H    basis set group =>   4
Atom  28C    basis set group =>   2
Atom  29H    basis set group =>   4
Atom  30H    basis set group =>   4
Atom  31H    basis set group =>   4
Atom  32H    basis set group =>   4


           ************************************************************
           *        Program running with 16 parallel MPI-processes    *
           *              working on a common directory               *
           ************************************************************
------------------------------------------------------------------------------
                           ORCA GTO INTEGRAL CALCULATION
                           -- RI-GTO INTEGRALS CHOSEN --
------------------------------------------------------------------------------
------------------------------------------------------------------------------
                   ___                                                        
                  /   \      - P O W E R E D   B Y -                         
                 /     \                                                     
                 |  |  |   _    _      __       _____    __    __             
                 |  |  |  | |  | |    /  \     |  _  \  |  |  /  |          
                  \  \/   | |  | |   /    \    | | | |  |  | /  /          
                 / \  \   | |__| |  /  /\  \   | |_| |  |  |/  /          
                |  |  |   |  __  | /  /__\  \  |    /   |      \           
                |  |  |   | |  | | |   __   |  |    \   |  |\   \          
                \     /   | |  | | |  |  |  |  | |\  \  |  | \   \       
                 \___/    |_|  |_| |__|  |__|  |_| \__\ |__|  \__/        
                                                                              
                      - O R C A' S   B I G   F R I E N D -                    
                                      &                                       
                       - I N T E G R A L  F E E D E R -                       
                                                                              
 v1 FN, 2020, v2 2021                                                         
------------------------------------------------------------------------------


Reading SHARK input file epr_info.SHARKINP.tmp ... ok
----------------------
SHARK INTEGRAL PACKAGE
----------------------

Number of atoms                             ...     33
Number of basis functions                   ...    371
Number of shells                            ...    221
Maximum angular momentum                    ...      2
Integral batch strategy                     ... SHARK/LIBINT Hybrid
RI-J (if used) integral strategy            ... SPLIT-RIJ (Revised 2003 algorithm where possible)
Printlevel                                  ...      1
Contraction scheme used                     ... SEGMENTED contraction
Coulomb Range Separation                    ... NOT USED
Exchange Range Separation                   ... NOT USED
Finite Nucleus Model                        ... NOT USED
Auxiliary Coulomb fitting basis             ... AVAILABLE
   # of basis functions in Aux-J            ...   2542
   # of shells in Aux-J                     ...   1034
   Maximum angular momentum in Aux-J        ...      3
Auxiliary J/K fitting basis                 ... AVAILABLE
   # of basis functions in Aux-JK           ...   2542
   # of shells in Aux-JK                    ...   1034
   Maximum angular momentum in Aux-JK       ...      3
Auxiliary Correlation fitting basis         ... AVAILABLE
   # of basis functions in Aux-C            ...   2542
   # of shells in Aux-C                     ...   1034
   Maximum angular momentum in Aux-C        ...      3
Auxiliary 'external' fitting basis          ... NOT available
Integral threshold                          ...     1.000000e-10
Primitive cut-off                           ...     1.000000e-11
Primitive pair pre-selection threshold      ...     1.000000e-11

Calculating pre-screening integrals         ... done (  0.0 sec) Dimension = 221
Organizing shell pair data                  ... done (  0.1 sec)
Shell pair information
Total number of shell pairs                 ...     24531
Shell pairs after pre-screening             ...     15349
Total number of primitive shell pairs       ...     64184
Primitive shell pairs kept                  ...     29177
          la=0 lb=0:   7240 shell pairs
          la=1 lb=0:   5242 shell pairs
          la=1 lb=1:    898 shell pairs
          la=2 lb=0:   1388 shell pairs
          la=2 lb=1:    501 shell pairs
          la=2 lb=2:     80 shell pairs

Calculating one electron integrals          ... done (  0.0 sec)
Calculating RI/J V-Matrix + Cholesky decomp.... done (  0.3 sec)
Calculating RI/JK V-Matrix + Cholesky decomp... done (  0.3 sec)
Calculating RI/C V-Matrix + Cholesky decomp.... done (  0.3 sec)
Calculating Nuclear repulsion               ... done (  0.0 sec) ENN=    931.525240431161 Eh

SHARK setup successfully completed in   1.2 seconds

Maximum memory used throughout the entire GTOINT-calculation: 28.6 MB


           ************************************************************
           *        Program running with 16 parallel MPI-processes    *
           *              working on a common directory               *
           ************************************************************
-------------------------------------------------------------------------------
                                 ORCA SCF
-------------------------------------------------------------------------------

------------
SCF SETTINGS
------------
Hamiltonian:
 Density Functional     Method          .... DFT(GTOs)
 Exchange Functional    Exchange        .... B88
   X-Alpha parameter    XAlpha          ....  0.666667
   Becke's b parameter  XBeta           ....  0.004200
 Correlation Functional Correlation     .... LYP
 LDA part of GGA corr.  LDAOpt          .... VWN-5
 Gradients option       PostSCFGGA      .... off
 Hybrid DFT is turned on
   Fraction HF Exchange ScalHFX         ....  0.200000
   Scaling of DF-GGA-X  ScalDFX         ....  0.720000
   Scaling of DF-GGA-C  ScalDFC         ....  0.810000
   Scaling of DF-LDA-C  ScalLDAC        ....  1.000000
   Perturbative correction              ....  0.000000
   Density functional embedding theory  .... OFF
   NL short-range parameter             ....  4.800000
 RI-approximation to the Coulomb term is turned on
   Number of AuxJ basis functions       .... 2542
   RIJ-COSX (HFX calculated with COS-X)).... on


General Settings:
 Integral files         IntName         .... epr_info
 Hartree-Fock type      HFTyp           .... UHF
 Total Charge           Charge          ....    1
 Multiplicity           Mult            ....    2
 Number of Electrons    NEL             ....  109
 Basis Dimension        Dim             ....  371
 Nuclear Repulsion      ENuc            ....    931.5252404312 Eh

Convergence Acceleration:
 DIIS                   CNVDIIS         .... on
   Start iteration      DIISMaxIt       ....    12
   Startup error        DIISStart       ....  0.200000
   # of expansion vecs  DIISMaxEq       ....     5
   Bias factor          DIISBfac        ....   1.050
   Max. coefficient     DIISMaxC        ....  10.000
 Trust-Rad. Augm. Hess. CNVTRAH         .... auto
   Auto Start mean grad. ratio tolernc. ....  1.125000
   Auto Start start iteration           ....    20
   Auto Start num. interpolation iter.  ....    10
   Max. Number of Micro iterations      ....    16
   Max. Number of Macro iterations      .... Maxiter - #DIIS iter
   Number of Davidson start vectors     ....     2
   Converg. threshold I  (grad. norm)   ....   5.000e-05
   Converg. threshold II (energy diff.) ....   1.000e-06
   Grad. Scal. Fac. for Micro threshold ....   0.100
   Minimum threshold for Micro iter.    ....   0.010
   NR start threshold (gradient norm)   ....   0.001
   Initial trust radius                 ....   0.400
   Minimum AH scaling param. (alpha)    ....   1.000
   Maximum AH scaling param. (alpha)    .... 1000.000
   Orbital update algorithm             .... Taylor
   White noise on init. David. guess    .... on
   Maximum white noise                  ....   0.010
   Quad. conv. algorithm                .... NR
 SOSCF                  CNVSOSCF        .... off
 Level Shifting         CNVShift        .... on
   Level shift para.    LevelShift      ....    0.2500
   Turn off err/grad.   ShiftErr        ....    0.0010
 Zerner damping         CNVZerner       .... off
 Static damping         CNVDamp         .... on
   Fraction old density DampFac         ....    0.7000
   Max. Damping (<1)    DampMax         ....    0.9800
   Min. Damping (>=0)   DampMin         ....    0.0000
   Turn off err/grad.   DampErr         ....    0.1000
 Fernandez-Rico         CNVRico         .... off

SCF Procedure:
 Maximum # iterations   MaxIter         ....   125
 SCF integral mode      SCFMode         .... Direct
   Integral package                     .... SHARK and LIBINT hybrid scheme
 Reset frequency        DirectResetFreq ....    20
 Integral Threshold     Thresh          ....  1.000e-10 Eh
 Primitive CutOff       TCut            ....  1.000e-11 Eh

Convergence Tolerance:
 Convergence Check Mode ConvCheckMode   .... Total+1el-Energy
 Convergence forced     ConvForced      .... 0
 Energy Change          TolE            ....  1.000e-06 Eh
 1-El. energy change                    ....  1.000e-03 Eh
 DIIS Error             TolErr          ....  1.000e-06


Diagonalization of the overlap matrix:
Smallest eigenvalue                        ... 8.290e-04
Time for diagonalization                   ...    0.015 sec
Threshold for overlap eigenvalues          ... 1.000e-08
Number of eigenvalues below threshold      ... 0
Time for construction of square roots      ...    0.011 sec
Total time needed                          ...    0.027 sec

Time for model grid setup =    0.115 sec

------------------------------
INITIAL GUESS: MODEL POTENTIAL
------------------------------
Loading Hartree-Fock densities                     ... done
Calculating cut-offs                               ... done
Initializing the effective Hamiltonian             ... done
Setting up the integral package (SHARK)            ... done
Starting the Coulomb interaction                   ... done (   0.0 sec)
Reading the grid                                   ... done
Mapping shells                                     ... done
Starting the XC term evaluation                    ... done (   0.0 sec)
  promolecular density results
     # of electrons  =    109.986861183
     EX              =    -88.050297217
     EC              =     -3.685435035
     EX+EC           =    -91.735732253
Transforming the Hamiltonian                       ... done (   0.0 sec)
Diagonalizing the Hamiltonian                      ... done (   0.0 sec)
Back transforming the eigenvectors                 ... done (   0.0 sec)
Now organizing SCF variables                       ... done
                      ------------------
                      INITIAL GUESS DONE (   0.3 sec)
                      ------------------
-------------------
DFT GRID GENERATION
-------------------

General Integration Accuracy     IntAcc      ... 4.388
Radial Grid Type                 RadialGrid  ... OptM3 with GC (2021)
Angular Grid (max. ang.)         AngularGrid ... 4 (Lebedev-302)
Angular grid pruning method      GridPruning ... 4 (adaptive)
Weight generation scheme         WeightScheme... Becke
Basis function cutoff            BFCut       ... 1.0000e-10
Integration weight cutoff        WCut        ... 1.0000e-14
Angular grids for H and He will be reduced by one unit
Partially contracted basis set               ... off
Rotationally invariant grid construction     ... off

Total number of grid points                  ...   144815
Total number of batches                      ...     2282
Average number of points per batch           ...       63
Average number of grid points per atom       ...     4388
Time for grid setup =    0.611 sec

--------------------
COSX GRID GENERATION
--------------------

GRIDX 1
-------
General Integration Accuracy     IntAcc      ... 3.816
Radial Grid Type                 RadialGrid  ... OptM3 with GC (2021)
Angular Grid (max. ang.)         AngularGrid ... 1 (Lebedev-50)
Angular grid pruning method      GridPruning ... 4 (adaptive)
Weight generation scheme         WeightScheme... Becke
Basis function cutoff            BFCut       ... 1.0000e-10
Integration weight cutoff        WCut        ... 1.0000e-14
Angular grids for H and He will be reduced by one unit
Partially contracted basis set               ... on
Rotationally invariant grid construction     ... off

Total number of grid points                  ...    18535
Total number of batches                      ...      309
Average number of points per batch           ...       59
Average number of grid points per atom       ...      562
UseSFitting                                  ... on

GRIDX 2
-------
General Integration Accuracy     IntAcc      ... 4.020
Radial Grid Type                 RadialGrid  ... OptM3 with GC (2021)
Angular Grid (max. ang.)         AngularGrid ... 2 (Lebedev-110)
Angular grid pruning method      GridPruning ... 4 (adaptive)
Weight generation scheme         WeightScheme... Becke
Basis function cutoff            BFCut       ... 1.0000e-10
Integration weight cutoff        WCut        ... 1.0000e-14
Angular grids for H and He will be reduced by one unit
Partially contracted basis set               ... on
Rotationally invariant grid construction     ... off

Total number of grid points                  ...    39048
Total number of batches                      ...      627
Average number of points per batch           ...       62
Average number of grid points per atom       ...     1183
UseSFitting                                  ... on

GRIDX 3
-------
General Integration Accuracy     IntAcc      ... 4.338
Radial Grid Type                 RadialGrid  ... OptM3 with GC (2021)
Angular Grid (max. ang.)         AngularGrid ... 3 (Lebedev-194)
Angular grid pruning method      GridPruning ... 4 (adaptive)
Weight generation scheme         WeightScheme... Becke
Basis function cutoff            BFCut       ... 1.0000e-10
Integration weight cutoff        WCut        ... 1.0000e-14
Angular grids for H and He will be reduced by one unit
Partially contracted basis set               ... on
Rotationally invariant grid construction     ... off

Total number of grid points                  ...    85154
Total number of batches                      ...     1347
Average number of points per batch           ...       63
Average number of grid points per atom       ...     2580
UseSFitting                                  ... on

Time for X-Grid setup             =    0.739 sec

--------------
SCF ITERATIONS
--------------
ITER       Energy         Delta-E        Max-DP      RMS-DP      [F,P]     Damp
               ***  Starting incremental Fock matrix formation  ***
  0   -668.1311960333   0.000000000000 0.06540446  0.00087159  0.1318210 0.7000
  1   -668.3471746958  -0.215978662521 0.03784031  0.00059237  0.0507652 0.7000
                               ***Turning on DIIS***
  2   -668.4257032735  -0.078528577645 0.04505796  0.00092592  0.0181440 0.0000
  3   -668.5580432488  -0.132339975336 0.02619209  0.00043020  0.0240314 0.0000
  4   -668.5845489157  -0.026505666914 0.00920156  0.00014854  0.0083863 0.0000
  5   -668.5863477200  -0.001798804247 0.00361375  0.00005610  0.0051187 0.0000
  6   -668.5867201768  -0.000372456851 0.00208615  0.00003599  0.0006771 0.0000
               *** Restarting incremental Fock matrix formation ***
                                   *** Resetting DIIS ***
  7   -668.5867644513  -0.000044274503 0.00179593  0.00001929  0.0007701 0.0000
  8   -668.5867526696   0.000011781713 0.00085382  0.00000738  0.0011433 0.0000
  9   -668.5867760158  -0.000023346178 0.00035409  0.00000421  0.0002913 0.0000
 10   -668.5867778987  -0.000001882935 0.00019714  0.00000171  0.0000788 0.0000
                 **** Energy Check signals convergence ****

               *****************************************************
               *                     SUCCESS                       *
               *           SCF CONVERGED AFTER  11 CYCLES          *
               *****************************************************

Old exchange energy                            =    -17.877786100 Eh
New exchange energy                            =    -17.877786413 Eh
Exchange energy change after final integration =     -0.000000313 Eh
Total energy after final integration           =   -668.586778387 Eh
Final COS-X integration done in                =     2.175 sec

----------------
TOTAL SCF ENERGY
----------------

Total Energy       :         -668.58677839 Eh          -18193.17116 eV

Components:
Nuclear Repulsion  :          931.52524043 Eh           25348.09046 eV
Electronic Energy  :        -1600.11201882 Eh          -43541.26163 eV
One Electron Energy:        -2743.77025090 Eh          -74661.78426 eV
Two Electron Energy:         1143.65823208 Eh           31120.52263 eV
Max COSX asymmetry :            0.00000118 Eh               0.00003 eV

Virial components:
Potential Energy   :        -1332.56845608 Eh          -36261.03117 eV
Kinetic Energy     :          663.98167769 Eh           18067.86000 eV
Virial Ratio       :            2.00693558


DFT components:
N(Alpha)           :       55.000140793600 electrons
N(Beta)            :       54.000108770112 electrons
N(Total)           :      109.000249563712 electrons
E(X)               :      -71.009348224171 Eh       
E(C)               :       -4.312560008760 Eh       
E(XC)              :      -75.321908232932 Eh       
DFET-embed. en.    :        0.000000000000 Eh       

---------------
SCF CONVERGENCE
---------------

  Last Energy change         ...   -1.7540e-07  Tolerance :   1.0000e-06
  Last MAX-Density change    ...    0.0000e+00  Tolerance :   1.0000e-05
  Last RMS-Density change    ...    0.0000e+00  Tolerance :   1.0000e-06
  Last DIIS Error            ...    9.7128e-05  Tolerance :   1.0000e-06

             **** THE GBW FILE WAS UPDATED (epr_info.gbw) ****
             **** DENSITY epr_info.scfp WAS UPDATED ****
             **** ENERGY FILE WAS UPDATED (epr_info.en.tmp) ****
----------------------
UHF SPIN CONTAMINATION
----------------------

Warning: in a DFT calculation there is little theoretical justification to 
         calculate <S**2> as in Hartree-Fock theory. We will do it anyways
         but you should keep in mind that the values have only limited relevance

Expectation value of <S**2>     :     0.754404
Ideal value S*(S+1) for S=0.5   :     0.750000
Deviation                       :     0.004404

             **** THE GBW FILE WAS UPDATED (epr_info.gbw) ****
             **** DENSITY epr_info.scfp WAS UPDATED ****
----------------
ORBITAL ENERGIES
----------------
                 SPIN UP ORBITALS
  NO   OCC          E(Eh)            E(eV) 
   0   1.0000     -19.206563      -522.6372 
   1   1.0000     -19.188659      -522.1499 
   2   1.0000     -14.646026      -398.5386 
   3   1.0000     -14.456949      -393.3936 
   4   1.0000     -14.440699      -392.9514 
   5   1.0000     -10.424099      -283.6542 
   6   1.0000     -10.391107      -282.7564 
   7   1.0000     -10.374341      -282.3002 
   8   1.0000     -10.351332      -281.6741 
   9   1.0000     -10.336544      -281.2717 
  10   1.0000     -10.315902      -280.7100 
  11   1.0000     -10.306576      -280.4562 
  12   1.0000     -10.299346      -280.2594 
  13   1.0000     -10.265147      -279.3288 
  14   1.0000      -1.192542       -32.4507 
  15   1.0000      -1.130413       -30.7601 
  16   1.0000      -1.110996       -30.2317 
  17   1.0000      -1.015072       -27.6215 
  18   1.0000      -1.006435       -27.3865 
  19   1.0000      -0.958944       -26.0942 
  20   1.0000      -0.892277       -24.2801 
  21   1.0000      -0.849139       -23.1063 
  22   1.0000      -0.808075       -21.9888 
  23   1.0000      -0.801880       -21.8203 
  24   1.0000      -0.778880       -21.1944 
  25   1.0000      -0.778056       -21.1720 
  26   1.0000      -0.747220       -20.3329 
  27   1.0000      -0.707136       -19.2422 
  28   1.0000      -0.679270       -18.4839 
  29   1.0000      -0.673500       -18.3269 
  30   1.0000      -0.651951       -17.7405 
  31   1.0000      -0.633258       -17.2318 
  32   1.0000      -0.619185       -16.8489 
  33   1.0000      -0.586228       -15.9521 
  34   1.0000      -0.575113       -15.6496 
  35   1.0000      -0.559623       -15.2281 
  36   1.0000      -0.555276       -15.1098 
  37   1.0000      -0.541313       -14.7299 
  38   1.0000      -0.539953       -14.6929 
  39   1.0000      -0.531483       -14.4624 
  40   1.0000      -0.518190       -14.1007 
  41   1.0000      -0.505310       -13.7502 
  42   1.0000      -0.491543       -13.3756 
  43   1.0000      -0.486892       -13.2490 
  44   1.0000      -0.485159       -13.2019 
  45   1.0000      -0.478087       -13.0094 
  46   1.0000      -0.473500       -12.8846 
  47   1.0000      -0.467164       -12.7122 
  48   1.0000      -0.461026       -12.5451 
  49   1.0000      -0.432391       -11.7660 
  50   1.0000      -0.368349       -10.0233 
  51   1.0000      -0.352649        -9.5961 
  52   1.0000      -0.342415        -9.3176 
  53   1.0000      -0.336784        -9.1644 
  54   1.0000      -0.293880        -7.9969 
  55   0.0000      -0.184548        -5.0218 
  56   0.0000      -0.116700        -3.1756 
  57   0.0000      -0.110117        -2.9964 
  58   0.0000      -0.081693        -2.2230 
  59   0.0000      -0.077105        -2.0981 
  60   0.0000      -0.068644        -1.8679 
  61   0.0000      -0.064152        -1.7457 
  62   0.0000      -0.055578        -1.5124 
  63   0.0000      -0.053397        -1.4530 
  64   0.0000      -0.048034        -1.3071 
  65   0.0000      -0.041578        -1.1314 
  66   0.0000      -0.025705        -0.6995 
  67   0.0000      -0.015535        -0.4227 
  68   0.0000      -0.009002        -0.2450 
  69   0.0000      -0.001901        -0.0517 
  70   0.0000       0.015975         0.4347 
  71   0.0000       0.025347         0.6897 
  72   0.0000       0.034099         0.9279 
  73   0.0000       0.037495         1.0203 
  74   0.0000       0.047853         1.3021 
  75   0.0000       0.056322         1.5326 
  76   0.0000       0.064740         1.7617 
  77   0.0000       0.071444         1.9441 
  78   0.0000       0.078353         2.1321 
  79   0.0000       0.080697         2.1959 
  80   0.0000       0.091765         2.4970 
  81   0.0000       0.100416         2.7324 
  82   0.0000       0.103719         2.8223 
  83   0.0000       0.106839         2.9072 
  84   0.0000       0.111523         3.0347 
  85   0.0000       0.116331         3.1655 
  86   0.0000       0.120759         3.2860 
  87   0.0000       0.126337         3.4378 
  88   0.0000       0.133200         3.6246 
  89   0.0000       0.139257         3.7894 
  90   0.0000       0.143325         3.9001 
  91   0.0000       0.149610         4.0711 
  92   0.0000       0.162162         4.4126 
  93   0.0000       0.167340         4.5535 
  94   0.0000       0.176342         4.7985 
  95   0.0000       0.189607         5.1595 
  96   0.0000       0.192443         5.2366 
  97   0.0000       0.199132         5.4186 
  98   0.0000       0.204408         5.5622 
  99   0.0000       0.210397         5.7252 
 100   0.0000       0.216197         5.8830 
 101   0.0000       0.219433         5.9711 
 102   0.0000       0.222211         6.0467 
 103   0.0000       0.226952         6.1757 
 104   0.0000       0.240090         6.5332 
 105   0.0000       0.244865         6.6631 
 106   0.0000       0.262169         7.1340 
 107   0.0000       0.272762         7.4222 
 108   0.0000       0.277559         7.5528 
 109   0.0000       0.280826         7.6417 
 110   0.0000       0.293979         7.9996 
 111   0.0000       0.301803         8.2125 
 112   0.0000       0.307072         8.3559 
 113   0.0000       0.317694         8.6449 
 114   0.0000       0.324367         8.8265 
 115   0.0000       0.334312         9.0971 
 116   0.0000       0.344197         9.3661 
 117   0.0000       0.356303         9.6955 
 118   0.0000       0.367727        10.0063 
 119   0.0000       0.377743        10.2789 
 120   0.0000       0.384303        10.4574 
 121   0.0000       0.396845        10.7987 
 122   0.0000       0.403147        10.9702 
 123   0.0000       0.416376        11.3302 
 124   0.0000       0.428464        11.6591 
 125   0.0000       0.439099        11.9485 
 126   0.0000       0.453153        12.3309 
 127   0.0000       0.466367        12.6905 
 128   0.0000       0.476137        12.9564 
 129   0.0000       0.484361        13.1801 
 130   0.0000       0.501919        13.6579 
 131   0.0000       0.510141        13.8816 
 132   0.0000       0.535886        14.5822 
 133   0.0000       0.539538        14.6816 
 134   0.0000       0.549532        14.9535 
 135   0.0000       0.578584        15.7441 
 136   0.0000       0.590458        16.0672 
 137   0.0000       0.603998        16.4356 
 138   0.0000       0.620795        16.8927 
 139   0.0000       0.642687        17.4884 
 140   0.0000       0.649673        17.6785 
 141   0.0000       0.670708        18.2509 
 142   0.0000       0.675514        18.3817 
 143   0.0000       0.702229        19.1086 
 144   0.0000       0.713013        19.4021 
 145   0.0000       0.719563        19.5803 
 146   0.0000       0.733410        19.9571 
 147   0.0000       0.735659        20.0183 
 148   0.0000       0.757622        20.6159 
 149   0.0000       0.757802        20.6208 
 150   0.0000       0.761829        20.7304 
 151   0.0000       0.764548        20.8044 
 152   0.0000       0.770438        20.9647 
 153   0.0000       0.777229        21.1495 
 154   0.0000       0.780917        21.2498 
 155   0.0000       0.787551        21.4304 
 156   0.0000       0.804071        21.8799 
 157   0.0000       0.805228        21.9114 
 158   0.0000       0.816409        22.2156 
 159   0.0000       0.822941        22.3934 
 160   0.0000       0.830526        22.5998 
 161   0.0000       0.851321        23.1656 
 162   0.0000       0.854110        23.2415 
 163   0.0000       0.861309        23.4374 
 164   0.0000       0.867510        23.6061 
 165   0.0000       0.882506        24.0142 
 166   0.0000       0.890534        24.2327 
 167   0.0000       0.898608        24.4524 
 168   0.0000       0.916617        24.9424 
 169   0.0000       0.922351        25.0984 
 170   0.0000       0.929945        25.3051 
 171   0.0000       0.934771        25.4364 
 172   0.0000       0.943850        25.6835 
 173   0.0000       0.964497        26.2453 
 174   0.0000       0.966983        26.3130 
 175   0.0000       0.974901        26.5284 
 176   0.0000       1.004121        27.3235 
 177   0.0000       1.018814        27.7233 
 178   0.0000       1.023780        27.8585 
 179   0.0000       1.043812        28.4036 
 180   0.0000       1.054144        28.6847 
 181   0.0000       1.069285        29.0967 
 182   0.0000       1.075895        29.2766 
 183   0.0000       1.086488        29.5648 
 184   0.0000       1.102521        30.0011 
 185   0.0000       1.118786        30.4437 
 186   0.0000       1.131613        30.7928 
 187   0.0000       1.150517        31.3072 
 188   0.0000       1.185065        32.2473 
 189   0.0000       1.209034        32.8995 
 190   0.0000       1.220439        33.2098 
 191   0.0000       1.223684        33.2981 
 192   0.0000       1.249490        34.0003 
 193   0.0000       1.258189        34.2371 
 194   0.0000       1.274073        34.6693 
 195   0.0000       1.278067        34.7780 
 196   0.0000       1.314546        35.7706 
 197   0.0000       1.330573        36.2067 
 198   0.0000       1.331622        36.2353 
 199   0.0000       1.337100        36.3843 
 200   0.0000       1.339358        36.4458 
 201   0.0000       1.358180        36.9580 
 202   0.0000       1.381389        37.5895 
 203   0.0000       1.386345        37.7244 
 204   0.0000       1.401701        38.1422 
 205   0.0000       1.409803        38.3627 
 206   0.0000       1.415476        38.5171 
 207   0.0000       1.423155        38.7260 
 208   0.0000       1.435769        39.0693 
 209   0.0000       1.445793        39.3420 
 210   0.0000       1.458426        39.6858 
 211   0.0000       1.470079        40.0029 
 212   0.0000       1.473349        40.0919 
 213   0.0000       1.479048        40.2469 
 214   0.0000       1.484278        40.3893 
 215   0.0000       1.500849        40.8402 
 216   0.0000       1.506549        40.9953 
 217   0.0000       1.517403        41.2906 
 218   0.0000       1.530871        41.6571 
 219   0.0000       1.531151        41.6647 
 220   0.0000       1.545352        42.0512 
 221   0.0000       1.559664        42.4406 
 222   0.0000       1.572323        42.7851 
 223   0.0000       1.583410        43.0868 
 224   0.0000       1.606894        43.7258 
 225   0.0000       1.607656        43.7465 
 226   0.0000       1.614288        43.9270 
 227   0.0000       1.621384        44.1201 
 228   0.0000       1.628348        44.3096 
 229   0.0000       1.643979        44.7350 
 230   0.0000       1.653798        45.0021 
 231   0.0000       1.658985        45.1433 
 232   0.0000       1.686025        45.8791 
 233   0.0000       1.698929        46.2302 
 234   0.0000       1.705174        46.4001 
 235   0.0000       1.731243        47.1095 
 236   0.0000       1.743681        47.4480 
 237   0.0000       1.759146        47.8688 
 238   0.0000       1.767410        48.0937 
 239   0.0000       1.779547        48.4239 
 240   0.0000       1.789669        48.6994 
 241   0.0000       1.798113        48.9291 
 242   0.0000       1.816298        49.4240 
 243   0.0000       1.830859        49.8202 
 244   0.0000       1.853497        50.4362 
 245   0.0000       1.861468        50.6531 
 246   0.0000       1.879437        51.1421 
 247   0.0000       1.921826        52.2956 
 248   0.0000       1.930514        52.5320 
 249   0.0000       1.957108        53.2556 
 250   0.0000       1.974161        53.7196 
 251   0.0000       1.983557        53.9753 
 252   0.0000       1.993455        54.2447 
 253   0.0000       2.016168        54.8627 
 254   0.0000       2.053539        55.8796 
 255   0.0000       2.060128        56.0589 
 256   0.0000       2.078953        56.5712 
 257   0.0000       2.100275        57.1514 
 258   0.0000       2.110616        57.4328 
 259   0.0000       2.126482        57.8645 
 260   0.0000       2.138792        58.1995 
 261   0.0000       2.156865        58.6913 
 262   0.0000       2.177763        59.2600 
 263   0.0000       2.181478        59.3610 
 264   0.0000       2.187287        59.5191 
 265   0.0000       2.209145        60.1139 
 266   0.0000       2.220816        60.4315 
 267   0.0000       2.236665        60.8628 
 268   0.0000       2.264975        61.6331 
 269   0.0000       2.274287        61.8865 
 270   0.0000       2.285107        62.1809 
 271   0.0000       2.293897        62.4201 
 272   0.0000       2.299905        62.5836 
 273   0.0000       2.321167        63.1622 
 274   0.0000       2.323612        63.2287 
 275   0.0000       2.329534        63.3898 
 276   0.0000       2.340637        63.6920 
 277   0.0000       2.354803        64.0775 
 278   0.0000       2.362766        64.2941 
 279   0.0000       2.399175        65.2849 
 280   0.0000       2.402803        65.3836 
 281   0.0000       2.409994        65.5793 
 282   0.0000       2.420213        65.8573 
 283   0.0000       2.425408        65.9987 
 284   0.0000       2.434482        66.2456 
 285   0.0000       2.469098        67.1876 
 286   0.0000       2.529532        68.8321 
 287   0.0000       2.534171        68.9583 
 288   0.0000       2.569197        69.9114 
 289   0.0000       2.582490        70.2731 
 290   0.0000       2.598626        70.7122 
 291   0.0000       2.612821        71.0985 
 292   0.0000       2.638739        71.8037 
 293   0.0000       2.657084        72.3029 
 294   0.0000       2.679239        72.9058 
 295   0.0000       2.704498        73.5931 
 296   0.0000       2.737399        74.4884 
 297   0.0000       2.890952        78.6668 
 298   0.0000       2.933820        79.8333 
 299   0.0000       3.012196        81.9660 
 300   0.0000       3.022016        82.2332 
 301   0.0000       3.270797        89.0029 
 302   0.0000       3.326753        90.5255 
 303   0.0000       3.346066        91.0511 
 304   0.0000       3.354281        91.2746 
 305   0.0000       4.635281       126.1324 
 306   0.0000       4.687031       127.5406 
 307   0.0000       4.827568       131.3648 
 308   0.0000       4.864025       132.3569 
 309   0.0000       4.895115       133.2028 
 310   0.0000       4.902585       133.4061 
 311   0.0000       4.915049       133.7453 
 312   0.0000       4.935152       134.2923 
 313   0.0000       4.940651       134.4420 
 314   0.0000       4.958060       134.9157 
 315   0.0000       5.004289       136.1736 
 316   0.0000       5.042477       137.2128 
 317   0.0000       5.046371       137.3187 
 318   0.0000       5.060943       137.7153 
 319   0.0000       5.101516       138.8193 
 320   0.0000       5.131083       139.6239 
 321   0.0000       5.138978       139.8387 
 322   0.0000       5.162597       140.4814 
 323   0.0000       5.192960       141.3076 
 324   0.0000       5.198078       141.4469 
 325   0.0000       5.271292       143.4392 
 326   0.0000       5.283375       143.7679 
 327   0.0000       5.318495       144.7236 
 328   0.0000       5.487457       149.3213 
 329   0.0000       5.529929       150.4770 
 330   0.0000       5.605946       152.5456 
 331   0.0000       5.647874       153.6865 
 332   0.0000       5.726134       155.8160 
 333   0.0000       7.001348       190.5164 
 334   0.0000       7.222010       196.5209 
 335   0.0000       7.233756       196.8405 
 336   0.0000       8.998635       244.8653 
 337   0.0000       9.022478       245.5141 
 338   0.0000      29.472271       801.9813 
 339   0.0000      29.541511       803.8654 
 340   0.0000      29.603409       805.5497 
 341   0.0000      29.748116       809.4874 
 342   0.0000      29.832674       811.7883 
 343   0.0000      29.915531       814.0430 
 344   0.0000      29.994276       816.1858 
 345   0.0000      30.044211       817.5446 
 346   0.0000      30.125686       819.7616 
 347   0.0000      36.239747       986.1336 
 348   0.0000      36.276015       987.1206 
 349   0.0000      36.441338       991.6192 
 350   0.0000      36.487245       992.8684 
 351   0.0000      36.525859       993.9192 
 352   0.0000      36.534539       994.1553 
 353   0.0000      36.544087       994.4152 
 354   0.0000      36.556534       994.7539 
 355   0.0000      36.575266       995.2636 
 356   0.0000      36.586458       995.5681 
 357   0.0000      36.625051       996.6183 
 358   0.0000      36.629021       996.7263 
 359   0.0000      36.661701       997.6156 
 360   0.0000      36.691460       998.4254 
 361   0.0000      36.716183       999.0981 
 362   0.0000      36.743204       999.8334 
 363   0.0000      36.801360      1001.4159 
 364   0.0000      36.823417      1002.0161 
 365   0.0000      36.845102      1002.6062 
 366   0.0000      40.932164      1113.8208 
 367   0.0000      41.161082      1120.0500 
 368   0.0000      41.176911      1120.4807 
 369   0.0000      53.536514      1456.8026 
 370   0.0000      53.555500      1457.3192 

                 SPIN DOWN ORBITALS
  NO   OCC          E(Eh)            E(eV) 
   0   1.0000     -19.206135      -522.6255 
   1   1.0000     -19.188148      -522.1360 
   2   1.0000     -14.646032      -398.5388 
   3   1.0000     -14.456625      -393.3848 
   4   1.0000     -14.440007      -392.9326 
   5   1.0000     -10.424097      -283.6541 
   6   1.0000     -10.390180      -282.7312 
   7   1.0000     -10.374352      -282.3005 
   8   1.0000     -10.351155      -281.6692 
   9   1.0000     -10.337341      -281.2933 
  10   1.0000     -10.316763      -280.7334 
  11   1.0000     -10.299345      -280.2594 
  12   1.0000     -10.292863      -280.0831 
  13   1.0000     -10.265060      -279.3265 
  14   1.0000      -1.192541       -32.4507 
  15   1.0000      -1.129387       -30.7322 
  16   1.0000      -1.110130       -30.2082 
  17   1.0000      -1.014228       -27.5986 
  18   1.0000      -1.004395       -27.3310 
  19   1.0000      -0.957634       -26.0586 
  20   1.0000      -0.881499       -23.9868 
  21   1.0000      -0.847835       -23.0708 
  22   1.0000      -0.806950       -21.9582 
  23   1.0000      -0.797850       -21.7106 
  24   1.0000      -0.778865       -21.1940 
  25   1.0000      -0.776056       -21.1176 
  26   1.0000      -0.745016       -20.2729 
  27   1.0000      -0.697324       -18.9751 
  28   1.0000      -0.678607       -18.4658 
  29   1.0000      -0.672951       -18.3119 
  30   1.0000      -0.645014       -17.5517 
  31   1.0000      -0.631942       -17.1960 
  32   1.0000      -0.615821       -16.7574 
  33   1.0000      -0.583566       -15.8796 
  34   1.0000      -0.572871       -15.5886 
  35   1.0000      -0.556247       -15.1362 
  36   1.0000      -0.554378       -15.0854 
  37   1.0000      -0.539239       -14.6734 
  38   1.0000      -0.538367       -14.6497 
  39   1.0000      -0.530061       -14.4237 
  40   1.0000      -0.517027       -14.0690 
  41   1.0000      -0.501301       -13.6411 
  42   1.0000      -0.488447       -13.2913 
  43   1.0000      -0.483464       -13.1557 
  44   1.0000      -0.483296       -13.1512 
  45   1.0000      -0.477847       -13.0029 
  46   1.0000      -0.472065       -12.8455 
  47   1.0000      -0.463649       -12.6165 
  48   1.0000      -0.459454       -12.5024 
  49   1.0000      -0.431040       -11.7292 
  50   1.0000      -0.359612        -9.7855 
  51   1.0000      -0.350960        -9.5501 
  52   1.0000      -0.340211        -9.2576 
  53   1.0000      -0.332611        -9.0508 
  54   0.0000      -0.184598        -5.0232 
  55   0.0000      -0.160521        -4.3680 
  56   0.0000      -0.116434        -3.1683 
  57   0.0000      -0.109861        -2.9895 
  58   0.0000      -0.081603        -2.2205 
  59   0.0000      -0.072825        -1.9817 
  60   0.0000      -0.068064        -1.8521 
  61   0.0000      -0.063850        -1.7374 
  62   0.0000      -0.054844        -1.4924 
  63   0.0000      -0.050548        -1.3755 
  64   0.0000      -0.047456        -1.2913 
  65   0.0000      -0.040927        -1.1137 
  66   0.0000      -0.024873        -0.6768 
  67   0.0000      -0.014362        -0.3908 
  68   0.0000      -0.007941        -0.2161 
  69   0.0000      -0.000968        -0.0263 
  70   0.0000       0.016056         0.4369 
  71   0.0000       0.026254         0.7144 
  72   0.0000       0.034912         0.9500 
  73   0.0000       0.038059         1.0356 
  74   0.0000       0.048813         1.3283 
  75   0.0000       0.057190         1.5562 
  76   0.0000       0.065978         1.7954 
  77   0.0000       0.073392         1.9971 
  78   0.0000       0.079709         2.1690 
  79   0.0000       0.082753         2.2518 
  80   0.0000       0.092249         2.5102 
  81   0.0000       0.101571         2.7639 
  82   0.0000       0.106982         2.9111 
  83   0.0000       0.108978         2.9654 
  84   0.0000       0.112177         3.0525 
  85   0.0000       0.116856         3.1798 
  86   0.0000       0.121782         3.3139 
  87   0.0000       0.128974         3.5096 
  88   0.0000       0.133719         3.6387 
  89   0.0000       0.143558         3.9064 
  90   0.0000       0.146193         3.9781 
  91   0.0000       0.154734         4.2105 
  92   0.0000       0.162859         4.4316 
  93   0.0000       0.168268         4.5788 
  94   0.0000       0.177693         4.8353 
  95   0.0000       0.191287         5.2052 
  96   0.0000       0.198033         5.3888 
  97   0.0000       0.200547         5.4572 
  98   0.0000       0.205478         5.5913 
  99   0.0000       0.211227         5.7478 
 100   0.0000       0.218198         5.9375 
 101   0.0000       0.219881         5.9833 
 102   0.0000       0.224605         6.1118 
 103   0.0000       0.227367         6.1870 
 104   0.0000       0.240412         6.5420 
 105   0.0000       0.247156         6.7255 
 106   0.0000       0.263055         7.1581 
 107   0.0000       0.275160         7.4875 
 108   0.0000       0.279039         7.5930 
 109   0.0000       0.282975         7.7001 
 110   0.0000       0.296831         8.0772 
 111   0.0000       0.304686         8.2909 
 112   0.0000       0.312386         8.5005 
 113   0.0000       0.320068         8.7095 
 114   0.0000       0.326701         8.8900 
 115   0.0000       0.338319         9.2061 
 116   0.0000       0.350015         9.5244 
 117   0.0000       0.356988         9.7141 
 118   0.0000       0.376132        10.2351 
 119   0.0000       0.378806        10.3078 
 120   0.0000       0.385542        10.4911 
 121   0.0000       0.400463        10.8972 
 122   0.0000       0.411883        11.2079 
 123   0.0000       0.420423        11.4403 
 124   0.0000       0.430764        11.7217 
 125   0.0000       0.442274        12.0349 
 126   0.0000       0.457015        12.4360 
 127   0.0000       0.467666        12.7258 
 128   0.0000       0.477590        12.9959 
 129   0.0000       0.486677        13.2432 
 130   0.0000       0.504096        13.7171 
 131   0.0000       0.512836        13.9550 
 132   0.0000       0.537210        14.6182 
 133   0.0000       0.539753        14.6874 
 134   0.0000       0.552092        15.0232 
 135   0.0000       0.580461        15.7952 
 136   0.0000       0.593447        16.1485 
 137   0.0000       0.606158        16.4944 
 138   0.0000       0.622541        16.9402 
 139   0.0000       0.643446        17.5090 
 140   0.0000       0.651172        17.7193 
 141   0.0000       0.675765        18.3885 
 142   0.0000       0.676956        18.4209 
 143   0.0000       0.703823        19.1520 
 144   0.0000       0.714500        19.4425 
 145   0.0000       0.720532        19.6067 
 146   0.0000       0.734827        19.9956 
 147   0.0000       0.736688        20.0463 
 148   0.0000       0.757984        20.6258 
 149   0.0000       0.758648        20.6439 
 150   0.0000       0.761967        20.7342 
 151   0.0000       0.765471        20.8295 
 152   0.0000       0.772425        21.0187 
 153   0.0000       0.778727        21.1902 
 154   0.0000       0.782724        21.2990 
 155   0.0000       0.789068        21.4716 
 156   0.0000       0.805613        21.9219 
 157   0.0000       0.808319        21.9955 
 158   0.0000       0.817780        22.2529 
 159   0.0000       0.824560        22.4374 
 160   0.0000       0.832917        22.6648 
 161   0.0000       0.852176        23.1889 
 162   0.0000       0.856880        23.3169 
 163   0.0000       0.863020        23.4840 
 164   0.0000       0.870178        23.6787 
 165   0.0000       0.883709        24.0469 
 166   0.0000       0.892151        24.2767 
 167   0.0000       0.901277        24.5250 
 168   0.0000       0.917750        24.9732 
 169   0.0000       0.923989        25.1430 
 170   0.0000       0.932777        25.3821 
 171   0.0000       0.939098        25.5542 
 172   0.0000       0.944803        25.7094 
 173   0.0000       0.965784        26.2803 
 174   0.0000       0.969655        26.3857 
 175   0.0000       0.977654        26.6033 
 176   0.0000       1.007177        27.4067 
 177   0.0000       1.019040        27.7295 
 178   0.0000       1.027018        27.9466 
 179   0.0000       1.045751        28.4563 
 180   0.0000       1.059026        28.8176 
 181   0.0000       1.070395        29.1269 
 182   0.0000       1.077153        29.3108 
 183   0.0000       1.090461        29.6729 
 184   0.0000       1.105554        30.0837 
 185   0.0000       1.119637        30.4669 
 186   0.0000       1.132579        30.8190 
 187   0.0000       1.151360        31.3301 
 188   0.0000       1.186942        32.2983 
 189   0.0000       1.209280        32.9062 
 190   0.0000       1.224617        33.3235 
 191   0.0000       1.226097        33.3638 
 192   0.0000       1.254760        34.1437 
 193   0.0000       1.263069        34.3699 
 194   0.0000       1.277820        34.7713 
 195   0.0000       1.280827        34.8531 
 196   0.0000       1.316440        35.8221 
 197   0.0000       1.331190        36.2235 
 198   0.0000       1.337238        36.3881 
 199   0.0000       1.339711        36.4554 
 200   0.0000       1.342487        36.5309 
 201   0.0000       1.362865        37.0854 
 202   0.0000       1.385155        37.6920 
 203   0.0000       1.390922        37.8489 
 204   0.0000       1.403644        38.1951 
 205   0.0000       1.411051        38.3966 
 206   0.0000       1.417302        38.5668 
 207   0.0000       1.424192        38.7542 
 208   0.0000       1.436682        39.0941 
 209   0.0000       1.447650        39.3926 
 210   0.0000       1.461364        39.7657 
 211   0.0000       1.472056        40.0567 
 212   0.0000       1.474621        40.1265 
 213   0.0000       1.479956        40.2716 
 214   0.0000       1.486181        40.4410 
 215   0.0000       1.502230        40.8777 
 216   0.0000       1.507879        41.0315 
 217   0.0000       1.520829        41.3839 
 218   0.0000       1.533173        41.7198 
 219   0.0000       1.534410        41.7534 
 220   0.0000       1.546030        42.0696 
 221   0.0000       1.561310        42.4854 
 222   0.0000       1.576735        42.9051 
 223   0.0000       1.588007        43.2119 
 224   0.0000       1.608959        43.7820 
 225   0.0000       1.610193        43.8156 
 226   0.0000       1.616946        43.9993 
 227   0.0000       1.624213        44.1971 
 228   0.0000       1.629655        44.3452 
 229   0.0000       1.645038        44.7638 
 230   0.0000       1.656294        45.0700 
 231   0.0000       1.663873        45.2763 
 232   0.0000       1.687594        45.9218 
 233   0.0000       1.700618        46.2762 
 234   0.0000       1.706138        46.4264 
 235   0.0000       1.736739        47.2591 
 236   0.0000       1.744350        47.4662 
 237   0.0000       1.761798        47.9409 
 238   0.0000       1.769391        48.1476 
 239   0.0000       1.781351        48.4730 
 240   0.0000       1.792626        48.7798 
 241   0.0000       1.801058        49.0093 
 242   0.0000       1.820839        49.5475 
 243   0.0000       1.832494        49.8647 
 244   0.0000       1.859520        50.6001 
 245   0.0000       1.866434        50.7883 
 246   0.0000       1.884199        51.2716 
 247   0.0000       1.922801        52.3221 
 248   0.0000       1.930998        52.5451 
 249   0.0000       1.957798        53.2744 
 250   0.0000       1.975098        53.7451 
 251   0.0000       1.984939        54.0129 
 252   0.0000       1.997341        54.3504 
 253   0.0000       2.020549        54.9819 
 254   0.0000       2.055628        55.9365 
 255   0.0000       2.063147        56.1411 
 256   0.0000       2.079834        56.5952 
 257   0.0000       2.102116        57.2015 
 258   0.0000       2.112643        57.4879 
 259   0.0000       2.127475        57.8915 
 260   0.0000       2.140516        58.2464 
 261   0.0000       2.158133        58.7258 
 262   0.0000       2.180170        59.3254 
 263   0.0000       2.185083        59.4591 
 264   0.0000       2.188703        59.5576 
 265   0.0000       2.210200        60.1426 
 266   0.0000       2.222225        60.4698 
 267   0.0000       2.238902        60.9236 
 268   0.0000       2.266569        61.6765 
 269   0.0000       2.274825        61.9011 
 270   0.0000       2.285968        62.2043 
 271   0.0000       2.294828        62.4454 
 272   0.0000       2.301081        62.6156 
 273   0.0000       2.321468        63.1704 
 274   0.0000       2.324103        63.2421 
 275   0.0000       2.330196        63.4078 
 276   0.0000       2.342337        63.7382 
 277   0.0000       2.355949        64.1086 
 278   0.0000       2.363287        64.3083 
 279   0.0000       2.400269        65.3147 
 280   0.0000       2.404141        65.4200 
 281   0.0000       2.412973        65.6603 
 282   0.0000       2.421001        65.8788 
 283   0.0000       2.426993        66.0418 
 284   0.0000       2.434819        66.2548 
 285   0.0000       2.471194        67.2446 
 286   0.0000       2.531221        68.8780 
 287   0.0000       2.535283        68.9886 
 288   0.0000       2.570730        69.9531 
 289   0.0000       2.582779        70.2810 
 290   0.0000       2.599613        70.7391 
 291   0.0000       2.614173        71.1353 
 292   0.0000       2.640536        71.8527 
 293   0.0000       2.659034        72.3560 
 294   0.0000       2.680998        72.9537 
 295   0.0000       2.705814        73.6290 
 296   0.0000       2.738305        74.5131 
 297   0.0000       2.892013        78.6957 
 298   0.0000       2.934862        79.8617 
 299   0.0000       3.012835        81.9834 
 300   0.0000       3.022403        82.2438 
 301   0.0000       3.271769        89.0294 
 302   0.0000       3.327759        90.5529 
 303   0.0000       3.346811        91.0714 
 304   0.0000       3.355173        91.2989 
 305   0.0000       4.635319       126.1334 
 306   0.0000       4.687070       127.5417 
 307   0.0000       4.827907       131.3740 
 308   0.0000       4.864138       132.3599 
 309   0.0000       4.899105       133.3114 
 310   0.0000       4.903270       133.4247 
 311   0.0000       4.915139       133.7477 
 312   0.0000       4.935919       134.3132 
 313   0.0000       4.942446       134.4908 
 314   0.0000       4.965834       135.1272 
 315   0.0000       5.004885       136.1898 
 316   0.0000       5.043202       137.2325 
 317   0.0000       5.046726       137.3284 
 318   0.0000       5.061755       137.7373 
 319   0.0000       5.100989       138.8050 
 320   0.0000       5.132125       139.6522 
 321   0.0000       5.141143       139.8976 
 322   0.0000       5.162530       140.4796 
 323   0.0000       5.194486       141.3492 
 324   0.0000       5.199821       141.4943 
 325   0.0000       5.274207       143.5185 
 326   0.0000       5.283795       143.7794 
 327   0.0000       5.326121       144.9311 
 328   0.0000       5.491496       149.4312 
 329   0.0000       5.532948       150.5592 
 330   0.0000       5.606116       152.5502 
 331   0.0000       5.647891       153.6869 
 332   0.0000       5.735304       156.0655 
 333   0.0000       7.001340       190.5161 
 334   0.0000       7.223352       196.5574 
 335   0.0000       7.234673       196.8655 
 336   0.0000       8.999689       244.8940 
 337   0.0000       9.023428       245.5400 
 338   0.0000      29.477144       802.1139 
 339   0.0000      29.541592       803.8676 
 340   0.0000      29.603898       805.5630 
 341   0.0000      29.752535       809.6076 
 342   0.0000      29.832662       811.7880 
 343   0.0000      29.921167       814.1964 
 344   0.0000      29.994487       816.1915 
 345   0.0000      30.043655       817.5294 
 346   0.0000      30.130328       819.8879 
 347   0.0000      36.239791       986.1348 
 348   0.0000      36.276066       987.1219 
 349   0.0000      36.441851       991.6332 
 350   0.0000      36.487169       992.8663 
 351   0.0000      36.526205       993.9286 
 352   0.0000      36.534597       994.1569 
 353   0.0000      36.544201       994.4183 
 354   0.0000      36.557071       994.7685 
 355   0.0000      36.583581       995.4899 
 356   0.0000      36.591153       995.6959 
 357   0.0000      36.623801       996.5843 
 358   0.0000      36.629234       996.7321 
 359   0.0000      36.661435       997.6084 
 360   0.0000      36.687862       998.3275 
 361   0.0000      36.720553       999.2170 
 362   0.0000      36.742142       999.8045 
 363   0.0000      36.806723      1001.5619 
 364   0.0000      36.826489      1002.0997 
 365   0.0000      36.845591      1002.6195 
 366   0.0000      40.932158      1113.8206 
 367   0.0000      41.161937      1120.0733 
 368   0.0000      41.177347      1120.4926 
 369   0.0000      53.537092      1456.8183 
 370   0.0000      53.556002      1457.3329 

                    ********************************
                    * MULLIKEN POPULATION ANALYSIS *
                    ********************************

--------------------------------------------
MULLIKEN ATOMIC CHARGES AND SPIN POPULATIONS
--------------------------------------------
   0 N :   -0.138250    0.021292
   1 C :   -0.097280   -0.056113
   2 C :    0.057014    0.022795
   3 O :   -0.324575    0.015612
   4 C :   -0.075465    0.980365
   5 C :   -0.205880   -0.051804
   6 C :   -0.280558    0.005023
   7 C :   -0.287473   -0.000329
   8 N :   -0.370442    0.000013
   9 H :    0.102464   -0.049713
  10 H :    0.181517    0.019990
  11 H :    0.160530    0.050179
  12 H :    0.163540    0.000010
  13 H :    0.166839    0.000664
  14 H :    0.222018    0.000157
  15 H :    0.219951    0.000178
  16 H :    0.334211    0.000109
  17 H :    0.335681    0.000063
  18 H :    0.255684   -0.000753
  19 C :    0.168757   -0.000287
  20 N :   -0.088915    0.015346
  21 H :    0.235275   -0.000264
  22 O :   -0.309592    0.013247
  23 H :    0.334960    0.000017
  24 C :   -0.447804   -0.000115
  25 H :    0.178940    0.000231
  26 H :    0.167903    0.001177
  27 H :    0.199118    0.000251
  28 C :   -0.543039    0.004035
  29 H :    0.199486   -0.000235
  30 H :    0.151629    0.000153
  31 H :    0.184050    0.000588
  32 H :    0.149702    0.008117
Sum of atomic charges         :    1.0000000
Sum of atomic spin populations:    1.0000000

-----------------------------------------------------
MULLIKEN REDUCED ORBITAL CHARGES AND SPIN POPULATIONS
-----------------------------------------------------
CHARGE
[...]
     CP-SCF ITERATION   1:   6.8730e-04 (   0.5 sec   3/  3 done)
                    *** THE CP-SCF HAS CONVERGED ***

Forming final perturbed densities           ... done
Transforming perturbed density to AO basis  ... done

 Raw HFC matrix (all values in MHz): 
 -----------------------------------
                -0.1803              -0.6040               0.2835
                -0.6045               2.5135              -0.4530
                 0.2836              -0.4532              -0.4297

 A(FC)           0.6342               0.6342               0.6342
 A(SD)          -0.8380              -1.2500               2.0880
 A(ORB+DIA)     -0.0000              -0.0000               0.0009    A(PC) =   0.0003
 A(ORB)          0.0000              -0.0000               0.0007    A(PC) =   0.0002
 A(DIA)         -0.0000               0.0000               0.0002    A(PC) =   0.0000
             ----------           ----------           ----------
 A(Tot)         -0.2039              -0.6159               2.7231    A(iso)=    0.6345
 Orientation: 
  X           0.8240048           -0.5238496            0.2158648
  Y           0.2665228            0.0221715           -0.9635736
  Z           0.4999816            0.8515222            0.1578873

Notes:  (1) The A matrix conforms to the "SAI" spin Hamiltonian convention.
        (2) Tensor is right-handed.

 -----------------------------------------------------------
 Nucleus  16H : A:ISTP=    1 I=  0.5 P=533.5514 MHz/au**3
                Q:ISTP=    2 I=  1.0 Q=  0.0029 barn     
 -----------------------------------------------------------
 Solving for nuclear perturbation:
Forming RHS of the CP-SCF equations         ... 
Calc. nucleus orbit integrals (SHARK)       ... done

------------------------------------------------------------------------------
                           ORCA CP-SCF CALCULATION
------------------------------------------------------------------------------

Input orbitals are from        ... epr_info.gbw
Input Perturbation             ... epr_info.pin.tmp
Wavefunction output            ... epr_info.pout.tmp
Perturbation mode              ... Imaginary perturbation
Solver                         ... POPLE
Max. number of iterations      ... 64
Convergence tolerance          ... 1.000e-03
Integral handling              ... Direct
DFT GridXC                     ... 1
COSX GridX                     ... 1
COSX IntAccX                   ... 3.067
COSX Algorithm                 ... Auto
Number of perturbations        ... 3
Number of operators            ... 2
Orbital ranges used for CP-SCF:
 Operator 0:  Orbitals   0... 54  to  55...370
 Operator 1:  Orbitals   0... 53  to  54...370
Variables per perturbation     ... 34498
DFT calculation                         ... on
XC functional terms                     ... off
Hybrid DFT                              ... on
   Exchange mixing (SCF)                ...  0.200
   Exchange mixing (CP-SCF)             ...  0.200
   GGA exch. scaling(SCF)               ...  0.720
   GGA exch. scaling (CP-SCF)           ...  0.720
   GGA corr. scaling (SCF)              ...  0.810
   GGA corr. scaling (CP-SCF)           ...  0.810

CP-SCF GRID
-----------

General Integration Accuracy     IntAcc      ... 3.467
Radial Grid Type                 RadialGrid  ... OptM3 with GC (2021)
Angular Grid (max. ang.)         AngularGrid ... 1 (Lebedev-50)
Angular grid pruning method      GridPruning ... 4 (adaptive)
Weight generation scheme         WeightScheme... Becke
Basis function cutoff            BFCut       ... 1.0000e-10
Integration weight cutoff        WCut        ... 1.0000e-14
Angular grids for H and He will be reduced by one unit
Partially contracted basis set               ... off
Rotationally invariant grid construction     ... off

Total number of grid points                  ...    20373
Total number of batches                      ...      332
Average number of points per batch           ...       61
Average number of grid points per atom       ...      617

CP-SCF GRIDX
------------

General Integration Accuracy     IntAcc      ... 3.067
Radial Grid Type                 RadialGrid  ... OptM3 with GC (2021)
Angular Grid (max. ang.)         AngularGrid ... 1 (Lebedev-50)
Angular grid pruning method      GridPruning ... 4 (adaptive)
Weight generation scheme         WeightScheme... Becke
Basis function cutoff            BFCut       ... 1.0000e-10
Integration weight cutoff        WCut        ... 1.0000e-14
Angular grids for H and He will be reduced by one unit
Partially contracted basis set               ... on
Rotationally invariant grid construction     ... off

Total number of grid points                  ...     9648
Total number of batches                      ...      169
Average number of points per batch           ...       57
Average number of grid points per atom       ...      292

Memory available               ... 921.4 MB
Memory needed per perturbation ...   8.2 MB
Perturbations treated per batch... 3
Number of batches              ... 1
     CP-SCF ITERATION   0:   4.2936e-02 (   0.5 sec   0/  3 done)
     CP-SCF ITERATION   1:   6.2135e-04 (   0.5 sec   3/  3 done)
                    *** THE CP-SCF HAS CONVERGED ***

Forming final perturbed densities           ... done
Transforming perturbed density to AO basis  ... done

 Raw HFC matrix (all values in MHz): 
 -----------------------------------
                -0.1271               0.0325               0.0110
                 0.0325               0.9590              -0.1098
                 0.0109              -0.1099              -0.1212

 A(FC)           0.2368               0.2368               0.2368
 A(SD)          -0.3526              -0.3812               0.7338
 A(ORB+DIA)     -0.0000               0.0000               0.0004    A(PC) =   0.0001
 A(ORB)          0.0000               0.0000               0.0003    A(PC) =   0.0001
 A(DIA)         -0.0000              -0.0000               0.0001    A(PC) =   0.0000
             ----------           ----------           ----------
 A(Tot)         -0.1159              -0.1445               0.9709    A(iso)=    0.2369
 Orientation: 
  X           0.7579308           -0.6517147           -0.0284397
  Y           0.0435665            0.0940701           -0.9946119
  Z           0.6508785            0.7526080            0.0996916

Notes:  (1) The A matrix conforms to the "SAI" spin Hamiltonian convention.
        (2) Tensor is right-handed.

 -----------------------------------------------------------
 Nucleus  17H : A:ISTP=    1 I=  0.5 P=533.5514 MHz/au**3
                Q:ISTP=    2 I=  1.0 Q=  0.0029 barn     
 -----------------------------------------------------------
 Solving for nuclear perturbation:
Forming RHS of the CP-SCF equations         ... 
Calc. nucleus orbit integrals (SHARK)       ... done

------------------------------------------------------------------------------
                           ORCA CP-SCF CALCULATION
------------------------------------------------------------------------------

Input orbitals are from        ... epr_info.gbw
Input Perturbation             ... epr_info.pin.tmp
Wavefunction output            ... epr_info.pout.tmp
Perturbation mode              ... Imaginary perturbation
Solver                         ... POPLE
Max. number of iterations      ... 64
Convergence tolerance          ... 1.000e-03
Integral handling              ... Direct
DFT GridXC                     ... 1
COSX GridX                     ... 1
COSX IntAccX                   ... 3.067
COSX Algorithm                 ... Auto
Number of perturbations        ... 3
Number of operators            ... 2
Orbital ranges used for CP-SCF:
 Operator 0:  Orbitals   0... 54  to  55...370
 Operator 1:  Orbitals   0... 53  to  54...370
Variables per perturbation     ... 34498
DFT calculation                         ... on
XC functional terms                     ... off
Hybrid DFT                              ... on
   Exchange mixing (SCF)                ...  0.200
   Exchange mixing (CP-SCF)             ...  0.200
   GGA exch. scaling(SCF)               ...  0.720
   GGA exch. scaling (CP-SCF)           ...  0.720
   GGA corr. scaling (SCF)              ...  0.810
   GGA corr. scaling (CP-SCF)           ...  0.810

CP-SCF GRID
-----------

General Integration Accuracy     IntAcc      ... 3.467
Radial Grid Type                 RadialGrid  ... OptM3 with GC (2021)
Angular Grid (max. ang.)         AngularGrid ... 1 (Lebedev-50)
Angular grid pruning method      GridPruning ... 4 (adaptive)
Weight generation scheme         WeightScheme... Becke
Basis function cutoff            BFCut       ... 1.0000e-10
Integration weight cutoff        WCut        ... 1.0000e-14
Angular grids for H and He will be reduced by one unit
Partially contracted basis set               ... off
Rotationally invariant grid construction     ... off

Total number of grid points                  ...    20373
Total number of batches                      ...      332
Average number of points per batch           ...       61
Average number of grid points per atom       ...      617

CP-SCF GRIDX
------------

General Integration Accuracy     IntAcc      ... 3.067
Radial Grid Type                 RadialGrid  ... OptM3 with GC (2021)
Angular Grid (max. ang.)         AngularGrid ... 1 (Lebedev-50)
Angular grid pruning method      GridPruning ... 4 (adaptive)
Weight generation scheme         WeightScheme... Becke
Basis function cutoff            BFCut       ... 1.0000e-10
Integration weight cutoff        WCut        ... 1.0000e-14
Angular grids for H and He will be reduced by one unit
Partially contracted basis set               ... on
Rotationally invariant grid construction     ... off

Total number of grid points                  ...     9648
Total number of batches                      ...      169
Average number of points per batch           ...       57
Average number of grid points per atom       ...      292

Memory available               ... 921.1 MB
Memory needed per perturbation ...   8.2 MB
Perturbations treated per batch... 3
Number of batches              ... 1
     CP-SCF ITERATION   0:   4.2199e-02 (   0.5 sec   0/  3 done)
     CP-SCF ITERATION   1:   6.3024e-04 (   0.5 sec   3/  3 done)
                    *** THE CP-SCF HAS CONVERGED ***

Forming final perturbed densities           ... done
Transforming perturbed density to AO basis  ... done

 Raw HFC matrix (all values in MHz): 
 -----------------------------------
                -0.4247               0.2282              -0.0688
                 0.2282               0.9025              -0.4898
                -0.0689              -0.4898              -0.3367

 A(FC)           0.0469               0.0469               0.0469
 A(SD)          -0.5065              -0.5558               1.0623
 A(ORB+DIA)     -0.0001              -0.0001               0.0005    A(PC) =   0.0001
 A(ORB)          0.0000              -0.0000               0.0004    A(PC) =   0.0001
 A(DIA)         -0.0001              -0.0001               0.0001    A(PC) =  -0.0000
             ----------           ----------           ----------
 A(Tot)         -0.4596              -0.5090               1.1097    A(iso)=    0.0470
 Orientation: 
  X           0.9675430           -0.2008610           -0.1533472
  Y          -0.0753378            0.3499565           -0.9337316
  Z           0.2412151            0.9149783            0.3234656

Notes:  (1) The A matrix conforms to the "SAI" spin Hamiltonian convention.
        (2) Tensor is right-handed.

 -----------------------------------------------------------
 Nucleus  23H : A:ISTP=    1 I=  0.5 P=533.5514 MHz/au**3
                Q:ISTP=    2 I=  1.0 Q=  0.0029 barn     
 -----------------------------------------------------------
 Solving for nuclear perturbation:
Forming RHS of the CP-SCF equations         ... 
Calc. nucleus orbit integrals (SHARK)       ... done

------------------------------------------------------------------------------
                           ORCA CP-SCF CALCULATION
------------------------------------------------------------------------------

Input orbitals are from        ... epr_info.gbw
Input Perturbation             ... epr_info.pin.tmp
Wavefunction output            ... epr_info.pout.tmp
Perturbation mode              ... Imaginary perturbation
Solver                         ... POPLE
Max. number of iterations      ... 64
Convergence tolerance          ... 1.000e-03
Integral handling              ... Direct
DFT GridXC                     ... 1
COSX GridX                     ... 1
COSX IntAccX                   ... 3.067
COSX Algorithm                 ... Auto
Number of perturbations        ... 3
Number of operators            ... 2
Orbital ranges used for CP-SCF:
 Operator 0:  Orbitals   0... 54  to  55...370
 Operator 1:  Orbitals   0... 53  to  54...370
Variables per perturbation     ... 34498
DFT calculation                         ... on
XC functional terms                     ... off
Hybrid DFT                              ... on
   Exchange mixing (SCF)                ...  0.200
   Exchange mixing (CP-SCF)             ...  0.200
   GGA exch. scaling(SCF)               ...  0.720
   GGA exch. scaling (CP-SCF)           ...  0.720
   GGA corr. scaling (SCF)              ...  0.810
   GGA corr. scaling (CP-SCF)           ...  0.810

CP-SCF GRID
-----------

General Integration Accuracy     IntAcc      ... 3.467
Radial Grid Type                 RadialGrid  ... OptM3 with GC (2021)
Angular Grid (max. ang.)         AngularGrid ... 1 (Lebedev-50)
Angular grid pruning method      GridPruning ... 4 (adaptive)
Weight generation scheme         WeightScheme... Becke
Basis function cutoff            BFCut       ... 1.0000e-10
Integration weight cutoff        WCut        ... 1.0000e-14
Angular grids for H and He will be reduced by one unit
Partially contracted basis set               ... off
Rotationally invariant grid construction     ... off

Total number of grid points                  ...    20373
Total number of batches                      ...      332
Average number of points per batch           ...       61
Average number of grid points per atom       ...      617

CP-SCF GRIDX
------------

General Integration Accuracy     IntAcc      ... 3.067
Radial Grid Type                 RadialGrid  ... OptM3 with GC (2021)
Angular Grid (max. ang.)         AngularGrid ... 1 (Lebedev-50)
Angular grid pruning method      GridPruning ... 4 (adaptive)
Weight generation scheme         WeightScheme... Becke
Basis function cutoff            BFCut       ... 1.0000e-10
Integration weight cutoff        WCut        ... 1.0000e-14
Angular grids for H and He will be reduced by one unit
Partially contracted basis set               ... on
Rotationally invariant grid construction     ... off

Total number of grid points                  ...     9648
Total number of batches                      ...      169
Average number of points per batch           ...       57
Average number of grid points per atom       ...      292

Memory available               ... 920.7 MB
Memory needed per perturbation ...   8.2 MB
Perturbations treated per batch... 3
Number of batches              ... 1
     CP-SCF ITERATION   0:   4.1044e-02 (   0.5 sec   0/  3 done)
     CP-SCF ITERATION   1:   5.8352e-04 (   0.5 sec   3/  3 done)
                    *** THE CP-SCF HAS CONVERGED ***

Forming final perturbed densities           ... done
Transforming perturbed density to AO basis  ... done

 Raw HFC matrix (all values in MHz): 
 -----------------------------------
                -0.1839               0.4009              -0.0050
                 0.4012               1.1809              -0.0501
                -0.0051              -0.0503              -0.3147

 A(FC)           0.2273               0.2273               0.2273
 A(SD)          -0.5177              -0.5461               1.0638
 A(ORB+DIA)     -0.0000              -0.0001               0.0005    A(PC) =   0.0001
 A(ORB)          0.0000              -0.0000               0.0004    A(PC) =   0.0001
 A(DIA)         -0.0001              -0.0001               0.0001    A(PC) =  -0.0000
             ----------           ----------           ----------
 A(Tot)         -0.2904              -0.3189               1.2916    A(iso)=    0.2274
 Orientation: 
  X           0.9205781           -0.2894707           -0.2621883
  Y          -0.2403775            0.1091648           -0.9645215
  Z           0.3078224            0.9509415            0.0309124

Notes:  (1) The A matrix conforms to the "SAI" spin Hamiltonian convention.
        (2) Tensor is right-handed.


--------------------------------------------------------------------------------
----------------------------------------------------------------------------
                           ORCA EULER ANGLE PROGRAM
----------------------------------------------------------------------------

Only g-tensor available        -->  using g-tensor as reference tensor

Reference tensor               ...  g

g-tensor ordering              ...  |g_min> --> |gx>
                                    |g_mid> --> |gy>
                                    |g_max> --> |gz>

A- and EFG-tensor ordering     ...  the axes |Ax>, |Qx>, |Ay>, etc. are assigned
                                    such that the Euler rotation is minimal. You
                                    can find the respective eigenvalues as Ax,
                                    EFGx, Ay, etc. in the tables below.
                                    The relation of |Ax>, |Ay>,  etc. to Amin, Amid, etc.
                                    (as printed in the ORCA EPR/NMR CALCULATION Output)
                                    is obtained in the detailed printout.

Euler rotation around          ...  z - y - z
   First rotation              -->  by alpha around z
   Second rotation             -->  by beta around y'
   Third rotation              -->  by gamma around z''
   Positive / Negative angle   -->  clockwise / counterclockwise rotation

Plot EFG-tensors                    (-)
Plot HFC-tensors                    (-)
Detailed Printout                   (-)

-------------------------------------------------------------------------
          Euler rotation of hyperfine tensor to g-tensor
-------------------------------------------------------------------------

-------------------------------------------------------------------
 Atom  |   Alpha    Beta    Gamma   |   Ax       Ay       Az 
       |          [degrees]         |           [MHz]         
-------------------------------------------------------------------
  8N      137.4     10.8   -138.3      -0.50    -0.62     1.00
 10H     -124.2     38.2    118.6      47.64    61.42    48.09
 11H       36.9     44.7    -59.7     112.76   110.87   124.49
 12H      -81.1     17.7     80.6      -3.74    -4.02     4.46
 13H      151.7     28.9    170.3      -4.18    -5.30     4.55
 14H       93.7     30.2   -119.9      -0.42    -0.40     2.54
 15H       60.6     15.0    -76.2      -0.20    -0.62     2.72
 16H      135.0     10.6   -143.3      -0.12    -0.14     0.97
 17H     -148.9      8.5    112.1      -0.46    -0.51     1.11
 23H      151.3     20.3    175.3      -0.29    -0.32     1.29
-------------------------------------------------------------------


Maximum memory used throughout the entire EPRNMR-calculation: 137.2 MB

Timings for individual modules:

Sum of individual times         ...      328.794 sec (=   5.480 min)
GTO integral calculation        ...        3.636 sec (=   0.061 min)   1.1 %
Spin-Orbit-Coupling Matrices    ...        4.759 sec (=   0.079 min)   1.4 %
SCF iterations                  ...       24.562 sec (=   0.409 min)   7.5 %
EPR/NMR calculation             ...      295.836 sec (=   4.931 min)  90.0 %
                             ****ORCA TERMINATED NORMALLY****
TOTAL RUN TIME: 0 days 0 hours 5 minutes 31 seconds 427 msec
