
                                 *****************
                                 * O   R   C   A *
                                 *****************

                                            #,                                       
                                            ###                                      
                                            ####                                     
                                            #####                                    
                                            ######                                   
                                           ########,                                 
                                     ,,################,,,,,                         
                               ,,#################################,,                 
                          ,,##########################################,,             
                       ,#########################################, ''#####,          
                    ,#############################################,,   '####,        
                  ,##################################################,,,,####,       
                ,###########''''           ''''###############################       
              ,#####''   ,,,,##########,,,,          '''####'''          '####       
            ,##' ,,,,###########################,,,                        '##       
           ' ,,###''''                  '''############,,,                           
         ,,##''                                '''############,,,,        ,,,,,,###''
      ,#''                                            '''#######################'''  
     '                                                          ''''####''''         
             ,#######,   #######,   ,#######,      ##                                
            ,#'     '#,  ##    ##  ,#'     '#,    #''#        ######   ,####,        
            ##       ##  ##   ,#'  ##            #'  '#       #        #'  '#        
            ##       ##  #######   ##           ,######,      #####,   #    #        
            '#,     ,#'  ##    ##  '#,     ,#' ,#      #,         ##   #,  ,#        
             '#######'   ##     ##  '#######'  #'      '#     #####' # '####'        



                  #######################################################
                  #                        -***-                        #
                  #          Department of theory and spectroscopy      #
                  #    Directorship and core code : Frank Neese         #
                  #        Max Planck Institute fuer Kohlenforschung    #
                  #                Kaiser Wilhelm Platz 1               #
                  #                 D-45470 Muelheim/Ruhr               #
                  #                      Germany                        #
                  #                                                     #
                  #                  All rights reserved                #
                  #                        -***-                        #
                  #######################################################


                         Program Version 5.0.4 -  RELEASE  -


 With contributions from (in alphabetic order):
   Daniel Aravena         : Magnetic Suceptibility
   Michael Atanasov       : Ab Initio Ligand Field Theory (pilot matlab implementation)
   Alexander A. Auer      : GIAO ZORA, VPT2 properties, NMR spectrum
   Ute Becker             : Parallelization
   Giovanni Bistoni       : ED, misc. LED, open-shell LED, HFLD
   Martin Brehm           : Molecular dynamics
   Dmytro Bykov           : SCF Hessian
   Vijay G. Chilkuri      : MRCI spin determinant printing, contributions to CSF-ICE
   Dipayan Datta          : RHF DLPNO-CCSD density
   Achintya Kumar Dutta   : EOM-CC, STEOM-CC
   Dmitry Ganyushin       : Spin-Orbit,Spin-Spin,Magnetic field MRCI
   Miquel Garcia          : C-PCM and meta-GGA Hessian, CC/C-PCM, Gaussian charge scheme
   Yang Guo               : DLPNO-NEVPT2, F12-NEVPT2, CIM, IAO-localization
   Andreas Hansen         : Spin unrestricted coupled pair/coupled cluster methods
   Benjamin Helmich-Paris : MC-RPA, TRAH-SCF, COSX integrals
   Lee Huntington         : MR-EOM, pCC
   Robert Izsak           : Overlap fitted RIJCOSX, COSX-SCS-MP3, EOM
   Marcus Kettner         : VPT2
   Christian Kollmar      : KDIIS, OOCD, Brueckner-CCSD(T), CCSD density, CASPT2, CASPT2-K
   Simone Kossmann        : Meta GGA functionals, TD-DFT gradient, OOMP2, MP2 Hessian
   Martin Krupicka        : Initial AUTO-CI
   Lucas Lang             : DCDCAS
   Marvin Lechner         : AUTO-CI (C++ implementation), FIC-MRCC
   Dagmar Lenk            : GEPOL surface, SMD
   Dimitrios Liakos       : Extrapolation schemes; Compound Job, initial MDCI parallelization
   Dimitrios Manganas     : Further ROCIS development; embedding schemes
   Dimitrios Pantazis     : SARC Basis sets
   Anastasios Papadopoulos: AUTO-CI, single reference methods and gradients
   Taras Petrenko         : DFT Hessian,TD-DFT gradient, ASA, ECA, R-Raman, ABS, FL, XAS/XES, NRVS
   Peter Pinski           : DLPNO-MP2, DLPNO-MP2 Gradient
   Christoph Reimann      : Effective Core Potentials
   Marius Retegan         : Local ZFS, SOC
   Christoph Riplinger    : Optimizer, TS searches, QM/MM, DLPNO-CCSD(T), (RO)-DLPNO pert. Triples
   Tobias Risthaus        : Range-separated hybrids, TD-DFT gradient, RPA, STAB
   Michael Roemelt        : Original ROCIS implementation
   Masaaki Saitow         : Open-shell DLPNO-CCSD energy and density
   Barbara Sandhoefer     : DKH picture change effects
   Avijit Sen             : IP-ROCIS
   Kantharuban Sivalingam : CASSCF convergence, NEVPT2, FIC-MRCI
   Bernardo de Souza      : ESD, SOC TD-DFT
   Georgi Stoychev        : AutoAux, RI-MP2 NMR, DLPNO-MP2 response
   Willem Van den Heuvel  : Paramagnetic NMR
   Boris Wezisla          : Elementary symmetry handling
   Frank Wennmohs         : Technical directorship


 We gratefully acknowledge several colleagues who have allowed us to
 interface, adapt or use parts of their codes:
   Stefan Grimme, W. Hujo, H. Kruse, P. Pracht,  : VdW corrections, initial TS optimization,
                  C. Bannwarth, S. Ehlert          DFT functionals, gCP, sTDA/sTD-DF
   Ed Valeev, F. Pavosevic, A. Kumar             : LibInt (2-el integral package), F12 methods
   Garnet Chan, S. Sharma, J. Yang, R. Olivares  : DMRG
   Ulf Ekstrom                                   : XCFun DFT Library
   Mihaly Kallay                                 : mrcc  (arbitrary order and MRCC methods)
   Jiri Pittner, Ondrej Demel                    : Mk-CCSD
   Frank Weinhold                                : gennbo (NPA and NBO analysis)
   Christopher J. Cramer and Donald G. Truhlar   : smd solvation model
   Lars Goerigk                                  : TD-DFT with DH, B97 family of functionals
   V. Asgeirsson, H. Jonsson                     : NEB implementation
   FAccTs GmbH                                   : IRC, NEB, NEB-TS, DLPNO-Multilevel, CI-OPT
                                                   MM, QMMM, 2- and 3-layer-ONIOM, Crystal-QMMM,
                                                   LR-CPCM, SF, NACMEs, symmetry and pop. for TD-DFT,
                                                   nearIR, NL-DFT gradient (VV10), updates on ESD,
                                                   ML-optimized integration grids
   S Lehtola, MJT Oliveira, MAL Marques          : LibXC Library
   Liviu Ungur et al                             : ANISO software


 Your calculation uses the libint2 library for the computation of 2-el integrals
 For citations please refer to: http://libint.valeyev.net

 Your ORCA version has been built with support for libXC version: 5.1.0
 For citations please refer to: https://tddft.org/programs/libxc/

 This ORCA versions uses:
   CBLAS   interface :  Fast vector & matrix operations
   LAPACKE interface :  Fast linear algebra routines
   SCALAPACK package :  Parallel linear algebra routines
   Shared memory     :  Shared parallel matrices
   BLAS/LAPACK       :  OpenBLAS 0.3.15  USE64BITINT DYNAMIC_ARCH NO_AFFINITY Zen SINGLE_THREADED
        Core in use  :  Zen
   Copyright (c) 2011-2014, The OpenBLAS Project




***************************************
The coordinates will be read from file: opt.xyz
***************************************


XCFun DFT library Copyright 2009-2010 Ulf Ekstrom and contributors.
See http://admol.org/xcfun for more information.
This is free software; see the source code for copying conditions.
There is ABSOLUTELY NO WARRANTY; not even for MERCHANTABILITY or FITNESS FOR A PARTICULAR PURPOSE.
For details see the documentation.
Scientific users of this library should cite U. Ekstrom, L. Visscher, R. Bast, A. J. Thorvaldsen and K. Ruud;
J.Chem.Theor.Comp. 2010, DOI: 10.1021/ct100117s
XCFun Version 0.99 

================================================================================

----- Orbital basis set information -----
Your calculation utilizes the basis: def2-TZVP
   F. Weigend and R. Ahlrichs, Phys. Chem. Chem. Phys. 7, 3297 (2005).

----- AuxJ basis set information -----
Your calculation utilizes the auxiliary basis: def2/J
   F. Weigend, Phys. Chem. Chem. Phys. 8, 1057 (2006).

================================================================================
                                        WARNINGS
                       Please study these warnings very carefully!
================================================================================


WARNING: your system is open-shell and RHF/RKS was chosen
  ===> : WILL SWITCH to UHF/UKS


WARNING: Geometry Optimization
  ===> : Switching off AutoStart
         For restart on a previous wavefunction, please use MOREAD

WARNING: Minnesota functionals are quite sensitive to the integration grid.
         see SE Wheeler, KN Houk, JCTC 2010, 6, 395,
             N Mardirossian, M Head-Gordon, JCTC 2016, 12, 4303.
         DEFGRID3 seems to be a minimum grid for reliable results with these functionals!
  ===> : Please increase the integration grid!


INFO   : the flag for use of the SHARK integral package has been found!

================================================================================
                                       INPUT FILE
================================================================================
NAME = freq.inp
|  1> ! M062X def2-TZVP OPT FREQ
|  2> %pal nprocs 16 end
|  3> *XYZFile 1 2 opt.xyz
|  4> 
|  5>                          ****END OF INPUT****
================================================================================

                       *****************************
                       * Geometry Optimization Run *
                       *****************************

Geometry optimization settings:
Update method            Update   .... BFGS
Choice of coordinates    CoordSys .... Z-matrix Internals
Initial Hessian          InHess   .... Almoef's Model

Convergence Tolerances:
Energy Change            TolE     ....  5.0000e-06 Eh
Max. Gradient            TolMAXG  ....  3.0000e-04 Eh/bohr
RMS Gradient             TolRMSG  ....  1.0000e-04 Eh/bohr
Max. Displacement        TolMAXD  ....  4.0000e-03 bohr
RMS Displacement         TolRMSD  ....  2.0000e-03 bohr
Strict Convergence                ....  False
------------------------------------------------------------------------------
                        ORCA OPTIMIZATION COORDINATE SETUP
------------------------------------------------------------------------------

The optimization will be done in new redundant internal coordinates
Making redundant internal coordinates   ...  (new redundants) done
Evaluating the initial hessian          ...  (Almloef) done
Evaluating the coordinates              ...  done
Calculating the B-matrix                .... done
Calculating the G-matrix                .... done
Diagonalizing the G-matrix              .... done
Small eigenvalue found = 4.117e-03
Small eigenvalue found = 8.680e-03
Small eigenvalue found = 9.525e-03
Small eigenvalue found = 2.097e-02
Small eigenvalue found = 2.723e-02
The first mode is                       ....   67
The number of degrees of freedom        ....   93

    -----------------------------------------------------------------
                    Redundant Internal Coordinates


    -----------------------------------------------------------------
         Definition                    Initial Value    Approx d2E/dq
    -----------------------------------------------------------------
      1. B(C   1,N   0)                  1.4619         0.429672   
      2. B(C   2,C   1)                  1.5534         0.342859   
      3. B(O   3,C   2)                  1.2328         0.996947   
      4. B(C   4,C   1)                  1.5093         0.403035   
      5. B(C   5,C   4)                  1.4998         0.417370   
      6. B(C   6,C   5)                  1.5437         0.355222   
      7. B(C   7,C   6)                  1.5278         0.376619   
      8. B(N   8,C   7)                  1.5345         0.329161   
      9. B(H   9,C   4)                  1.0864         0.364861   
     10. B(H  10,C   5)                  1.0984         0.349210   
     11. B(H  11,C   5)                  1.1029         0.343493   
     12. B(H  12,C   6)                  1.0984         0.349216   
     13. B(H  13,C   6)                  1.0978         0.349951   
     14. B(H  14,C   7)                  1.0925         0.356805   
     15. B(H  15,C   7)                  1.0925         0.356852   
     16. B(H  16,N   8)                  1.0250         0.409579   
     17. B(H  17,N   8)                  1.0251         0.409322   
     18. B(H  18,N   0)                  1.0108         0.431410   
     19. B(C  19,N   0)                  1.3706         0.600999   
     20. B(N  20,C   2)                  1.3584         0.628476   
     21. B(H  21,N  20)                  1.0092         0.434046   
     22. B(O  22,C  19)                  1.2316         1.001375   
     23. B(H  23,N   8)                  1.0250         0.409499   
     24. B(C  24,N  20)                  1.4625         0.428719   
     25. B(H  25,C  24)                  1.0942         0.354536   
     26. B(H  26,C  24)                  1.0941         0.354664   
     27. B(H  27,C  24)                  1.0898         0.360419   
     28. B(C  28,C  19)                  1.5233         0.382822   
     29. B(H  29,C  28)                  1.0944         0.354377   
     30. B(H  30,C  28)                  1.0931         0.356011   
     31. B(H  31,C  28)                  1.0921         0.357282   
     32. B(H  32,C   1)                  1.0964         0.351789   
     33. A(C   1,N   0,H  18)          116.7245         0.337022   
     34. A(H  18,N   0,C  19)          121.0919         0.356593   
     35. A(C   1,N   0,C  19)          121.7644         0.399185   
     36. A(C   2,C   1,C   4)          108.9010         0.362738   
     37. A(N   0,C   1,C   2)          106.3422         0.364447   
     38. A(N   0,C   1,H  32)          109.2572         0.328621   
     39. A(C   4,C   1,H  32)          108.3202         0.327135   
     40. A(N   0,C   1,C   4)          113.6617         0.374715   
     41. A(C   2,C   1,H  32)          110.3441         0.318577   
     42. A(C   1,C   2,N  20)          115.3596         0.389205   
     43. A(O   3,C   2,N  20)          124.5344         0.468096   
     44. A(C   1,C   2,O   3)          120.0690         0.422251   
     45. A(C   1,C   4,C   5)          120.3452         0.375197   
     46. A(C   5,C   4,H   9)          119.8911         0.331016   
     47. A(C   1,C   4,H   9)          118.5671         0.329109   
     48. A(H  10,C   5,H  11)          106.4609         0.287311   
     49. A(C   6,C   5,H  11)          108.6037         0.319178   
     50. A(C   4,C   5,H  11)          109.2728         0.327733   
     51. A(C   6,C   5,H  10)          110.1678         0.320040   
     52. A(C   4,C   5,H  10)          109.6731         0.328627   
     53. A(C   4,C   5,C   6)          112.4725         0.367133   
     54. A(C   5,C   6,C   7)          110.4890         0.360740   
     55. A(H  12,C   6,H  13)          107.8167         0.288149   
     56. A(C   7,C   6,H  13)          109.9675         0.323231   
     57. A(C   5,C   6,H  13)          109.6871         0.320150   
     58. A(C   7,C   6,H  12)          109.6598         0.323119   
     59. A(C   5,C   6,H  12)          109.1721         0.320040   
     60. A(H  14,C   7,H  15)          109.0049         0.290007   
     61. A(N   8,C   7,H  15)          105.9264         0.315327   
     62. A(C   6,C   7,H  15)          112.3408         0.324268   
     63. A(N   8,C   7,H  14)          106.0315         0.315320   
     64. A(C   6,C   7,H  14)          112.4985         0.324261   
     65. A(C   6,C   7,N   8)          110.6433         0.353896   
     66. A(H  16,N   8,H  17)          108.0231         0.297965   
     67. A(C   7,N   8,H  17)          110.5730         0.319744   
     68. A(C   7,N   8,H  16)          112.0367         0.319777   
     69. A(H  17,N   8,H  23)          107.3333         0.297956   
     70. A(H  16,N   8,H  23)          108.0186         0.297986   
     71. A(C   7,N   8,H  23)          110.6847         0.319766   
     72. A(O  22,C  19,C  28)          122.4871         0.431015   
     73. A(N   0,C  19,C  28)          115.8382         0.393691   
     74. A(N   0,C  19,O  22)          121.6628         0.464656   
     75. A(H  21,N  20,C  24)          118.4956         0.337239   
     76. A(C   2,N  20,C  24)          123.2223         0.402182   
     77. A(C   2,N  20,H  21)          118.0426         0.359688   
     78. A(H  26,C  24,H  27)          109.4040         0.290186   
     79. A(H  25,C  24,H  27)          108.9810         0.290170   
     80. A(N  20,C  24,H  27)          107.9746         0.329818   
     81. A(H  25,C  24,H  26)          109.1057         0.289438   
     82. A(N  20,C  24,H  26)          110.5764         0.328942   
     83. A(N  20,C  24,H  25)          110.7669         0.328923   
     84. A(H  30,C  28,H  31)          109.8350         0.289961   
     85. A(H  29,C  28,H  31)          107.5332         0.289752   
     86. A(C  19,C  28,H  31)          108.9620         0.325204   
     87. A(H  29,C  28,H  30)          108.6594         0.289590   
     88. A(C  19,C  28,H  30)          113.4526         0.325014   
     89. A(C  19,C  28,H  29)          108.2201         0.324768   
     90. D(C   4,C   1,N   0,H  18)   -113.9630         0.015740   
     91. D(C   2,C   1,N   0,C  19)    178.4844         0.015740   
     92. D(C   2,C   1,N   0,H  18)      5.8412         0.015740   
     93. D(C   4,C   1,N   0,C  19)     58.6801         0.015740   
     94. D(H  32,C   1,N   0,H  18)    124.9327         0.015740   
     95. D(H  32,C   1,N   0,C  19)    -62.4242         0.015740   
     96. D(O   3,C   2,C   1,N   0)    -40.1705         0.008917   
     97. D(N  20,C   2,C   1,C   4)    -95.2041         0.008917   
     98. D(N  20,C   2,C   1,H  32)     23.5663         0.008917   
     99. D(O   3,C   2,C   1,H  32)   -158.5483         0.008917   
    100. D(O   3,C   2,C   1,C   4)     82.6813         0.008917   
    101. D(N  20,C   2,C   1,N   0)    141.9441         0.008917   
    102. D(C   5,C   4,C   1,C   2)    -78.7485         0.012047   
    103. D(C   5,C   4,C   1,N   0)     39.5938         0.012047   
    104. D(C   5,C   4,C   1,H  32)    161.2210         0.012047   
    105. D(H   9,C   4,C   1,H  32)     -6.2682         0.012047   
    106. D(H   9,C   4,C   1,C   2)    113.7623         0.012047   
    107. D(H   9,C   4,C   1,N   0)   -127.8954         0.012047   
    108. D(H  11,C   5,C   4,H   9)     93.9023         0.012886   
    109. D(H  11,C   5,C   4,C   1)    -73.4214         0.012886   
    110. D(H  10,C   5,C   4,H   9)   -149.7508         0.012886   
    111. D(C   6,C   5,C   4,H   9)    -26.7862         0.012886   
    112. D(C   6,C   5,C   4,C   1)    165.8901         0.012886   
    113. D(H  10,C   5,C   4,C   1)     42.9255         0.012886   
    114. D(H  12,C   6,C   5,H  11)    -64.2950         0.010143   
    115. D(H  12,C   6,C   5,H  10)    179.4642         0.010143   
    116. D(H  12,C   6,C   5,C   4)     56.7774         0.010143   
    117. D(C   7,C   6,C   5,H  11)     56.3798         0.010143   
    118. D(C   7,C   6,C   5,H  10)    -59.8611         0.010143   
    119. D(H  13,C   6,C   5,C   4)    -61.1566         0.010143   
    120. D(C   7,C   6,C   5,C   4)    177.4522         0.010143   
    121. D(H  13,C   6,C   5,H  11)    177.7710         0.010143   
    122. D(H  13,C   6,C   5,H  10)     61.5301         0.010143   
    123. D(H  15,C   7,C   6,H  13)    178.5435         0.011316   
    124. D(H  15,C   7,C   6,H  12)     60.1518         0.011316   
    125. D(H  15,C   7,C   6,C   5)    -60.2315         0.011316   
    126. D(H  14,C   7,C   6,H  13)    -58.0006         0.011316   
    127. D(H  14,C   7,C   6,H  12)   -176.3923         0.011316   
    128. D(H  14,C   7,C   6,C   5)     63.2243         0.011316   
    129. D(N   8,C   7,C   6,H  13)     60.3890         0.011316   
    130. D(N   8,C   7,C   6,H  12)    -58.0027         0.011316   
    131. D(N   8,C   7,C   6,C   5)   -178.3860         0.011316   
    132. D(H  23,N   8,C   7,H  15)    178.4869         0.010066   
    133. D(H  23,N   8,C   7,H  14)     62.7432         0.010066   
    134. D(H  23,N   8,C   7,C   6)    -59.5135         0.010066   
    135. D(H  17,N   8,C   7,H  15)    -62.7059         0.010066   
    136. D(H  17,N   8,C   7,H  14)   -178.4496         0.010066   
    137. D(H  17,N   8,C   7,C   6)     59.2938         0.010066   
    138. D(H  16,N   8,C   7,H  15)     57.8547         0.010066   
    139. D(H  16,N   8,C   7,H  14)    -57.8891         0.010066   
    140. D(H  16,N   8,C   7,C   6)    179.8543         0.010066   
    141. D(C  28,C  19,N   0,H  18)    -10.6732         0.029112   
    142. D(C  28,C  19,N   0,C   1)    177.0020         0.029112   
    143. D(O  22,C  19,N   0,H  18)    170.5512         0.029112   
    144. D(O  22,C  19,N   0,C   1)     -1.7736         0.029112   
    145. D(C  24,N  20,C   2,O   3)      1.1362         0.032053   
    146. D(C  24,N  20,C   2,C   1)    178.9147         0.032053   
    147. D(H  21,N  20,C   2,O   3)    175.4222         0.032053   
    148. D(H  21,N  20,C   2,C   1)     -6.7994         0.032053   
    149. D(H  26,C  24,N  20,H  21)     60.9657         0.015670   
    150. D(H  26,C  24,N  20,C   2)   -124.7728         0.015670   
    151. D(H  25,C  24,N  20,H  21)    -60.1163         0.015670   
    152. D(H  25,C  24,N  20,C   2)    114.1452         0.015670   
    153. D(H  27,C  24,N  20,H  21)   -179.3733         0.015670   
    154. D(H  27,C  24,N  20,C   2)     -5.1118         0.015670   
    155. D(H  31,C  28,C  19,O  22)    -44.8946         0.010926   
    156. D(H  31,C  28,C  19,N   0)    136.3408         0.010926   
    157. D(H  30,C  28,C  19,O  22)   -167.5883         0.010926   
    158. D(H  30,C  28,C  19,N   0)     13.6471         0.010926   
    159. D(H  29,C  28,C  19,O  22)     71.7501         0.010926   
    160. D(H  29,C  28,C  19,N   0)   -107.0145         0.010926   
    -----------------------------------------------------------------

Number of atoms                         .... 33
Number of degrees of freedom            .... 160

         *************************************************************
         *                GEOMETRY OPTIMIZATION CYCLE   1            *
         *************************************************************
---------------------------------
CARTESIAN COORDINATES (ANGSTROEM)
---------------------------------
  N     -7.851626    0.799444    0.170181
  C     -6.390469    0.844836    0.182893
  C     -5.965356    0.818841    1.676719
  O     -6.601538    1.465768    2.511323
  C     -5.817132    2.080472   -0.467175
  C     -6.470127    3.415446   -0.264898
  C     -5.566508    4.587081   -0.705116
  C     -6.297812    5.918138   -0.538914
  N     -5.417382    7.081994   -1.013077
  H     -5.060965    1.958819   -1.237713
  H     -6.754472    3.532009    0.789594
  H     -7.405948    3.454877   -0.847108
  H     -5.284452    4.449332   -1.757662
  H     -4.645374    4.588312   -0.107926
  H     -6.544967    6.132026    0.503548
  H     -7.209766    5.968579   -1.138315
  H     -5.888980    7.986498   -0.913089
  H     -5.164230    6.963603   -1.999371
  H     -8.315898    0.853298    1.066453
  C     -8.564552    0.838758   -0.999714
  N     -4.853318    0.089083    1.952542
  H     -4.449509   -0.459995    1.208327
  O     -8.007595    0.946558   -2.092879
  H     -4.545030    7.118187   -0.476113
  C     -4.288345   -0.033807    3.295923
  H     -4.366477   -1.063815    3.656948
  H     -3.236744    0.268291    3.299944
  H     -4.854967    0.618495    3.960012
  C    -10.076216    0.711913   -0.860585
  H    -10.369793   -0.282560   -1.210530
  H    -10.430992    0.840499    0.165323
  H    -10.555404    1.445026   -1.513034
  H     -5.996827   -0.034264   -0.340772

----------------------------
CARTESIAN COORDINATES (A.U.)
----------------------------
  NO LB      ZA    FRAG     MASS         X           Y           Z
   0 N     7.0000    0    14.007  -14.837423    1.510731    0.321596
   1 C     6.0000    0    12.011  -12.076237    1.596508    0.345618
   2 C     6.0000    0    12.011  -11.272890    1.547385    3.168540
   3 O     8.0000    0    15.999  -12.475098    2.769900    4.745713
   4 C     6.0000    0    12.011  -10.992787    3.931522   -0.882832
   5 C     6.0000    0    12.011  -12.226768    6.454257   -0.500584
   6 C     6.0000    0    12.011  -10.519175    8.668326   -1.332476
   7 C     6.0000    0    12.011  -11.901141   11.183661   -1.018400
   8 N     7.0000    0    14.007  -10.237368   13.383030   -1.914437
   9 H     1.0000    0     1.008   -9.563838    3.701632   -2.338939
  10 H     1.0000    0     1.008  -12.764102    6.674529    1.492117
  11 H     1.0000    0     1.008  -13.995213    6.528771   -1.600801
  12 H     1.0000    0     1.008   -9.986168    8.408019   -3.321499
  13 H     1.0000    0     1.008   -8.778484    8.670653   -0.203950
  14 H     1.0000    0     1.008  -12.368196   11.587851    0.951569
  15 H     1.0000    0     1.008  -13.624482   11.278980   -2.151103
  16 H     1.0000    0     1.008  -11.128559   15.092295   -1.725489
  17 H     1.0000    0     1.008   -9.758981   13.159302   -3.778264
  18 H     1.0000    0     1.008  -15.714771    1.612499    2.015305
  19 C     6.0000    0    12.011  -16.184658    1.585023   -1.889186
  20 N     7.0000    0    14.007   -9.171441    0.168342    3.689769
  21 H     1.0000    0     1.008   -8.408353   -0.869264    2.283407
  22 O     8.0000    0    15.999  -15.132162    1.788736   -3.954969
  23 H     1.0000    0     1.008   -8.588861   13.451424   -0.899724
  24 C     6.0000    0    12.011   -8.103798   -0.063886    6.228392
  25 H     1.0000    0     1.008   -8.251445   -2.010318    6.910630
  26 H     1.0000    0     1.008   -6.116559    0.506996    6.235990
  27 H     1.0000    0     1.008   -9.174559    1.168787    7.483339
  28 C     6.0000    0    12.011  -19.041289    1.345320   -1.626269
  29 H     1.0000    0     1.008  -19.596069   -0.533961   -2.287570
  30 H     1.0000    0     1.008  -19.711719    1.588312    0.312415
  31 H     1.0000    0     1.008  -19.946823    2.730704   -2.859220
  32 H     1.0000    0     1.008  -11.332361   -0.064750   -0.643966

--------------------------------
INTERNAL COORDINATES (ANGSTROEM)
--------------------------------
 N      0   0   0     0.000000000000     0.00000000     0.00000000
 C      1   0   0     1.461916671623     0.00000000     0.00000000
 C      2   1   0     1.553355209078   106.34223991     0.00000000
 O      3   2   1     1.232803810998   120.06898086   319.82945727
 C      2   1   3     1.509337473514   113.66174642   240.19574314
 C      5   2   1     1.499824202242   120.34522114    39.59376347
 C      6   5   2     1.543712527958   112.47247497   165.89014727
 C      7   6   5     1.527790485380   110.48897932   177.45222761
 N      8   7   6     1.534453736658   110.64332470   181.61395552
 H      5   2   1     1.086424490638   118.56708599   232.10455420
 H      6   5   2     1.098358919096   109.67310220    42.92551421
 H      6   5   2     1.102852659833   109.27278798   286.57863725
 H      7   6   5     1.098354787982   109.17214386    56.77744634
 H      7   6   5     1.097782208819   109.68712127   298.84341280
 H      8   7   6     1.092502488511   112.49847392    63.22431880
 H      8   7   6     1.092466730463   112.34076825   299.76848950
 H      9   8   7     1.024953357259   112.03666973   179.85429540
 H      9   8   7     1.025124297936   110.57301793    59.29375216
 H      1   2   3     1.010817862884   116.72449463     5.84123863
 C      1   2   3     1.370570824797   121.76444803   178.48435107
 N      3   2   1     1.358401695302   115.35960360   141.94405094
 H     21   3   2     1.009159736350   118.04263949   353.20064964
 O     20   1   2     1.231597437145   121.66276666   358.22640692
 H      9   8   7     1.025006284845   110.68469967   300.48653374
 C     21   3   2     1.462521368144   123.22230599   178.91469816
 H     25  21   3     1.094239167384   110.76686727   114.14523788
 H     25  21   3     1.094140887196   110.57642957   235.22718906
 H     25  21   3     1.089758786214   107.97459501   354.88823469
 C     20   1   2     1.523343654815   115.83822825   177.00204714
 H     29  20   1     1.094360685113   108.22013711   252.98550991
 H     29  20   1     1.093108831249   113.45260354    13.64710367
 H     29  20   1     1.092138641408   108.96197118   136.34080875
 H      2   1   3     1.096355840815   109.25722780   119.09149278

---------------------------
INTERNAL COORDINATES (A.U.)
---------------------------
 N      0   0   0     0.000000000000     0.00000000     0.00000000
 C      1   0   0     2.762622139982     0.00000000     0.00000000
 C      2   1   0     2.935415933857   106.34223991     0.00000000
 O      3   2   1     2.329661579641   120.06898086   319.82945727
 C      2   1   3     2.852234468606   113.66174642   240.19574314
 C      5   2   1     2.834256991265   120.34522114    39.59376347
 C      6   5   2     2.917193907343   112.47247497   165.89014727
 C      7   6   5     2.887105607378   110.48897932   177.45222761
 N      8   7   6     2.899697327456   110.64332470   181.61395552
 H      5   2   1     2.053044752490   118.56708599   232.10455420
 H      6   5   2     2.075597553842   109.67310220    42.92551421
 H      6   5   2     2.084089493151   109.27278798   286.57863725
 H      7   6   5     2.075589747168   109.17214386    56.77744634
 H      7   6   5     2.074507729359   109.68712127   298.84341280
 H      8   7   6     2.064530503913   112.49847392    63.22431880
 H      8   7   6     2.064462930996   112.34076825   299.76848950
 H      9   8   7     1.936881145263   112.03666973   179.85429540
 H      9   8   7     1.937204176327   110.57301793    59.29375216
 H      1   2   3     1.910168932127   116.72449463     5.84123863
 C      1   2   3     2.590003506008   121.76444803   178.48435107
 N      3   2   1     2.567007183975   115.35960360   141.94405094
 H     21   3   2     1.907035527081   118.04263949   353.20064964
 O     20   1   2     2.327381863443   121.66276666   358.22640692
 H      9   8   7     1.936981163905   110.68469967   300.48653374
 C     21   3   2     2.763764850800   123.22230599   178.91469816
 H     25  21   3     2.067812351365   110.76686727   114.14523788
 H     25  21   3     2.067626628725   110.57642957   235.22718906
 H     25  21   3     2.059345657979   107.97459501   354.88823469
 C     20   1   2     2.878702315447   115.83822825   177.00204714
 H     29  20   1     2.068041986595   108.22013711   252.98550991
 H     29  20   1     2.065676325632   113.45260354    13.64710367
 H     29  20   1     2.063842932533   108.96197118   136.34080875
 H      2   1   3     2.071812284465   109.25722780   119.09149278

---------------------
BASIS SET INFORMATION
---------------------
There are 4 groups of distinct atoms

 Group   1 Type N   : 11s6p2d1f contracted to 5s3p2d1f pattern {62111/411/11/1}
 Group   2 Type C   : 11s6p2d1f contracted to 5s3p2d1f pattern {62111/411/11/1}
 Group   3 Type O   : 11s6p2d1f contracted to 5s3p2d1f pattern {62111/411/11/1}
 Group   4 Type H   : 5s1p contracted to 3s1p pattern {311/1}

Atom   0N    basis set group =>   1
Atom   1C    basis set group =>   2
Atom   2C    basis set group =>   2
Atom   3O    basis set group =>   3
Atom   4C    basis set group =>   2
Atom   5C    basis set group =>   2
Atom   6C    basis set group =>   2
Atom   7C    basis set group =>   2
Atom   8N    basis set group =>   1
Atom   9H    basis set group =>   4
Atom  10H    basis set group =>   4
Atom  11H    basis set group =>   4
Atom  12H    basis set group =>   4
Atom  13H    basis set group =>   4
Atom  14H    basis set group =>   4
Atom  15H    basis set group =>   4
Atom  16H    basis set group =>   4
Atom  17H    basis set group =>   4
Atom  18H    basis set group =>   4
Atom  19C    basis set group =>   2
Atom  20N    basis set group =>   1
Atom  21H    basis set group =>   4
Atom  22O    basis set group =>   3
Atom  23H    basis set group =>   4
Atom  24C    basis set group =>   2
Atom  25H    basis set group =>   4
Atom  26H    basis set group =>   4
Atom  27H    basis set group =>   4
Atom  28C    basis set group =>   2
Atom  29H    basis set group =>   4
Atom  30H    basis set group =>   4
Atom  31H    basis set group =>   4
Atom  32H    basis set group =>   4
---------------------------------
AUXILIARY/J BASIS SET INFORMATION
---------------------------------
There are 4 groups of distinct atoms

 Group   1 Type N   : 12s5p4d2f1g contracted to 6s4p3d1f1g pattern {711111/2111/211/2/1}
 Group   2 Type C   : 12s5p4d2f1g contracted to 6s4p3d1f1g pattern {711111/2111/211/2/1}
 Group   3 Type O   : 12s5p4d2f1g contracted to 6s4p3d1f1g pattern {711111/2111/211/2/1}
 Group   4 Type H   : 5s2p1d contracted to 3s1p1d pattern {311/2/1}

Atom   0N    basis set group =>   1
Atom   1C    basis set group =>   2
Atom   2C    basis set group =>   2
Atom   3O    basis set group =>   3
Atom   4C    basis set group =>   2
Atom   5C    basis set group =>   2
Atom   6C    basis set group =>   2
Atom   7C    basis set group =>   2
Atom   8N    basis set group =>   1
Atom   9H    basis set group =>   4
Atom  10H    basis set group =>   4
Atom  11H    basis set group =>   4
Atom  12H    basis set group =>   4
Atom  13H    basis set group =>   4
Atom  14H    basis set group =>   4
Atom  15H    basis set group =>   4
Atom  16H    basis set group =>   4
Atom  17H    basis set group =>   4
Atom  18H    basis set group =>   4
Atom  19C    basis set group =>   2
Atom  20N    basis set group =>   1
Atom  21H    basis set group =>   4
Atom  22O    basis set group =>   3
Atom  23H    basis set group =>   4
Atom  24C    basis set group =>   2
Atom  25H    basis set group =>   4
Atom  26H    basis set group =>   4
Atom  27H    basis set group =>   4
Atom  28C    basis set group =>   2
Atom  29H    basis set group =>   4
Atom  30H    basis set group =>   4
Atom  31H    basis set group =>   4
Atom  32H    basis set group =>   4


           ************************************************************
           *        Program running with 16 parallel MPI-processes    *
           *              working on a common directory               *
           ************************************************************
------------------------------------------------------------------------------
                           ORCA GTO INTEGRAL CALCULATION
                           -- RI-GTO INTEGRALS CHOSEN --
------------------------------------------------------------------------------
------------------------------------------------------------------------------
                   ___                                                        
                  /   \      - P O W E R E D   B Y -                         
                 /     \                                                     
                 |  |  |   _    _      __       _____    __    __             
                 |  |  |  | |  | |    /  \     |  _  \  |  |  /  |          
                  \  \/   | |  | |   /    \    | | | |  |  | /  /          
                 / \  \   | |__| |  /  /\  \   | |_| |  |  |/  /          
                |  |  |   |  __  | /  /__\  \  |    /   |      \           
                |  |  |   | |  | | |   __   |  |    \   |  |\   \          
                \     /   | |  | | |  |  |  |  | |\  \  |  | \   \       
                 \___/    |_|  |_| |__|  |__|  |_| \__\ |__|  \__/        
                                                                              
                      - O R C A' S   B I G   F R I E N D -                    
                                      &                                       
                       - I N T E G R A L  F E E D E R -                       
                                                                              
 v1 FN, 2020, v2 2021                                                         
------------------------------------------------------------------------------


Reading SHARK input file freq.SHARKINP.tmp ... ok
----------------------
SHARK INTEGRAL PACKAGE
----------------------

Number of atoms                             ...     33
Number of basis functions                   ...    548
Number of shells                            ...    230
Maximum angular momentum                    ...      3
Integral batch strategy                     ... SHARK/LIBINT Hybrid
RI-J (if used) integral strategy            ... SPLIT-RIJ (Revised 2003 algorithm where possible)
Printlevel                                  ...      1
Contraction scheme used                     ... SEGMENTED contraction
Coulomb Range Separation                    ... NOT USED
Exchange Range Separation                   ... NOT USED
Finite Nucleus Model                        ... NOT USED
Auxiliary Coulomb fitting basis             ... AVAILABLE
   # of basis functions in Aux-J            ...    895
   # of shells in Aux-J                     ...    305
   Maximum angular momentum in Aux-J        ...      4
Auxiliary J/K fitting basis                 ... NOT available
Auxiliary Correlation fitting basis         ... NOT available
Auxiliary 'external' fitting basis          ... NOT available
Integral threshold                          ...     2.500000e-11
Primitive cut-off                           ...     2.500000e-12
Primitive pair pre-selection threshold      ...     2.500000e-12

Calculating pre-screening integrals         ... done (  0.0 sec) Dimension = 230
Organizing shell pair data                  ... done (  0.1 sec)
Shell pair information
Total number of shell pairs                 ...     26565
Shell pairs after pre-screening             ...     19771
Total number of primitive shell pairs       ...     78180
Primitive shell pairs kept                  ...     40538
          la=0 lb=0:   5978 shell pairs
          la=1 lb=0:   5874 shell pairs
          la=1 lb=1:   1481 shell pairs
          la=2 lb=0:   2608 shell pairs
          la=2 lb=1:   1302 shell pairs
          la=2 lb=2:    310 shell pairs
          la=3 lb=0:   1241 shell pairs
          la=3 lb=1:    625 shell pairs
          la=3 lb=2:    280 shell pairs
          la=3 lb=3:     72 shell pairs

Calculating one electron integrals          ... done (  0.0 sec)
Calculating RI/J V-Matrix + Cholesky decomp.... done (  0.0 sec)
Calculating Nuclear repulsion               ... done (  0.0 sec) ENN=    931.525240431161 Eh

SHARK setup successfully completed in   0.4 seconds

Maximum memory used throughout the entire GTOINT-calculation: 31.3 MB


           ************************************************************
           *        Program running with 16 parallel MPI-processes    *
           *              working on a common directory               *
           ************************************************************
-------------------------------------------------------------------------------
                                 ORCA SCF
-------------------------------------------------------------------------------

------------
SCF SETTINGS
------------
Hamiltonian:
 Density Functional     Method          .... DFT(GTOs)
 Exchange Functional    Exchange        .... M062X
 Correlation Functional Correlation     .... M062X
 Gradients option       PostSCFGGA      .... off
 Hybrid DFT is turned on
   Fraction HF Exchange ScalHFX         ....  0.540000
   Scaling of DF-GGA-X  ScalDFX         ....  0.460000
   Scaling of DF-GGA-C  ScalDFC         ....  1.000000
   Scaling of DF-LDA-C  ScalLDAC        ....  1.000000
   Perturbative correction              ....  0.000000
   Density functional embedding theory  .... OFF
 RI-approximation to the Coulomb term is turned on
   Number of AuxJ basis functions       .... 895
   RIJ-COSX (HFX calculated with COS-X)).... on


General Settings:
 Integral files         IntName         .... freq
 Hartree-Fock type      HFTyp           .... UHF
 Total Charge           Charge          ....    1
 Multiplicity           Mult            ....    2
 Number of Electrons    NEL             ....  109
 Basis Dimension        Dim             ....  548
 Nuclear Repulsion      ENuc            ....    931.5252404312 Eh

Convergence Acceleration:
 DIIS                   CNVDIIS         .... on
   Start iteration      DIISMaxIt       ....    12
   Startup error        DIISStart       ....  0.200000
   # of expansion vecs  DIISMaxEq       ....     5
   Bias factor          DIISBfac        ....   1.050
   Max. coefficient     DIISMaxC        ....  10.000
 Trust-Rad. Augm. Hess. CNVTRAH         .... auto
   Auto Start mean grad. ratio tolernc. ....  1.125000
   Auto Start start iteration           ....    20
   Auto Start num. interpolation iter.  ....    10
   Max. Number of Micro iterations      ....    16
   Max. Number of Macro iterations      .... Maxiter - #DIIS iter
   Number of Davidson start vectors     ....     2
   Converg. threshold I  (grad. norm)   ....   1.000e-05
   Converg. threshold II (energy diff.) ....   1.000e-08
   Grad. Scal. Fac. for Micro threshold ....   0.100
   Minimum threshold for Micro iter.    ....   0.010
   NR start threshold (gradient norm)   ....   0.001
   Initial trust radius                 ....   0.400
   Minimum AH scaling param. (alpha)    ....   1.000
   Maximum AH scaling param. (alpha)    .... 1000.000
   Orbital update algorithm             .... Taylor
   White noise on init. David. guess    .... on
   Maximum white noise                  ....   0.010
   Quad. conv. algorithm                .... NR
 SOSCF                  CNVSOSCF        .... off
 Level Shifting         CNVShift        .... on
   Level shift para.    LevelShift      ....    0.2500
   Turn off err/grad.   ShiftErr        ....    0.0010
 Zerner damping         CNVZerner       .... off
 Static damping         CNVDamp         .... on
   Fraction old density DampFac         ....    0.7000
   Max. Damping (<1)    DampMax         ....    0.9800
   Min. Damping (>=0)   DampMin         ....    0.0000
   Turn off err/grad.   DampErr         ....    0.1000
 Fernandez-Rico         CNVRico         .... off

SCF Procedure:
 Maximum # iterations   MaxIter         ....   125
 SCF integral mode      SCFMode         .... Direct
   Integral package                     .... SHARK and LIBINT hybrid scheme
 Reset frequency        DirectResetFreq ....    20
 Integral Threshold     Thresh          ....  2.500e-11 Eh
 Primitive CutOff       TCut            ....  2.500e-12 Eh

Convergence Tolerance:
 Convergence Check Mode ConvCheckMode   .... Total+1el-Energy
 Convergence forced     ConvForced      .... 0
 Energy Change          TolE            ....  1.000e-08 Eh
 1-El. energy change                    ....  1.000e-05 Eh
 DIIS Error             TolErr          ....  5.000e-07


Diagonalization of the overlap matrix:
Smallest eigenvalue                        ... 5.633e-05
Time for diagonalization                   ...    0.036 sec
Threshold for overlap eigenvalues          ... 1.000e-08
Number of eigenvalues below threshold      ... 0
Time for construction of square roots      ...    0.022 sec
Total time needed                          ...    0.060 sec

Time for model grid setup =    0.132 sec

------------------------------
INITIAL GUESS: MODEL POTENTIAL
------------------------------
Loading Hartree-Fock densities                     ... done
Calculating cut-offs                               ... done
Initializing the effective Hamiltonian             ... done
Setting up the integral package (SHARK)            ... done
Starting the Coulomb interaction                   ... done (   0.1 sec)
Reading the grid                                   ... done
Mapping shells                                     ... done
Starting the XC term evaluation                    ... done (   0.1 sec)
  promolecular density results
     # of electrons  =    109.986862028
     EX              =    -87.566014225
     EC              =     -3.646147869
     EX+EC           =    -91.212162094
Transforming the Hamiltonian                       ... done (   0.0 sec)
Diagonalizing the Hamiltonian                      ... done (   0.0 sec)
Back transforming the eigenvectors                 ... done (   0.0 sec)
Now organizing SCF variables                       ... done
                      ------------------
                      INITIAL GUESS DONE (   0.4 sec)
                      ------------------
-------------------
DFT GRID GENERATION
-------------------

General Integration Accuracy     IntAcc      ... 4.388
Radial Grid Type                 RadialGrid  ... OptM3 with GC (2021)
Angular Grid (max. ang.)         AngularGrid ... 4 (Lebedev-302)
Angular grid pruning method      GridPruning ... 4 (adaptive)
Weight generation scheme         WeightScheme... Becke
Basis function cutoff            BFCut       ... 1.0000e-11
Integration weight cutoff        WCut        ... 1.0000e-14
Angular grids for H and He will be reduced by one unit
Partially contracted basis set               ... off
Rotationally invariant grid construction     ... off

Total number of grid points                  ...   144815
Total number of batches                      ...     2282
Average number of points per batch           ...       63
Average number of grid points per atom       ...     4388
Time for grid setup =    0.654 sec

--------------------
COSX GRID GENERATION
--------------------

GRIDX 1
-------
General Integration Accuracy     IntAcc      ... 3.816
Radial Grid Type                 RadialGrid  ... OptM3 with GC (2021)
Angular Grid (max. ang.)         AngularGrid ... 1 (Lebedev-50)
Angular grid pruning method      GridPruning ... 4 (adaptive)
Weight generation scheme         WeightScheme... Becke
Basis function cutoff            BFCut       ... 1.0000e-11
Integration weight cutoff        WCut        ... 1.0000e-14
Angular grids for H and He will be reduced by one unit
Partially contracted basis set               ... on
Rotationally invariant grid construction     ... off

Total number of grid points                  ...    18535
Total number of batches                      ...      309
Average number of points per batch           ...       59
Average number of grid points per atom       ...      562
UseSFitting                                  ... on

GRIDX 2
-------
General Integration Accuracy     IntAcc      ... 4.020
Radial Grid Type                 RadialGrid  ... OptM3 with GC (2021)
Angular Grid (max. ang.)         AngularGrid ... 2 (Lebedev-110)
Angular grid pruning method      GridPruning ... 4 (adaptive)
Weight generation scheme         WeightScheme... Becke
Basis function cutoff            BFCut       ... 1.0000e-11
Integration weight cutoff        WCut        ... 1.0000e-14
Angular grids for H and He will be reduced by one unit
Partially contracted basis set               ... on
Rotationally invariant grid construction     ... off

Total number of grid points                  ...    39048
Total number of batches                      ...      627
Average number of points per batch           ...       62
Average number of grid points per atom       ...     1183
UseSFitting                                  ... on

GRIDX 3
-------
General Integration Accuracy     IntAcc      ... 4.338
Radial Grid Type                 RadialGrid  ... OptM3 with GC (2021)
Angular Grid (max. ang.)         AngularGrid ... 3 (Lebedev-194)
Angular grid pruning method      GridPruning ... 4 (adaptive)
Weight generation scheme         WeightScheme... Becke
Basis function cutoff            BFCut       ... 1.0000e-11
Integration weight cutoff        WCut        ... 1.0000e-14
Angular grids for H and He will be reduced by one unit
Partially contracted basis set               ... on
Rotationally invariant grid construction     ... off

Total number of grid points                  ...    85154
Total number of batches                      ...     1347
Average number of points per batch           ...       63
Average number of grid points per atom       ...     2580
UseSFitting                                  ... on

Time for X-Grid setup             =    0.824 sec

--------------
SCF ITERATIONS
--------------
ITER       Energy         Delta-E        Max-DP      RMS-DP      [F,P]     Damp
               ***  Starting incremental Fock matrix formation  ***
  0   -668.3454376368   0.000000000000 0.03050263  0.00039280  0.1532878 0.7000
  1   -668.5437563333  -0.198318696472 0.03077317  0.00032151  0.0732484 0.7000
                               ***Turning on DIIS***
  2   -668.6327012780  -0.088944944744 0.07419904  0.00066470  0.0264743 0.0000
  3   -668.7774728523  -0.144771574261 0.01546032  0.00022386  0.0349728 0.0000
  4   -668.8031008108  -0.025627958496 0.01153066  0.00008300  0.0058958 0.0000
  5   -668.8042677601  -0.001166949325 0.00422591  0.00003672  0.0034419 0.0000
  6   -668.8045772893  -0.000309529196 0.00289309  0.00002072  0.0010797 0.0000
  7   -668.8046607467  -0.000083457356 0.00196169  0.00001778  0.0004866 0.0000
               *** Restarting incremental Fock matrix formation ***
                                   *** Resetting DIIS ***
  8   -668.8047498845  -0.000089137813 0.00054664  0.00000620  0.0003178 0.0000
  9   -668.8047519694  -0.000002084882 0.00015775  0.00000188  0.0004015 0.0000
 10   -668.8047542313  -0.000002261972 0.00022466  0.00000159  0.0000802 0.0000
 11   -668.8047545686  -0.000000337262 0.00009683  0.00000073  0.0000949 0.0000
 12   -668.8047546675  -0.000000098927 0.00003129  0.00000030  0.0000366 0.0000
 13   -668.8047546643   0.000000003202 0.00000875  0.00000008  0.0000103 0.0000
 14   -668.8047546672  -0.000000002907 0.00000453  0.00000005  0.0000033 0.0000
 15   -668.8047546436   0.000000023621 0.00000346  0.00000003  0.0000024 0.0000
 16   -668.8047546377   0.000000005928 0.00000289  0.00000002  0.0000016 0.0000
                 **** Energy Check signals convergence ****

               *****************************************************
               *                     SUCCESS                       *
               *           SCF CONVERGED AFTER  17 CYCLES          *
               *****************************************************

Old exchange energy                            =    -48.306372463 Eh
New exchange energy                            =    -48.306396680 Eh
Exchange energy change after final integration =     -0.000024217 Eh
Total energy after final integration           =   -668.804778863 Eh
Final COS-X integration done in                =     4.868 sec

----------------
TOTAL SCF ENERGY
----------------

Total Energy       :         -668.80477886 Eh          -18199.10326 eV

Components:
Nuclear Repulsion  :          931.52524043 Eh           25348.09046 eV
Electronic Energy  :        -1600.33001929 Eh          -43547.19372 eV
One Electron Energy:        -2743.53071687 Eh          -74655.26621 eV
Two Electron Energy:         1143.20069757 Eh           31108.07248 eV
Max COSX asymmetry :            0.00000114 Eh               0.00003 eV

Virial components:
Potential Energy   :        -1333.93692056 Eh          -36298.26898 eV
Kinetic Energy     :          665.13214169 Eh           18099.16572 eV
Virial Ratio       :            2.00552167


DFT components:
N(Alpha)           :       55.000160674512 electrons
N(Beta)            :       54.000124046119 electrons
N(Total)           :      109.000284720631 electrons
E(XC)              :      -45.045081954812 Eh       
DFET-embed. en.    :        0.000000000000 Eh       

---------------
SCF CONVERGENCE
---------------

  Last Energy change         ...   -7.7564e-09  Tolerance :   1.0000e-08
  Last MAX-Density change    ...    0.0000e+00  Tolerance :   1.0000e-07
  Last RMS-Density change    ...    0.0000e+00  Tolerance :   5.0000e-09
  Last DIIS Error            ...    6.5114e-07  Tolerance :   5.0000e-07

             **** THE GBW FILE WAS UPDATED (freq.gbw) ****
             **** DENSITY freq.scfp WAS UPDATED ****
             **** ENERGY FILE WAS UPDATED (freq.en.tmp) ****
----------------------
UHF SPIN CONTAMINATION
----------------------

Warning: in a DFT calculation there is little theoretical justification to 
         calculate <S**2> as in Hartree-Fock theory. We will do it anyways
         but you should keep in mind that the values have only limited relevance

Expectation value of <S**2>     :     0.755789
Ideal value S*(S+1) for S=0.5   :     0.750000
Deviation                       :     0.005789

             **** THE GBW FILE WAS UPDATED (freq.gbw) ****
             **** DENSITY freq.scfp WAS UPDATED ****
----------------
ORBITAL ENERGIES
----------------
                 SPIN UP ORBITALS
  NO   OCC          E(Eh)            E(eV) 
   0   1.0000     -19.691849      -535.8425 
   1   1.0000     -19.674540      -535.3714 
   2   1.0000     -15.064571      -409.9278 
   3   1.0000     -14.873629      -404.7320 
   4   1.0000     -14.859867      -404.3575 
   5   1.0000     -10.778867      -293.3079 
   6   1.0000     -10.745752      -292.4068 
   7   1.0000     -10.729198      -291.9563 
   8   1.0000     -10.704071      -291.2726 
   9   1.0000     -10.692276      -290.9516 
  10   1.0000     -10.669643      -290.3358 
  11   1.0000     -10.663148      -290.1590 
  12   1.0000     -10.654448      -289.9223 
  13   1.0000     -10.619317      -288.9663 
  14   1.0000      -1.301963       -35.4282 
  15   1.0000      -1.255816       -34.1725 
  16   1.0000      -1.236802       -33.6551 
  17   1.0000      -1.126798       -30.6617 
  18   1.0000      -1.119606       -30.4660 
  19   1.0000      -1.061183       -28.8763 
  20   1.0000      -0.993464       -27.0335 
  21   1.0000      -0.946189       -25.7471 
  22   1.0000      -0.905187       -24.6314 
  23   1.0000      -0.892181       -24.2775 
  24   1.0000      -0.863433       -23.4952 
  25   1.0000      -0.854507       -23.2523 
  26   1.0000      -0.829847       -22.5813 
  27   1.0000      -0.793784       -21.6000 
  28   1.0000      -0.763307       -20.7706 
  29   1.0000      -0.750959       -20.4346 
  30   1.0000      -0.730602       -19.8807 
  31   1.0000      -0.707991       -19.2654 
  32   1.0000      -0.699086       -19.0231 
  33   1.0000      -0.665801       -18.1174 
  34   1.0000      -0.650178       -17.6923 
  35   1.0000      -0.634847       -17.2751 
  36   1.0000      -0.631649       -17.1880 
  37   1.0000      -0.620270       -16.8784 
  38   1.0000      -0.615055       -16.7365 
  39   1.0000      -0.605555       -16.4780 
  40   1.0000      -0.593542       -16.1511 
  41   1.0000      -0.576322       -15.6825 
  42   1.0000      -0.561974       -15.2921 
  43   1.0000      -0.560682       -15.2569 
  44   1.0000      -0.553452       -15.0602 
  45   1.0000      -0.545581       -14.8460 
  46   1.0000      -0.543231       -14.7821 
  47   1.0000      -0.535107       -14.5610 
  48   1.0000      -0.533405       -14.5147 
  49   1.0000      -0.504305       -13.7228 
  50   1.0000      -0.446880       -12.1602 
  51   1.0000      -0.419493       -11.4150 
  52   1.0000      -0.417777       -11.3683 
  53   1.0000      -0.410950       -11.1825 
  54   1.0000      -0.354950        -9.6587 
  55   0.0000      -0.151030        -4.1097 
  56   0.0000      -0.087107        -2.3703 
  57   0.0000      -0.085096        -2.3156 
  58   0.0000      -0.068407        -1.8615 
  59   0.0000      -0.043070        -1.1720 
  60   0.0000      -0.031406        -0.8546 
  61   0.0000      -0.028386        -0.7724 
  62   0.0000      -0.020323        -0.5530 
  63   0.0000      -0.017240        -0.4691 
  64   0.0000      -0.015174        -0.4129 
  65   0.0000      -0.010719        -0.2917 
  66   0.0000       0.006956         0.1893 
  67   0.0000       0.016872         0.4591 
  68   0.0000       0.021749         0.5918 
  69   0.0000       0.030687         0.8350 
  70   0.0000       0.032354         0.8804 
  71   0.0000       0.041973         1.1421 
  72   0.0000       0.045855         1.2478 
  73   0.0000       0.057401         1.5620 
  74   0.0000       0.059727         1.6253 
  75   0.0000       0.071729         1.9519 
  76   0.0000       0.074655         2.0315 
  77   0.0000       0.078067         2.1243 
  78   0.0000       0.081811         2.2262 
  79   0.0000       0.086503         2.3539 
  80   0.0000       0.089631         2.4390 
  81   0.0000       0.103058         2.8043 
  82   0.0000       0.109170         2.9707 
  83   0.0000       0.116551         3.1715 
  84   0.0000       0.121586         3.3085 
  85   0.0000       0.128766         3.5039 
  86   0.0000       0.135631         3.6907 
  87   0.0000       0.140565         3.8250 
  88   0.0000       0.149971         4.0809 
  89   0.0000       0.153793         4.1849 
  90   0.0000       0.162320         4.4170 
  91   0.0000       0.167647         4.5619 
  92   0.0000       0.170383         4.6364 
  93   0.0000       0.189277         5.1505 
  94   0.0000       0.192579         5.2403 
  95   0.0000       0.195814         5.3284 
  96   0.0000       0.210389         5.7250 
  97   0.0000       0.214660         5.8412 
  98   0.0000       0.220091         5.9890 
  99   0.0000       0.223657         6.0860 
 100   0.0000       0.242372         6.5953 
 101   0.0000       0.245109         6.6698 
 102   0.0000       0.258827         7.0430 
 103   0.0000       0.264218         7.1897 
 104   0.0000       0.274548         7.4708 
 105   0.0000       0.276014         7.5107 
 106   0.0000       0.283099         7.7035 
 107   0.0000       0.289048         7.8654 
 108   0.0000       0.296914         8.0794 
 109   0.0000       0.303119         8.2483 
 110   0.0000       0.305326         8.3084 
 111   0.0000       0.315168         8.5761 
 112   0.0000       0.322518         8.7762 
 113   0.0000       0.324166         8.8210 
 114   0.0000       0.328478         8.9383 
 115   0.0000       0.333656         9.0793 
 116   0.0000       0.336064         9.1448 
 117   0.0000       0.345260         9.3950 
 118   0.0000       0.350408         9.5351 
 119   0.0000       0.355159         9.6644 
 120   0.0000       0.362894         9.8748 
 121   0.0000       0.368099        10.0165 
 122   0.0000       0.368803        10.0357 
 123   0.0000       0.375078        10.2064 
 124   0.0000       0.382339        10.4040 
 125   0.0000       0.394594        10.7375 
 126   0.0000       0.397738        10.8230 
 127   0.0000       0.403698        10.9852 
 128   0.0000       0.406599        11.0641 
 129   0.0000       0.412412        11.2223 
 130   0.0000       0.419214        11.4074 
 131   0.0000       0.421470        11.4688 
 132   0.0000       0.422979        11.5099 
 133   0.0000       0.429181        11.6786 
 134   0.0000       0.438894        11.9429 
 135   0.0000       0.443203        12.0602 
 136   0.0000       0.454528        12.3683 
 137   0.0000       0.462839        12.5945 
 138   0.0000       0.467567        12.7231 
 139   0.0000       0.473102        12.8738 
 140   0.0000       0.482045        13.1171 
 141   0.0000       0.491300        13.3690 
 142   0.0000       0.495488        13.4829 
 143   0.0000       0.497475        13.5370 
 144   0.0000       0.512651        13.9499 
 145   0.0000       0.517158        14.0726 
 146   0.0000       0.520041        14.1510 
 147   0.0000       0.529811        14.4169 
 148   0.0000       0.533882        14.5277 
 149   0.0000       0.544335        14.8121 
 150   0.0000       0.556668        15.1477 
 151   0.0000       0.569930        15.5086 
 152   0.0000       0.587834        15.9958 
 153   0.0000       0.605339        16.4721 
 154   0.0000       0.612062        16.6551 
 155   0.0000       0.627555        17.0766 
 156   0.0000       0.650120        17.6907 
 157   0.0000       0.657788        17.8993 
 158   0.0000       0.664953        18.0943 
 159   0.0000       0.676191        18.4001 
 160   0.0000       0.681216        18.5368 
 161   0.0000       0.694213        18.8905 
 162   0.0000       0.697844        18.9893 
 163   0.0000       0.702300        19.1106 
 164   0.0000       0.710270        19.3274 
 165   0.0000       0.727545        19.7975 
 166   0.0000       0.749372        20.3915 
 167   0.0000       0.750481        20.4216 
 168   0.0000       0.755494        20.5580 
 169   0.0000       0.768628        20.9154 
 170   0.0000       0.787432        21.4271 
 171   0.0000       0.796569        21.6757 
 172   0.0000       0.806367        21.9424 
 173   0.0000       0.823646        22.4125 
 174   0.0000       0.838164        22.8076 
 175   0.0000       0.846491        23.0342 
 176   0.0000       0.872726        23.7481 
 177   0.0000       0.877718        23.8839 
 178   0.0000       0.885452        24.0944 
 179   0.0000       0.890087        24.2205 
 180   0.0000       0.898977        24.4624 
 181   0.0000       0.925101        25.1733 
 182   0.0000       0.947818        25.7914 
 183   0.0000       0.955144        25.9908 
 184   0.0000       0.957550        26.0563 
 185   0.0000       0.970924        26.4202 
 186   0.0000       0.978754        26.6333 
 187   0.0000       0.987964        26.8839 
 188   0.0000       0.993449        27.0331 
 189   0.0000       1.008063        27.4308 
 190   0.0000       1.008705        27.4483 
 191   0.0000       1.024367        27.8744 
 192   0.0000       1.032423        28.0937 
 193   0.0000       1.036094        28.1935 
 194   0.0000       1.048262        28.5246 
 195   0.0000       1.055977        28.7346 
 196   0.0000       1.068017        29.0622 
 197   0.0000       1.090122        29.6637 
 198   0.0000       1.104494        30.0548 
 199   0.0000       1.116788        30.3894 
 200   0.0000       1.123759        30.5790 
 201   0.0000       1.139986        31.0206 
 202   0.0000       1.152362        31.3574 
 203   0.0000       1.158004        31.5109 
 204   0.0000       1.167524        31.7699 
 205   0.0000       1.189302        32.3625 
 206   0.0000       1.211043        32.9542 
 207   0.0000       1.217989        33.1432 
 208   0.0000       1.228690        33.4344 
 209   0.0000       1.236077        33.6354 
 210   0.0000       1.262589        34.3568 
 211   0.0000       1.282082        34.8872 
 212   0.0000       1.292438        35.1690 
 213   0.0000       1.301185        35.4071 
 214   0.0000       1.328714        36.1561 
 215   0.0000       1.335353        36.3368 
 216   0.0000       1.361221        37.0407 
 217   0.0000       1.367165        37.2024 
 218   0.0000       1.380462        37.5643 
 219   0.0000       1.384108        37.6635 
 220   0.0000       1.409781        38.3621 
 221   0.0000       1.412579        38.4382 
 222   0.0000       1.421441        38.6794 
 223   0.0000       1.429013        38.8854 
 224   0.0000       1.442808        39.2608 
 225   0.0000       1.460197        39.7340 
 226   0.0000       1.464633        39.8547 
 227   0.0000       1.469905        39.9981 
 228   0.0000       1.479972        40.2721 
 229   0.0000       1.485194        40.4142 
 230   0.0000       1.488583        40.5064 
 231   0.0000       1.496395        40.7190 
 232   0.0000       1.500853        40.8403 
 233   0.0000       1.504486        40.9391 
 234   0.0000       1.523934        41.4683 
 235   0.0000       1.529747        41.6265 
 236   0.0000       1.531962        41.6868 
 237   0.0000       1.545822        42.0640 
 238   0.0000       1.555347        42.3231 
 239   0.0000       1.570293        42.7298 
 240   0.0000       1.573105        42.8064 
 241   0.0000       1.576936        42.9106 
 242   0.0000       1.590259        43.2731 
 243   0.0000       1.603472        43.6327 
 244   0.0000       1.605356        43.6840 
 245   0.0000       1.615187        43.9515 
 246   0.0000       1.622838        44.1597 
 247   0.0000       1.629338        44.3365 
 248   0.0000       1.641619        44.6707 
 249   0.0000       1.645222        44.7688 
 250   0.0000       1.659299        45.1518 
 251   0.0000       1.684250        45.8308 
 252   0.0000       1.697455        46.1901 
 253   0.0000       1.706847        46.4457 
 254   0.0000       1.709401        46.5152 
 255   0.0000       1.715365        46.6775 
 256   0.0000       1.727268        47.0013 
 257   0.0000       1.737653        47.2839 
 258   0.0000       1.740500        47.3614 
 259   0.0000       1.751322        47.6559 
 260   0.0000       1.766169        48.0599 
 261   0.0000       1.777385        48.3651 
 262   0.0000       1.787543        48.6415 
 263   0.0000       1.813052        49.3356 
 264   0.0000       1.814380        49.3718 
 265   0.0000       1.825813        49.6829 
 266   0.0000       1.829722        49.7893 
 267   0.0000       1.851913        50.3931 
 268   0.0000       1.866339        50.7857 
 269   0.0000       1.875001        51.0214 
 270   0.0000       1.884523        51.2805 
 271   0.0000       1.890487        51.4428 
 272   0.0000       1.904649        51.8281 
 273   0.0000       1.918088        52.1938 
 274   0.0000       1.926790        52.4306 
 275   0.0000       1.942048        52.8458 
 276   0.0000       1.958909        53.3046 
 277   0.0000       1.968267        53.5593 
 278   0.0000       1.978071        53.8260 
 279   0.0000       1.986043        54.0430 
 280   0.0000       1.995294        54.2947 
 281   0.0000       2.039512        55.4980 
 282   0.0000       2.052778        55.8589 
 283   0.0000       2.055795        55.9410 
 284   0.0000       2.062181        56.1148 
 285   0.0000       2.081166        56.6314 
 286   0.0000       2.106375        57.3174 
 287   0.0000       2.116270        57.5866 
 288   0.0000       2.126427        57.8630 
 289   0.0000       2.134713        58.0885 
 290   0.0000       2.149985        58.5041 
 291   0.0000       2.156908        58.6925 
 292   0.0000       2.164820        58.9077 
 293   0.0000       2.175513        59.1987 
 294   0.0000       2.185129        59.4604 
 295   0.0000       2.185628        59.4740 
 296   0.0000       2.201581        59.9081 
 297   0.0000       2.213006        60.2190 
 298   0.0000       2.221217        60.4424 
 299   0.0000       2.228931        60.6523 
 300   0.0000       2.237665        60.8900 
 301   0.0000       2.245283        61.0973 
 302   0.0000       2.267395        61.6990 
 303   0.0000       2.272540        61.8390 
 304   0.0000       2.286206        62.2108 
 305   0.0000       2.296038        62.4784 
 306   0.0000       2.297540        62.5192 
 307   0.0000       2.314347        62.9766 
 308   0.0000       2.316154        63.0258 
 309   0.0000       2.330103        63.4053 
 310   0.0000       2.344817        63.8057 
 311   0.0000       2.355971        64.1092 
 312   0.0000       2.368457        64.4490 
 313   0.0000       2.374526        64.6141 
 314   0.0000       2.383188        64.8498 
 315   0.0000       2.389613        65.0247 
 316   0.0000       2.409976        65.5788 
 317   0.0000       2.423512        65.9471 
 318   0.0000       2.428718        66.0888 
 319   0.0000       2.431238        66.1573 
 320   0.0000       2.442299        66.4583 
 321   0.0000       2.456483        66.8443 
 322   0.0000       2.461393        66.9779 
 323   0.0000       2.477751        67.4230 
 324   0.0000       2.486236        67.6539 
 325   0.0000       2.495420        67.9038 
 326   0.0000       2.500436        68.0403 
 327   0.0000       2.506539        68.2064 
 328   0.0000       2.510454        68.3129 
 329   0.0000       2.518172        68.5229 
 330   0.0000       2.551150        69.4203 
 331   0.0000       2.555338        69.5343 
 332   0.0000       2.561264        69.6955 
 333   0.0000       2.568656        69.8967 
 334   0.0000       2.589972        70.4767 
 335   0.0000       2.596379        70.6511 
 336   0.0000       2.599241        70.7289 
 337   0.0000       2.601376        70.7870 
 338   0.0000       2.622989        71.3751 
 339   0.0000       2.631929        71.6184 
 340   0.0000       2.639699        71.8299 
 341   0.0000       2.656964        72.2997 
 342   0.0000       2.675827        72.8129 
 343   0.0000       2.685762        73.0833 
 344   0.0000       2.691462        73.2384 
 345   0.0000       2.697408        73.4002 
 346   0.0000       2.714956        73.8777 
 347   0.0000       2.724594        74.1400 
 348   0.0000       2.757871        75.0455 
 349   0.0000       2.771928        75.4280 
 350   0.0000       2.778540        75.6079 
 351   0.0000       2.785568        75.7992 
 352   0.0000       2.812717        76.5379 
 353   0.0000       2.823470        76.8305 
 354   0.0000       2.845377        77.4266 
 355   0.0000       2.856256        77.7227 
 356   0.0000       2.865463        77.9732 
 357   0.0000       2.876325        78.2688 
 358   0.0000       2.891276        78.6756 
 359   0.0000       2.895672        78.7952 
 360   0.0000       2.910121        79.1884 
 361   0.0000       2.912992        79.2665 
 362   0.0000       2.923504        79.5526 
 363   0.0000       2.940641        80.0189 
 364   0.0000       2.952559        80.3432 
 365   0.0000       2.965331        80.6908 
 366   0.0000       2.976827        81.0036 
 367   0.0000       2.977769        81.0292 
 368   0.0000       2.991153        81.3934 
 369   0.0000       3.003618        81.7326 
 370   0.0000       3.013737        82.0080 
 371   0.0000       3.019802        82.1730 
 372   0.0000       3.030362        82.4603 
 373   0.0000       3.034652        82.5771 
 374   0.0000       3.058309        83.2208 
 375   0.0000       3.064846        83.3987 
 376   0.0000       3.068736        83.5045 
 377   0.0000       3.071413        83.5774 
 378   0.0000       3.078643        83.7741 
 379   0.0000       3.102464        84.4223 
 380   0.0000       3.105149        84.4954 
 381   0.0000       3.110270        84.6348 
 382   0.0000       3.126950        85.0886 
 383   0.0000       3.130107        85.1745 
 384   0.0000       3.137149        85.3662 
 385   0.0000       3.141729        85.4908 
 386   0.0000       3.155951        85.8778 
 387   0.0000       3.162149        86.0464 
 388   0.0000       3.182231        86.5929 
 389   0.0000       3.193813        86.9081 
 390   0.0000       3.195970        86.9668 
 391   0.0000       3.212393        87.4137 
 392   0.0000       3.216582        87.5277 
 393   0.0000       3.231489        87.9333 
 394   0.0000       3.240742        88.1851 
 395   0.0000       3.251295        88.4722 
 396   0.0000       3.260458        88.7216 
 397   0.0000       3.269255        88.9609 
 398   0.0000       3.283188        89.3401 
 399   0.0000       3.295305        89.6698 
 400   0.0000       3.299358        89.7801 
 401   0.0000       3.311442        90.1089 
 402   0.0000       3.325059        90.4794 
 403   0.0000       3.342822        90.9628 
 404   0.0000       3.350563        91.1735 
 405   0.0000       3.365568        91.5818 
 406   0.0000       3.369069        91.6770 
 407   0.0000       3.384366        92.0933 
 408   0.0000       3.394503        92.3691 
 409   0.0000       3.402549        92.5881 
 410   0.0000       3.409910        92.7884 
 411   0.0000       3.423600        93.1609 
 412   0.0000       3.440096        93.6098 
 413   0.0000       3.446190        93.7756 
 414   0.0000       3.459392        94.1348 
 415   0.0000       3.481625        94.7398 
 416   0.0000       3.481987        94.7497 
 417   0.0000       3.493065        95.0511 
 418   0.0000       3.516404        95.6862 
 419   0.0000       3.537863        96.2702 
 420   0.0000       3.554998        96.7364 
 421   0.0000       3.563807        96.9761 
 422   0.0000       3.592761        97.7640 
 423   0.0000       3.606266        98.1315 
 424   0.0000       3.625829        98.6638 
 425   0.0000       3.646176        99.2175 
 426   0.0000       3.660886        99.6178 
 427   0.0000       3.671564        99.9083 
 428   0.0000       3.682731       100.2122 
 429   0.0000       3.699485       100.6681 
 430   0.0000       3.708279       100.9074 
 431   0.0000       3.716523       101.1317 
 432   0.0000       3.747910       101.9858 
 433   0.0000       3.763947       102.4222 
 434   0.0000       3.769424       102.5712 
 435   0.0000       3.790101       103.1339 
 436   0.0000       3.800313       103.4118 
 437   0.0000       3.813579       103.7727 
 438   0.0000       3.820556       103.9626 
 439   0.0000       3.836072       104.3848 
 440   0.0000       3.859164       105.0132 
 441   0.0000       3.882171       105.6392 
 442   0.0000       3.938759       107.1791 
 443   0.0000       3.939944       107.2113 
 444   0.0000       3.961956       107.8103 
 445   0.0000       3.986473       108.4774 
 446   0.0000       4.005102       108.9844 
 447   0.0000       4.024135       109.5023 
 448   0.0000       4.038170       109.8842 
 449   0.0000       4.061185       110.5105 
 450   0.0000       4.079118       110.9984 
 451   0.0000       4.101380       111.6042 
 452   0.0000       4.107243       111.7638 
 453   0.0000       4.137538       112.5881 
 454   0.0000       4.183254       113.8321 
 455   0.0000       4.187987       113.9609 
 456   0.0000       4.239405       115.3601 
 457   0.0000       4.278451       116.4226 
 458   0.0000       4.291479       116.7771 
 459   0.0000       4.302544       117.0782 
 460   0.0000       4.316565       117.4597 
 461   0.0000       4.326889       117.7406 
 462   0.0000       4.329815       117.8203 
 463   0.0000       4.337698       118.0348 
 464   0.0000       4.383774       119.2886 
 465   0.0000       4.398095       119.6782 
 466   0.0000       4.414157       120.1153 
 467   0.0000       4.439673       120.8097 
 468   0.0000       4.445876       120.9784 
 469   0.0000       4.489003       122.1520 
 470   0.0000       4.502985       122.5325 
 471   0.0000       4.509942       122.7218 
 472   0.0000       4.542566       123.6095 
 473   0.0000       4.566334       124.2563 
 474   0.0000       4.588588       124.8618 
 475   0.0000       4.595918       125.0613 
 476   0.0000       4.597789       125.1122 
 477   0.0000       4.612722       125.5186 
 478   0.0000       4.634383       126.1080 
 479   0.0000       4.654544       126.6566 
 480   0.0000       4.688930       127.5923 
 481   0.0000       4.719363       128.4204 
 482   0.0000       4.737310       128.9088 
 483   0.0000       4.752327       129.3174 
 484   0.0000       4.767497       129.7302 
 485   0.0000       4.818751       131.1249 
 486   0.0000       4.822625       131.2303 
 487   0.0000       4.906060       133.5007 
 488   0.0000       4.931931       134.2047 
 489   0.0000       4.937184       134.3476 
 490   0.0000       4.964681       135.0958 
 491   0.0000       4.970940       135.2662 
 492   0.0000       4.984364       135.6314 
 493   0.0000       5.000012       136.0573 
 494   0.0000       5.018239       136.5532 
 495   0.0000       5.069791       137.9560 
 496   0.0000       5.097988       138.7233 
 497   0.0000       5.128848       139.5630 
 498   0.0000       5.131133       139.6252 
 499   0.0000       5.139002       139.8394 
 500   0.0000       5.175607       140.8354 
 501   0.0000       5.198847       141.4678 
 502   0.0000       5.205803       141.6571 
 503   0.0000       5.212673       141.8440 
 504   0.0000       5.223982       142.1518 
 505   0.0000       5.264945       143.2664 
 506   0.0000       5.304984       144.3560 
 507   0.0000       5.360770       145.8740 
 508   0.0000       5.387827       146.6102 
 509   0.0000       5.420690       147.5045 
 510   0.0000       5.512575       150.0048 
 511   0.0000       5.516801       150.1198 
 512   0.0000       5.571490       151.6080 
 513   0.0000       5.585062       151.9773 
 514   0.0000       5.635673       153.3545 
 515   0.0000       5.686385       154.7344 
 516   0.0000       5.779028       157.2553 
 517   0.0000       5.812014       158.1529 
 518   0.0000       6.005062       163.4061 
 519   0.0000       6.017182       163.7359 
 520   0.0000       6.214376       169.1018 
 521   0.0000       6.215152       169.1229 
 522   0.0000       6.350132       172.7959 
 523   0.0000       6.361189       173.0967 
 524   0.0000       6.460980       175.8122 
 525   0.0000       6.475116       176.1969 
 526   0.0000       6.557312       178.4335 
 527   0.0000       6.570399       178.7897 
 528   0.0000       6.750047       183.6781 
 529   0.0000       6.756874       183.8639 
 530   0.0000       6.963616       189.4896 
 531   0.0000       6.975566       189.8148 
 532   0.0000       6.991328       190.2437 
 533   0.0000       7.002980       190.5608 
 534   0.0000      22.219063       604.6114 
 535   0.0000      22.329105       607.6058 
 536   0.0000      22.360159       608.4508 
 537   0.0000      22.394079       609.3739 
 538   0.0000      22.438188       610.5741 
 539   0.0000      22.475880       611.5998 
 540   0.0000      22.647313       616.2647 
 541   0.0000      23.283226       633.5688 
 542   0.0000      23.286936       633.6697 
 543   0.0000      31.760388       864.2441 
 544   0.0000      32.410904       881.9455 
 545   0.0000      32.554916       885.8643 
 546   0.0000      43.996277      1197.1996 
 547   0.0000      44.056178      1198.8295 

                 SPIN DOWN ORBITALS
  NO   OCC          E(Eh)            E(eV) 
   0   1.0000     -19.691609      -535.8359 
   1   1.0000     -19.674154      -535.3610 
   2   1.0000     -15.064577      -409.9280 
   3   1.0000     -14.873427      -404.7265 
   4   1.0000     -14.859409      -404.3451 
   5   1.0000     -10.778873      -293.3081 
   6   1.0000     -10.745044      -292.3875 
   7   1.0000     -10.729216      -291.9568 
   8   1.0000     -10.703934      -291.2689 
   9   1.0000     -10.692948      -290.9699 
  10   1.0000     -10.670343      -290.3548 
  11   1.0000     -10.656179      -289.9694 
  12   1.0000     -10.654451      -289.9223 
  13   1.0000     -10.619272      -288.9651 
  14   1.0000      -1.301967       -35.4283 
  15   1.0000      -1.254781       -34.1443 
  16   1.0000      -1.235974       -33.6326 
  17   1.0000      -1.125878       -30.6367 
[...]
     47      -0.005079  -0.000028  -0.000002
     48      -0.390622   0.000287   0.000112
     49       0.720101  -0.000500  -0.000197
     50       0.094088  -0.000100  -0.000024
     51      -0.048585   0.000027  -0.000097
     52       0.024443  -0.000105   0.000019
     53       0.259847  -0.000202   0.000379
     54       0.000104   0.475546  -0.019302
     55       0.000007  -0.023643   0.000919
     56      -0.000248  -0.875223   0.036906
     57      -0.000023  -0.001096   0.000064
     58       0.000009   0.000098   0.000013
     59       0.000002  -0.000419   0.000155
     60       0.000000   0.001128   0.031809
     61      -0.000020  -0.001447  -0.039020
     62       0.000002  -0.002235  -0.053445
     63      -0.000054  -0.018223  -0.421968
     64      -0.000055   0.022552   0.528068
     65       0.000039   0.030296   0.731944
     66       0.000015   0.000372  -0.000005
     67       0.000008   0.000188  -0.000012
     68      -0.000001  -0.001514  -0.000005
     69      -0.416944  -0.000464  -0.000140
     70      -0.024259  -0.000072  -0.000041
     71      -0.261409  -0.000316  -0.000052
     72      -0.000015   0.000066   0.000881
     73      -0.000034   0.000023  -0.000606
     74       0.000008   0.000067   0.000707
     75      -0.000011   0.000002  -0.000488
     76       0.000048  -0.000064   0.000869
     77      -0.000005  -0.000175  -0.000864
     78       0.000055  -0.000248  -0.000759
     79      -0.000039  -0.000056   0.000198
     80       0.000011   0.000033  -0.000973
     81      -0.000035   0.000098  -0.005108
     82      -0.000017   0.000149   0.006718
     83       0.000034   0.000408   0.010516
     84       0.000004  -0.000068  -0.000005
     85       0.000028  -0.000047  -0.000001
     86       0.000006   0.000344  -0.000022
     87      -0.000009  -0.000138  -0.000043
     88      -0.000002   0.000269  -0.000001
     89      -0.000009  -0.000056  -0.000001
     90       0.000019   0.000116   0.000060
     91       0.000031  -0.000310   0.000008
     92      -0.000058  -0.005058   0.000158
     93       0.000009  -0.000179  -0.000030
     94       0.000026   0.000316   0.000012
     95       0.000020  -0.000184  -0.000018
     96      -0.000007   0.005103  -0.002820
     97      -0.000040  -0.004790   0.002823
     98       0.000024  -0.001168   0.001243


-----------
IR SPECTRUM
-----------

 Mode   freq       eps      Int      T**2         TX        TY        TZ
       cm**-1   L/(mol*cm) km/mol    a.u.
----------------------------------------------------------------------------
  6:     34.86   0.002383   12.04  0.021337  (-0.080016 -0.007105 -0.121999)
  7:     48.06   0.001020    5.16  0.006625  ( 0.059878  0.024421 -0.049430)
  8:     68.11   0.001427    7.21  0.006540  (-0.058603 -0.030821  0.046428)
  9:     80.66   0.003623   18.31  0.014015  (-0.002497  0.117027 -0.017713)
 10:     90.46   0.000301    1.52  0.001038  (-0.023113 -0.006120 -0.021586)
 11:     98.89   0.000390    1.97  0.001232  (-0.010373 -0.031424 -0.011703)
 12:    100.48   0.000550    2.78  0.001709  (-0.004562 -0.039533 -0.011197)
 13:    113.55   0.000666    3.36  0.001829  ( 0.025194  0.026015  0.022758)
 14:    125.37   0.000202    1.02  0.000502  (-0.008284 -0.020811 -0.000786)
 15:    128.23   0.001601    8.09  0.003897  ( 0.052808  0.028250  0.017610)
 16:    139.74   0.001190    6.01  0.002658  ( 0.009914  0.033231  0.038144)
 17:    175.02   0.003000   15.16  0.005350  ( 0.052231  0.048556  0.016250)
 18:    224.81   0.003347   16.92  0.004646  (-0.015228  0.061425 -0.025327)
 19:    247.34   0.000377    1.90  0.000475  ( 0.017127  0.002886  0.013168)
 20:    257.04   0.000021    0.11  0.000026  ( 0.003710 -0.003285  0.001036)
 21:    268.23   0.000796    4.02  0.000926  (-0.029352  0.006302 -0.004931)
 22:    291.32   0.000090    0.45  0.000096  ( 0.005903 -0.007181  0.003154)
 23:    349.00   0.000144    0.73  0.000128  (-0.011295  0.000156  0.000944)
 24:    384.09   0.004654   23.52  0.003782  (-0.041781  0.001989 -0.045078)
 25:    405.20   0.001211    6.12  0.000932  (-0.029079 -0.005938  0.007171)
 26:    440.69   0.002283   11.54  0.001617  (-0.033612 -0.001003 -0.022041)
 27:    468.97   0.004651   23.50  0.003095  (-0.041517 -0.035320  0.011118)
 28:    494.50   0.011414   57.68  0.007203  ( 0.024213  0.081160 -0.005461)
 29:    518.94   0.015820   79.95  0.009514  ( 0.039917  0.084569 -0.027719)
 30:    579.08   0.004301   21.74  0.002318  ( 0.042091 -0.007211  0.022230)
 31:    646.21   0.000659    3.33  0.000318  (-0.015714 -0.006215 -0.005708)
 32:    720.46   0.000906    4.58  0.000392  ( 0.005682  0.016029  0.010160)
 33:    732.81   0.000271    1.37  0.000115  (-0.006030  0.004554 -0.007632)
 34:    760.37   0.001423    7.19  0.000584  ( 0.008673 -0.002129  0.022459)
 35:    804.62   0.000090    0.46  0.000035  (-0.000792 -0.004459  0.003815)
 36:    837.39   0.001229    6.21  0.000458  ( 0.008529  0.007190  0.018268)
 37:    894.84   0.003657   18.48  0.001275  (-0.005460  0.034969 -0.004754)
 38:    911.56   0.000810    4.09  0.000277  ( 0.012412  0.011094 -0.000433)
 39:    947.36   0.002014   10.18  0.000663  (-0.009821  0.020808 -0.011575)
 40:    961.01   0.002582   13.05  0.000838  (-0.006890  0.019848  0.019927)
 41:    983.02   0.000864    4.36  0.000274  (-0.015588  0.001359  0.005418)
 42:   1016.61   0.000686    3.46  0.000210  ( 0.006158  0.007444 -0.010823)
 43:   1027.11   0.001580    7.98  0.000480  (-0.016705 -0.007944 -0.011741)
 44:   1061.66   0.001088    5.50  0.000320  ( 0.001506 -0.017797  0.000930)
 45:   1066.37   0.001286    6.50  0.000376  ( 0.016354  0.010100  0.002636)
 46:   1074.14   0.001599    8.08  0.000465  ( 0.009390 -0.018124  0.006928)
 47:   1095.70   0.000730    3.69  0.000208  (-0.000426 -0.013133 -0.005928)
 48:   1134.01   0.002412   12.19  0.000664  (-0.011651  0.022799  0.002877)
 49:   1159.68   0.000176    0.89  0.000047  (-0.006237 -0.001759  0.002323)
 50:   1170.36   0.000695    3.51  0.000185  (-0.009049  0.009865  0.002450)
 51:   1181.07   0.008789   44.41  0.002322  (-0.033039  0.027915 -0.021244)
 52:   1194.75   0.003206   16.20  0.000837  ( 0.026797 -0.002832  0.010546)
 53:   1233.85   0.007532   38.07  0.001905  (-0.029914  0.013586 -0.028733)
 54:   1264.53   0.000564    2.85  0.000139  (-0.008672  0.002150 -0.007704)
 55:   1274.86   0.002010   10.16  0.000492  ( 0.013723 -0.007375  0.015788)
 56:   1289.92   0.003657   18.48  0.000885  (-0.018504 -0.023168  0.002342)
 57:   1325.68   0.007304   36.91  0.001719  (-0.018878  0.000721 -0.036910)
 58:   1332.47   0.008892   44.94  0.002082  (-0.023430  0.003566 -0.038997)
 59:   1354.60   0.000103    0.52  0.000024  ( 0.001749 -0.003030 -0.003394)
 60:   1360.47   0.002321   11.73  0.000532  ( 0.019532 -0.000581  0.012268)
 61:   1376.68   0.001777    8.98  0.000403  (-0.001599  0.010698 -0.016904)
 62:   1407.27   0.005380   27.19  0.001193  (-0.031411 -0.003003 -0.014051)
 63:   1417.19   0.003071   15.52  0.000676  (-0.011397 -0.022462  0.006461)
 64:   1435.60   0.000105    0.53  0.000023  (-0.003076  0.003640 -0.000074)
 65:   1450.96   0.004515   22.82  0.000971  (-0.021234  0.019935  0.011079)
 66:   1470.77   0.001474    7.45  0.000313  (-0.009764  0.013010 -0.006947)
 67:   1471.54   0.006316   31.92  0.001339  ( 0.013122 -0.015225  0.030583)
 68:   1487.77   0.005766   29.14  0.001209  ( 0.014405  0.008353  0.030531)
 69:   1493.68   0.003473   17.55  0.000726  ( 0.014044  0.020255 -0.010864)
 70:   1504.35   0.003317   16.76  0.000688  (-0.021964 -0.012298 -0.007379)
 71:   1507.11   0.028554  144.30  0.005912  (-0.021610 -0.062237  0.039648)
 72:   1507.62   0.010823   54.70  0.002240  ( 0.038482  0.018392  0.020521)
 73:   1515.20   0.002805   14.18  0.000578  ( 0.022176 -0.004472 -0.008120)
 74:   1538.61   0.070202  354.77  0.014239  ( 0.097580 -0.003266  0.068601)
 75:   1594.66   0.044293  223.84  0.008668  ( 0.064644 -0.048033  0.046709)
 76:   1661.89   0.010446   52.79  0.001961  ( 0.021714  0.001583  0.038567)
 77:   1662.13   0.007423   37.51  0.001394  ( 0.021972 -0.027134 -0.013217)
 78:   1774.31   0.071022  358.92  0.012491  ( 0.057669 -0.018191 -0.093993)
 79:   1787.06   0.030138  152.30  0.005263  (-0.048808  0.053028 -0.008280)
 80:   3004.15   0.002457   12.41  0.000255  ( 0.010660 -0.011233  0.003918)
 81:   3054.54   0.002536   12.82  0.000259  ( 0.012319  0.008693 -0.005636)
 82:   3067.13   0.000143    0.72  0.000015  ( 0.003309 -0.000593 -0.001790)
 83:   3086.47   0.007205   36.41  0.000728  (-0.019150  0.010072 -0.016134)
 84:   3089.28   0.000189    0.95  0.000019  (-0.001174  0.000222  0.004199)
 85:   3090.27   0.002067   10.45  0.000209  (-0.009800  0.010612 -0.000321)
 86:   3107.56   0.001048    5.30  0.000105  ( 0.005060  0.001292  0.008830)
 87:   3118.81   0.000203    1.03  0.000020  ( 0.003675 -0.002239 -0.001334)
 88:   3157.57   0.001620    8.19  0.000160  ( 0.007977  0.009497 -0.002504)
 89:   3167.88   0.000471    2.38  0.000046  ( 0.004890 -0.001627 -0.004454)
 90:   3181.42   0.000026    0.13  0.000003  (-0.000781 -0.000412 -0.001313)
 91:   3189.21   0.000624    3.15  0.000061  (-0.001662 -0.001304  0.007522)
 92:   3198.09   0.000003    0.02  0.000000  ( 0.000104  0.000444  0.000347)
 93:   3222.93   0.000423    2.14  0.000041  (-0.005702 -0.000801  0.002788)
 94:   3412.78   0.012138   61.34  0.001110  ( 0.015183  0.027614 -0.010809)
 95:   3496.41   0.021391  108.10  0.001909  (-0.012076 -0.009976 -0.040790)
 96:   3504.00   0.022985  116.16  0.002047  (-0.033607  0.030095  0.003447)
 97:   3635.78   0.016307   82.41  0.001400  ( 0.003994  0.003291 -0.037052)
 98:   3655.99   0.010932   55.25  0.000933  (-0.019479  0.019242  0.013544)

* The epsilon (eps) is given for a Dirac delta lineshape.
** The dipole moment derivative (T) already includes vibrational overlap.

The first frequency considered to be a vibration is 6
The total number of vibrations considered is 93


--------------------------
THERMOCHEMISTRY AT 298.15K
--------------------------

Temperature         ... 298.15 K
Pressure            ... 1.00 atm
Total Mass          ... 201.27 AMU

Throughout the following assumptions are being made:
  (1) The electronic state is orbitally nondegenerate
      but the spin degeneracy is treated
  (2) There are no thermally accessible electronically excited states
  (3) Hindered rotations indicated by low frequency modes are not
      treated as such but are treated as vibrations and this may
      cause some error
  (4) All equations used are the standard statistical mechanics
      equations for an ideal gas
  (5) All vibrations are strictly harmonic

freq.      34.86  E(vib)   ...       0.54 
freq.      48.06  E(vib)   ...       0.53 
freq.      68.11  E(vib)   ...       0.50 
freq.      80.66  E(vib)   ...       0.48 
freq.      90.46  E(vib)   ...       0.47 
freq.      98.89  E(vib)   ...       0.46 
freq.     100.48  E(vib)   ...       0.46 
freq.     113.55  E(vib)   ...       0.44 
freq.     125.37  E(vib)   ...       0.43 
freq.     128.23  E(vib)   ...       0.43 
freq.     139.74  E(vib)   ...       0.42 
freq.     175.02  E(vib)   ...       0.38 
freq.     224.81  E(vib)   ...       0.33 
freq.     247.34  E(vib)   ...       0.31 
freq.     257.04  E(vib)   ...       0.30 
freq.     268.23  E(vib)   ...       0.29 
freq.     291.32  E(vib)   ...       0.27 
freq.     349.00  E(vib)   ...       0.23 
freq.     384.09  E(vib)   ...       0.20 
freq.     405.20  E(vib)   ...       0.19 
freq.     440.69  E(vib)   ...       0.17 
freq.     468.97  E(vib)   ...       0.16 
freq.     494.50  E(vib)   ...       0.14 
freq.     518.94  E(vib)   ...       0.13 
freq.     579.08  E(vib)   ...       0.11 
freq.     646.21  E(vib)   ...       0.09 
freq.     720.46  E(vib)   ...       0.07 
freq.     732.81  E(vib)   ...       0.06 
freq.     760.37  E(vib)   ...       0.06 
freq.     804.62  E(vib)   ...       0.05 
freq.     837.39  E(vib)   ...       0.04 
freq.     894.84  E(vib)   ...       0.03 
freq.     911.56  E(vib)   ...       0.03 
freq.     947.36  E(vib)   ...       0.03 
freq.     961.01  E(vib)   ...       0.03 
freq.     983.02  E(vib)   ...       0.02 
freq.    1016.61  E(vib)   ...       0.02 
freq.    1027.11  E(vib)   ...       0.02 
freq.    1061.66  E(vib)   ...       0.02 
freq.    1066.37  E(vib)   ...       0.02 
freq.    1074.14  E(vib)   ...       0.02 
freq.    1095.70  E(vib)   ...       0.02 
freq.    1134.01  E(vib)   ...       0.01 
freq.    1159.68  E(vib)   ...       0.01 
freq.    1170.36  E(vib)   ...       0.01 
freq.    1181.07  E(vib)   ...       0.01 
freq.    1194.75  E(vib)   ...       0.01 
freq.    1233.85  E(vib)   ...       0.01 
freq.    1264.53  E(vib)   ...       0.01 
freq.    1274.86  E(vib)   ...       0.01 
freq.    1289.92  E(vib)   ...       0.01 
freq.    1325.68  E(vib)   ...       0.01 
freq.    1332.47  E(vib)   ...       0.01 
freq.    1354.60  E(vib)   ...       0.01 
freq.    1360.47  E(vib)   ...       0.01 
freq.    1376.68  E(vib)   ...       0.01 
freq.    1407.27  E(vib)   ...       0.00 
freq.    1417.19  E(vib)   ...       0.00 
freq.    1435.60  E(vib)   ...       0.00 
freq.    1450.96  E(vib)   ...       0.00 
freq.    1470.77  E(vib)   ...       0.00 
freq.    1471.54  E(vib)   ...       0.00 
freq.    1487.77  E(vib)   ...       0.00 
freq.    1493.68  E(vib)   ...       0.00 
freq.    1504.35  E(vib)   ...       0.00 
freq.    1507.11  E(vib)   ...       0.00 
freq.    1507.62  E(vib)   ...       0.00 
freq.    1515.20  E(vib)   ...       0.00 
freq.    1538.61  E(vib)   ...       0.00 
freq.    1594.66  E(vib)   ...       0.00 
freq.    1661.89  E(vib)   ...       0.00 
freq.    1662.13  E(vib)   ...       0.00 
freq.    1774.31  E(vib)   ...       0.00 
freq.    1787.06  E(vib)   ...       0.00 
freq.    3004.15  E(vib)   ...       0.00 
freq.    3054.54  E(vib)   ...       0.00 
freq.    3067.13  E(vib)   ...       0.00 
freq.    3086.47  E(vib)   ...       0.00 
freq.    3089.28  E(vib)   ...       0.00 
freq.    3090.27  E(vib)   ...       0.00 
freq.    3107.56  E(vib)   ...       0.00 
freq.    3118.81  E(vib)   ...       0.00 
freq.    3157.57  E(vib)   ...       0.00 
freq.    3167.88  E(vib)   ...       0.00 
freq.    3181.42  E(vib)   ...       0.00 
freq.    3189.21  E(vib)   ...       0.00 
freq.    3198.09  E(vib)   ...       0.00 
freq.    3222.93  E(vib)   ...       0.00 
freq.    3412.78  E(vib)   ...       0.00 
freq.    3496.41  E(vib)   ...       0.00 
freq.    3504.00  E(vib)   ...       0.00 
freq.    3635.78  E(vib)   ...       0.00 
freq.    3655.99  E(vib)   ...       0.00 

------------
INNER ENERGY
------------

The inner energy is: U= E(el) + E(ZPE) + E(vib) + E(rot) + E(trans)
    E(el)   - is the total energy from the electronic structure calculation
              = E(kin-el) + E(nuc-el) + E(el-el) + E(nuc-nuc)
    E(ZPE)  - the the zero temperature vibrational energy from the frequency calculation
    E(vib)  - the the finite temperature correction to E(ZPE) due to population
              of excited vibrational states
    E(rot)  - is the rotational thermal energy
    E(trans)- is the translational thermal energy

Summary of contributions to the inner energy U:
Electronic energy                ...   -668.80791673 Eh
Zero point energy                ...      0.29264158 Eh     183.63 kcal/mol
Thermal vibrational correction   ...      0.01460948 Eh       9.17 kcal/mol
Thermal rotational correction    ...      0.00141627 Eh       0.89 kcal/mol
Thermal translational correction ...      0.00141627 Eh       0.89 kcal/mol
-----------------------------------------------------------------------
Total thermal energy                   -668.49783312 Eh


Summary of corrections to the electronic energy:
(perhaps to be used in another calculation)
Total thermal correction                  0.01744203 Eh      10.95 kcal/mol
Non-thermal (ZPE) correction              0.29264158 Eh     183.63 kcal/mol
-----------------------------------------------------------------------
Total correction                          0.31008361 Eh     194.58 kcal/mol


--------
ENTHALPY
--------

The enthalpy is H = U + kB*T
                kB is Boltzmann's constant
Total free energy                 ...   -668.49783312 Eh 
Thermal Enthalpy correction       ...      0.00094421 Eh       0.59 kcal/mol
-----------------------------------------------------------------------
Total Enthalpy                    ...   -668.49688891 Eh


Note: Only C1 symmetry has been detected, increase convergence thresholds 
      if your molecule has a higher symmetry. Symmetry factor of 1.0 is   
      used for the rotational entropy correction. 
 

Note: Rotational entropy computed according to Herzberg 
Infrared and Raman Spectra, Chapter V,1, Van Nostrand Reinhold, 1945 
Point Group:  C1, Symmetry Number:   1  
Rotational constants in cm-1:     0.020640     0.013756     0.009296 

Vibrational entropy computed according to the QRRHO of S. Grimme
Chem.Eur.J. 2012 18 9955


-------
ENTROPY
-------

The entropy contributions are T*S = T*(S(el)+S(vib)+S(rot)+S(trans))
     S(el)   - electronic entropy
     S(vib)  - vibrational entropy
     S(rot)  - rotational entropy
     S(trans)- translational entropy
The entropies will be listed as multiplied by the temperature to get
units of energy

Electronic entropy                ...      0.00065446 Eh      0.41 kcal/mol
Vibrational entropy               ...      0.02659938 Eh     16.69 kcal/mol
Rotational entropy                ...      0.01557480 Eh      9.77 kcal/mol
Translational entropy             ...      0.01986189 Eh     12.46 kcal/mol
-----------------------------------------------------------------------
Final entropy term                ...      0.06269053 Eh     39.34 kcal/mol

In case the symmetry of your molecule has not been determined correctly
or in case you have a reason to use a different symmetry number we print 
out the resulting rotational entropy values for sn=1,12 :
 --------------------------------------------------------
|  sn= 1 | S(rot)=       0.01557480 Eh      9.77 kcal/mol|
|  sn= 2 | S(rot)=       0.01492035 Eh      9.36 kcal/mol|
|  sn= 3 | S(rot)=       0.01453751 Eh      9.12 kcal/mol|
|  sn= 4 | S(rot)=       0.01426589 Eh      8.95 kcal/mol|
|  sn= 5 | S(rot)=       0.01405520 Eh      8.82 kcal/mol|
|  sn= 6 | S(rot)=       0.01388306 Eh      8.71 kcal/mol|
|  sn= 7 | S(rot)=       0.01373751 Eh      8.62 kcal/mol|
|  sn= 8 | S(rot)=       0.01361143 Eh      8.54 kcal/mol|
|  sn= 9 | S(rot)=       0.01350022 Eh      8.47 kcal/mol|
|  sn=10 | S(rot)=       0.01340075 Eh      8.41 kcal/mol|
|  sn=11 | S(rot)=       0.01331075 Eh      8.35 kcal/mol|
|  sn=12 | S(rot)=       0.01322860 Eh      8.30 kcal/mol|
 --------------------------------------------------------


-------------------
GIBBS FREE ENERGY
-------------------

The Gibbs free energy is G = H - T*S

Total enthalpy                    ...   -668.49688891 Eh 
Total entropy correction          ...     -0.06269053 Eh    -39.34 kcal/mol
-----------------------------------------------------------------------
Final Gibbs free energy         ...   -668.55957944 Eh

For completeness - the Gibbs free energy minus the electronic energy
G-E(el)                           ...      0.24833729 Eh    155.83 kcal/mol


Timings for individual modules:

Sum of individual times         ...     1384.005 sec (=  23.067 min)
GTO integral calculation        ...       28.109 sec (=   0.468 min)   2.0 %
SCF iterations                  ...      427.828 sec (=   7.130 min)  30.9 %
SCF Gradient evaluation         ...      119.227 sec (=   1.987 min)   8.6 %
Geometry relaxation             ...        0.447 sec (=   0.007 min)   0.0 %
Analytical frequency calculation...      808.394 sec (=  13.473 min)  58.4 %
                             ****ORCA TERMINATED NORMALLY****
TOTAL RUN TIME: 0 days 0 hours 23 minutes 27 seconds 159 msec
