
                                 *****************
                                 * O   R   C   A *
                                 *****************

                                            #,                                       
                                            ###                                      
                                            ####                                     
                                            #####                                    
                                            ######                                   
                                           ########,                                 
                                     ,,################,,,,,                         
                               ,,#################################,,                 
                          ,,##########################################,,             
                       ,#########################################, ''#####,          
                    ,#############################################,,   '####,        
                  ,##################################################,,,,####,       
                ,###########''''           ''''###############################       
              ,#####''   ,,,,##########,,,,          '''####'''          '####       
            ,##' ,,,,###########################,,,                        '##       
           ' ,,###''''                  '''############,,,                           
         ,,##''                                '''############,,,,        ,,,,,,###''
      ,#''                                            '''#######################'''  
     '                                                          ''''####''''         
             ,#######,   #######,   ,#######,      ##                                
            ,#'     '#,  ##    ##  ,#'     '#,    #''#        ######   ,####,        
            ##       ##  ##   ,#'  ##            #'  '#       #        #'  '#        
            ##       ##  #######   ##           ,######,      #####,   #    #        
            '#,     ,#'  ##    ##  '#,     ,#' ,#      #,         ##   #,  ,#        
             '#######'   ##     ##  '#######'  #'      '#     #####' # '####'        



                  #######################################################
                  #                        -***-                        #
                  #          Department of theory and spectroscopy      #
                  #    Directorship and core code : Frank Neese         #
                  #        Max Planck Institute fuer Kohlenforschung    #
                  #                Kaiser Wilhelm Platz 1               #
                  #                 D-45470 Muelheim/Ruhr               #
                  #                      Germany                        #
                  #                                                     #
                  #                  All rights reserved                #
                  #                        -***-                        #
                  #######################################################


                         Program Version 5.0.4 -  RELEASE  -


 With contributions from (in alphabetic order):
   Daniel Aravena         : Magnetic Suceptibility
   Michael Atanasov       : Ab Initio Ligand Field Theory (pilot matlab implementation)
   Alexander A. Auer      : GIAO ZORA, VPT2 properties, NMR spectrum
   Ute Becker             : Parallelization
   Giovanni Bistoni       : ED, misc. LED, open-shell LED, HFLD
   Martin Brehm           : Molecular dynamics
   Dmytro Bykov           : SCF Hessian
   Vijay G. Chilkuri      : MRCI spin determinant printing, contributions to CSF-ICE
   Dipayan Datta          : RHF DLPNO-CCSD density
   Achintya Kumar Dutta   : EOM-CC, STEOM-CC
   Dmitry Ganyushin       : Spin-Orbit,Spin-Spin,Magnetic field MRCI
   Miquel Garcia          : C-PCM and meta-GGA Hessian, CC/C-PCM, Gaussian charge scheme
   Yang Guo               : DLPNO-NEVPT2, F12-NEVPT2, CIM, IAO-localization
   Andreas Hansen         : Spin unrestricted coupled pair/coupled cluster methods
   Benjamin Helmich-Paris : MC-RPA, TRAH-SCF, COSX integrals
   Lee Huntington         : MR-EOM, pCC
   Robert Izsak           : Overlap fitted RIJCOSX, COSX-SCS-MP3, EOM
   Marcus Kettner         : VPT2
   Christian Kollmar      : KDIIS, OOCD, Brueckner-CCSD(T), CCSD density, CASPT2, CASPT2-K
   Simone Kossmann        : Meta GGA functionals, TD-DFT gradient, OOMP2, MP2 Hessian
   Martin Krupicka        : Initial AUTO-CI
   Lucas Lang             : DCDCAS
   Marvin Lechner         : AUTO-CI (C++ implementation), FIC-MRCC
   Dagmar Lenk            : GEPOL surface, SMD
   Dimitrios Liakos       : Extrapolation schemes; Compound Job, initial MDCI parallelization
   Dimitrios Manganas     : Further ROCIS development; embedding schemes
   Dimitrios Pantazis     : SARC Basis sets
   Anastasios Papadopoulos: AUTO-CI, single reference methods and gradients
   Taras Petrenko         : DFT Hessian,TD-DFT gradient, ASA, ECA, R-Raman, ABS, FL, XAS/XES, NRVS
   Peter Pinski           : DLPNO-MP2, DLPNO-MP2 Gradient
   Christoph Reimann      : Effective Core Potentials
   Marius Retegan         : Local ZFS, SOC
   Christoph Riplinger    : Optimizer, TS searches, QM/MM, DLPNO-CCSD(T), (RO)-DLPNO pert. Triples
   Tobias Risthaus        : Range-separated hybrids, TD-DFT gradient, RPA, STAB
   Michael Roemelt        : Original ROCIS implementation
   Masaaki Saitow         : Open-shell DLPNO-CCSD energy and density
   Barbara Sandhoefer     : DKH picture change effects
   Avijit Sen             : IP-ROCIS
   Kantharuban Sivalingam : CASSCF convergence, NEVPT2, FIC-MRCI
   Bernardo de Souza      : ESD, SOC TD-DFT
   Georgi Stoychev        : AutoAux, RI-MP2 NMR, DLPNO-MP2 response
   Willem Van den Heuvel  : Paramagnetic NMR
   Boris Wezisla          : Elementary symmetry handling
   Frank Wennmohs         : Technical directorship


 We gratefully acknowledge several colleagues who have allowed us to
 interface, adapt or use parts of their codes:
   Stefan Grimme, W. Hujo, H. Kruse, P. Pracht,  : VdW corrections, initial TS optimization,
                  C. Bannwarth, S. Ehlert          DFT functionals, gCP, sTDA/sTD-DF
   Ed Valeev, F. Pavosevic, A. Kumar             : LibInt (2-el integral package), F12 methods
   Garnet Chan, S. Sharma, J. Yang, R. Olivares  : DMRG
   Ulf Ekstrom                                   : XCFun DFT Library
   Mihaly Kallay                                 : mrcc  (arbitrary order and MRCC methods)
   Jiri Pittner, Ondrej Demel                    : Mk-CCSD
   Frank Weinhold                                : gennbo (NPA and NBO analysis)
   Christopher J. Cramer and Donald G. Truhlar   : smd solvation model
   Lars Goerigk                                  : TD-DFT with DH, B97 family of functionals
   V. Asgeirsson, H. Jonsson                     : NEB implementation
   FAccTs GmbH                                   : IRC, NEB, NEB-TS, DLPNO-Multilevel, CI-OPT
                                                   MM, QMMM, 2- and 3-layer-ONIOM, Crystal-QMMM,
                                                   LR-CPCM, SF, NACMEs, symmetry and pop. for TD-DFT,
                                                   nearIR, NL-DFT gradient (VV10), updates on ESD,
                                                   ML-optimized integration grids
   S Lehtola, MJT Oliveira, MAL Marques          : LibXC Library
   Liviu Ungur et al                             : ANISO software


 Your calculation uses the libint2 library for the computation of 2-el integrals
 For citations please refer to: http://libint.valeyev.net

 Your ORCA version has been built with support for libXC version: 5.1.0
 For citations please refer to: https://tddft.org/programs/libxc/

 This ORCA versions uses:
   CBLAS   interface :  Fast vector & matrix operations
   LAPACKE interface :  Fast linear algebra routines
   SCALAPACK package :  Parallel linear algebra routines
   Shared memory     :  Shared parallel matrices
   BLAS/LAPACK       :  OpenBLAS 0.3.15  USE64BITINT DYNAMIC_ARCH NO_AFFINITY Zen SINGLE_THREADED
        Core in use  :  Zen
   Copyright (c) 2011-2014, The OpenBLAS Project




***************************************
The coordinates will be read from file: model.xyz
***************************************


================================================================================

----- Orbital basis set information -----
Your calculation utilizes the basis: EPR-II
   V. Barone, in Recent Advances in Density Functional Methods, Part 1 (ed. D. P. Chong), World Scientific, Singapore, 1995, p. 287.

----- AuxJ basis set information -----
Your calculation utilizes the auxiliary basis: def2/J
   F. Weigend, Phys. Chem. Chem. Phys. 8, 1057 (2006).

================================================================================
                                        WARNINGS
                       Please study these warnings very carefully!
================================================================================


WARNING: your system is open-shell and RHF/RKS was chosen
  ===> : WILL SWITCH to UHF/UKS


WARNING: Geometry Optimization
  ===> : Switching off AutoStart
         For restart on a previous wavefunction, please use MOREAD

INFO   : the flag for use of the SHARK integral package has been found!

================================================================================
                                       INPUT FILE
================================================================================
NAME = opt.inp
|  1> ! B3LYP EPR-II OPT
|  2> %pal nprocs 16 end
|  3> *XYZFile 1 2 model.xyz
|  4> 
|  5>                          ****END OF INPUT****
================================================================================

                       *****************************
                       * Geometry Optimization Run *
                       *****************************

Geometry optimization settings:
Update method            Update   .... BFGS
Choice of coordinates    CoordSys .... Z-matrix Internals
Initial Hessian          InHess   .... Almoef's Model

Convergence Tolerances:
Energy Change            TolE     ....  5.0000e-06 Eh
Max. Gradient            TolMAXG  ....  3.0000e-04 Eh/bohr
RMS Gradient             TolRMSG  ....  1.0000e-04 Eh/bohr
Max. Displacement        TolMAXD  ....  4.0000e-03 bohr
RMS Displacement         TolRMSD  ....  2.0000e-03 bohr
Strict Convergence                ....  False
------------------------------------------------------------------------------
                        ORCA OPTIMIZATION COORDINATE SETUP
------------------------------------------------------------------------------

The optimization will be done in new redundant internal coordinates
Making redundant internal coordinates   ...  (new redundants) done
Evaluating the initial hessian          ...  (Almloef) done
Evaluating the coordinates              ...  done
Calculating the B-matrix                .... done
Calculating the G-matrix                .... done
Diagonalizing the G-matrix              .... done
Small eigenvalue found = 4.039e-03
Small eigenvalue found = 8.817e-03
Small eigenvalue found = 9.632e-03
Small eigenvalue found = 2.026e-02
Small eigenvalue found = 2.835e-02
The first mode is                       ....   67
The number of degrees of freedom        ....   93

    -----------------------------------------------------------------
                    Redundant Internal Coordinates


    -----------------------------------------------------------------
         Definition                    Initial Value    Approx d2E/dq
    -----------------------------------------------------------------
      1. B(C   1,N   0)                  1.4516         0.446301   
      2. B(C   2,C   1)                  1.5477         0.350037   
      3. B(O   3,C   2)                  1.2175         1.054544   
      4. B(C   4,C   1)                  1.5097         0.402435   
      5. B(C   5,C   4)                  1.4979         0.420277   
      6. B(C   6,C   5)                  1.5417         0.357914   
      7. B(C   7,C   6)                  1.5277         0.376724   
      8. B(N   8,C   7)                  1.5161         0.352165   
      9. B(H   9,C   4)                  1.0879         0.362916   
     10. B(H  10,C   5)                  1.1005         0.346493   
     11. B(H  11,C   5)                  1.1061         0.339372   
     12. B(H  12,C   6)                  1.1005         0.346525   
     13. B(H  13,C   6)                  1.0998         0.347371   
     14. B(H  14,C   7)                  1.0953         0.353095   
     15. B(H  15,C   7)                  1.0953         0.353159   
     16. B(H  16,N   8)                  1.0246         0.410087   
     17. B(H  17,N   8)                  1.0249         0.409642   
     18. B(H  18,N   0)                  1.0100         0.432671   
     19. B(C  19,N   0)                  1.3609         0.622845   
     20. B(N  20,C   2)                  1.3456         0.658639   
     21. B(H  21,N  20)                  1.0078         0.436231   
     22. B(O  22,C  19)                  1.2161         1.059947   
     23. B(H  23,N   8)                  1.0249         0.409596   
     24. B(C  24,N  20)                  1.4538         0.442733   
     25. B(H  25,C  24)                  1.0972         0.350731   
     26. B(H  26,C  24)                  1.0935         0.355479   
     27. B(H  27,C  24)                  1.0946         0.354061   
     28. B(C  28,C  19)                  1.5204         0.387012   
     29. B(H  29,C  28)                  1.0967         0.351409   
     30. B(H  30,C  28)                  1.0948         0.353822   
     31. B(H  31,C  28)                  1.0947         0.353909   
     32. B(H  32,C   1)                  1.0973         0.350513   
     33. A(C   1,N   0,H  18)          117.1984         0.339328   
     34. A(H  18,N   0,C  19)          121.3781         0.358943   
     35. A(C   1,N   0,C  19)          121.2773         0.404401   
     36. A(C   2,C   1,C   4)          108.0534         0.363932   
     37. A(N   0,C   1,C   2)          106.7070         0.368130   
     38. A(N   0,C   1,H  32)          109.5795         0.330491   
     39. A(C   4,C   1,H  32)          108.8735         0.326859   
     40. A(N   0,C   1,C   4)          113.1419         0.377083   
     41. A(C   2,C   1,H  32)          110.4583         0.319466   
     42. A(C   1,C   2,N  20)          115.8523         0.393833   
     43. A(O   3,C   2,N  20)          123.6949         0.477041   
     44. A(C   1,C   2,O   3)          120.3947         0.428101   
     45. A(C   1,C   4,C   5)          119.3561         0.375550   
     46. A(C   5,C   4,H   9)          119.9880         0.331104   
     47. A(C   1,C   4,H   9)          118.7811         0.328738   
     48. A(H  10,C   5,H  11)          106.9808         0.286421   
     49. A(C   6,C   5,H  11)          108.8775         0.318943   
     50. A(C   4,C   5,H  11)          109.1441         0.327456   
     51. A(C   6,C   5,H  10)          110.1671         0.320026   
     52. A(C   4,C   5,H  10)          109.1999         0.328579   
     53. A(C   4,C   5,C   6)          112.3216         0.368047   
     54. A(C   5,C   6,C   7)          110.1031         0.361222   
     55. A(H  12,C   6,H  13)          107.9661         0.287468   
     56. A(C   7,C   6,H  13)          109.9695         0.322854   
     57. A(C   5,C   6,H  13)          109.4946         0.320158   
     58. A(C   7,C   6,H  12)          109.7905         0.322725   
     59. A(C   5,C   6,H  12)          109.4828         0.320031   
     60. A(H  14,C   7,H  15)          109.1323         0.289061   
     61. A(N   8,C   7,H  15)          106.3386         0.318273   
     62. A(C   6,C   7,H  15)          112.1830         0.323730   
     63. A(N   8,C   7,H  14)          106.3849         0.318264   
     64. A(C   6,C   7,H  14)          112.0627         0.323720   
     65. A(C   6,C   7,N   8)          110.4203         0.357994   
     66. A(H  16,N   8,H  17)          107.9404         0.298061   
     67. A(C   7,N   8,H  17)          110.6505         0.323340   
     68. A(C   7,N   8,H  16)          112.0935         0.323398   
     69. A(H  17,N   8,H  23)          107.3859         0.298004   
     70. A(H  16,N   8,H  23)          107.9656         0.298056   
     71. A(C   7,N   8,H  23)          110.6302         0.323334   
     72. A(O  22,C  19,C  28)          122.4606         0.436298   
     73. A(N   0,C  19,C  28)          116.0652         0.396921   
     74. A(N   0,C  19,O  22)          121.4702         0.472608   
     75. A(H  21,N  20,C  24)          118.9504         0.339337   
     76. A(C   2,N  20,C  24)          121.6617         0.407835   
     77. A(C   2,N  20,H  21)          118.9924         0.362886   
     78. A(H  26,C  24,H  27)          109.5014         0.289481   
     79. A(H  25,C  24,H  27)          108.3277         0.288872   
     80. A(N  20,C  24,H  27)          109.5896         0.330603   
     81. A(H  25,C  24,H  26)          109.3195         0.289053   
     82. A(N  20,C  24,H  26)          108.8559         0.330821   
     83. A(N  20,C  24,H  25)          111.2276         0.330086   
     84. A(H  30,C  28,H  31)          109.9738         0.289250   
     85. A(H  29,C  28,H  31)          107.6267         0.288940   
     86. A(C  19,C  28,H  31)          108.7192         0.325279   
     87. A(H  29,C  28,H  30)          108.9306         0.288929   
     88. A(C  19,C  28,H  30)          113.3526         0.325266   
     89. A(C  19,C  28,H  29)          108.0664         0.324900   
     90. D(C   4,C   1,N   0,H  18)   -116.3048         0.016989   
     91. D(C   2,C   1,N   0,C  19)    178.0524         0.016989   
     92. D(C   2,C   1,N   0,H  18)      2.3910         0.016989   
     93. D(C   4,C   1,N   0,C  19)     59.3566         0.016989   
     94. D(H  32,C   1,N   0,H  18)    122.0003         0.016989   
     95. D(H  32,C   1,N   0,C  19)    -62.3383         0.016989   
     96. D(O   3,C   2,C   1,N   0)    -39.2468         0.009258   
     97. D(N  20,C   2,C   1,C   4)    -94.6105         0.009258   
     98. D(N  20,C   2,C   1,H  32)     24.3844         0.009258   
     99. D(O   3,C   2,C   1,H  32)   -158.2861         0.009258   
    100. D(O   3,C   2,C   1,C   4)     82.7189         0.009258   
    101. D(N  20,C   2,C   1,N   0)    143.4237         0.009258   
    102. D(C   5,C   4,C   1,C   2)    -80.0069         0.012013   
    103. D(C   5,C   4,C   1,N   0)     37.9063         0.012013   
    104. D(C   5,C   4,C   1,H  32)    159.9969         0.012013   
    105. D(H   9,C   4,C   1,H  32)     -4.4229         0.012013   
    106. D(H   9,C   4,C   1,C   2)    115.5733         0.012013   
    107. D(H   9,C   4,C   1,N   0)   -126.5135         0.012013   
    108. D(H  11,C   5,C   4,H   9)     83.0890         0.013061   
    109. D(H  11,C   5,C   4,C   1)    -81.1401         0.013061   
    110. D(H  10,C   5,C   4,H   9)   -160.2798         0.013061   
    111. D(C   6,C   5,C   4,H   9)    -37.7586         0.013061   
    112. D(C   6,C   5,C   4,C   1)    158.0123         0.013061   
    113. D(H  10,C   5,C   4,C   1)     35.4911         0.013061   
    114. D(H  12,C   6,C   5,H  11)    -64.1807         0.010286   
    115. D(H  12,C   6,C   5,H  10)    178.7931         0.010286   
    116. D(H  12,C   6,C   5,C   4)     56.8203         0.010286   
    117. D(C   7,C   6,C   5,H  11)     56.6120         0.010286   
    118. D(C   7,C   6,C   5,H  10)    -60.4143         0.010286   
    119. D(H  13,C   6,C   5,C   4)    -61.3653         0.010286   
    120. D(C   7,C   6,C   5,C   4)    177.6129         0.010286   
    121. D(H  13,C   6,C   5,H  11)    177.6338         0.010286   
    122. D(H  13,C   6,C   5,H  10)     60.6075         0.010286   
    123. D(H  15,C   7,C   6,H  13)    177.3686         0.011322   
    124. D(H  15,C   7,C   6,H  12)     58.7134         0.011322   
    125. D(H  15,C   7,C   6,C   5)    -61.8944         0.011322   
    126. D(H  14,C   7,C   6,H  13)    -59.4579         0.011322   
    127. D(H  14,C   7,C   6,H  12)   -178.1132         0.011322   
    128. D(H  14,C   7,C   6,C   5)     61.2790         0.011322   
    129. D(N   8,C   7,C   6,H  13)     58.9457         0.011322   
    130. D(N   8,C   7,C   6,H  12)    -59.7095         0.011322   
    131. D(N   8,C   7,C   6,C   5)    179.6827         0.011322   
    132. D(H  23,N   8,C   7,H  15)    178.3727         0.011425   
    133. D(H  23,N   8,C   7,H  14)     62.1285         0.011425   
    134. D(H  23,N   8,C   7,C   6)    -59.6908         0.011425   
    135. D(H  17,N   8,C   7,H  15)    -62.7399         0.011425   
    136. D(H  17,N   8,C   7,H  14)   -178.9841         0.011425   
    137. D(H  17,N   8,C   7,C   6)     59.1966         0.011425   
    138. D(H  16,N   8,C   7,H  15)     57.8074         0.011425   
    139. D(H  16,N   8,C   7,H  14)    -58.4368         0.011425   
    140. D(H  16,N   8,C   7,C   6)    179.7439         0.011425   
    141. D(C  28,C  19,N   0,H  18)     -8.0333         0.031436   
    142. D(C  28,C  19,N   0,C   1)    176.4869         0.031436   
    143. D(O  22,C  19,N   0,H  18)    172.6761         0.031436   
    144. D(O  22,C  19,N   0,C   1)     -2.8037         0.031436   
    145. D(C  24,N  20,C   2,O   3)      1.4641         0.035485   
    146. D(C  24,N  20,C   2,C   1)    178.6954         0.035485   
    147. D(H  21,N  20,C   2,O   3)    174.1677         0.035485   
    148. D(H  21,N  20,C   2,C   1)     -8.6010         0.035485   
    149. D(H  26,C  24,N  20,H  21)     20.5602         0.016716   
    150. D(H  26,C  24,N  20,C   2)   -166.7333         0.016716   
    151. D(H  25,C  24,N  20,H  21)    -99.9504         0.016716   
    152. D(H  25,C  24,N  20,C   2)     72.7561         0.016716   
    153. D(H  27,C  24,N  20,H  21)    140.2941         0.016716   
    154. D(H  27,C  24,N  20,C   2)    -46.9993         0.016716   
    155. D(H  31,C  28,C  19,O  22)    -47.1275         0.011153   
    156. D(H  31,C  28,C  19,N   0)    133.5896         0.011153   
    157. D(H  30,C  28,C  19,O  22)   -169.7535         0.011153   
    158. D(H  30,C  28,C  19,N   0)     10.9636         0.011153   
    159. D(H  29,C  28,C  19,O  22)     69.4137         0.011153   
    160. D(H  29,C  28,C  19,N   0)   -109.8692         0.011153   
    -----------------------------------------------------------------

Number of atoms                         .... 33
Number of degrees of freedom            .... 160

         *************************************************************
         *                GEOMETRY OPTIMIZATION CYCLE   1            *
         *************************************************************
---------------------------------
CARTESIAN COORDINATES (ANGSTROEM)
---------------------------------
  N     -7.852159    0.802775    0.167862
  C     -6.400898    0.825450    0.147530
  C     -5.935746    0.860845    1.623268
  O     -6.536747    1.531458    2.442669
  C     -5.836164    2.039310   -0.550283
  C     -6.513286    3.364752   -0.381412
  C     -5.568126    4.546751   -0.675106
  C     -6.323914    5.868102   -0.545766
  N     -5.398857    7.036182   -0.825612
  H     -5.117464    1.894363   -1.353988
  H     -6.909308    3.440992    0.642513
  H     -7.379118    3.419815   -1.067592
  H     -5.162111    4.447848   -1.693135
  H     -4.724436    4.526036    0.030096
  H     -6.716523    6.020251    0.465419
  H     -7.145765    5.946607   -1.265540
  H     -5.881559    7.936792   -0.749856
  H     -5.005152    6.967415   -1.769387
  H     -8.302005    0.850254    1.070931
  C     -8.575091    0.808948   -0.985068
  N     -4.820535    0.162062    1.903904
  H     -4.430018   -0.439635    1.196019
  O     -8.035561    0.884341   -2.072349
  H     -4.614285    7.041548   -0.166124
  C     -4.256108    0.131284    3.243273
  H     -4.868442   -0.479411    3.918473
  H     -3.247098   -0.287108    3.192047
  H     -4.210013    1.148237    3.645563
  C    -10.083422    0.699640   -0.828394
  H    -10.392445   -0.287747   -1.192006
  H    -10.422095    0.819262    0.205797
  H    -10.558356    1.451538   -1.466750
  H     -6.025965   -0.077216   -0.351255

----------------------------
CARTESIAN COORDINATES (A.U.)
----------------------------
  NO LB      ZA    FRAG     MASS         X           Y           Z
   0 N     7.0000    0    14.007  -14.838430    1.517026    0.317214
   1 C     6.0000    0    12.011  -12.095944    1.559874    0.278791
   2 C     6.0000    0    12.011  -11.216934    1.626762    3.067532
   3 O     8.0000    0    15.999  -12.352662    2.894036    4.615976
   4 C     6.0000    0    12.011  -11.028752    3.853738   -1.039885
   5 C     6.0000    0    12.011  -12.308328    6.358460   -0.720763
   6 C     6.0000    0    12.011  -10.522234    8.592115   -1.275765
   7 C     6.0000    0    12.011  -11.950465   11.089107   -1.031348
   8 N     7.0000    0    14.007  -10.202361   13.296458   -1.560181
   9 H     1.0000    0     1.008   -9.670605    3.579828   -2.558667
  10 H     1.0000    0     1.008  -13.056700    6.502533    1.214174
  11 H     1.0000    0     1.008  -13.944513    6.462513   -2.017457
  12 H     1.0000    0     1.008   -9.754976    8.405214   -3.199561
  13 H     1.0000    0     1.008   -8.927891    8.552968    0.056873
  14 H     1.0000    0     1.008  -12.692389   11.376625    0.879515
  15 H     1.0000    0     1.008  -13.503539   11.237458   -2.391524
  16 H     1.0000    0     1.008  -11.114536   14.998363   -1.417022
  17 H     1.0000    0     1.008   -9.458366   13.166507   -3.343657
  18 H     1.0000    0     1.008  -15.688515    1.606747    2.023766
  19 C     6.0000    0    12.011  -16.204574    1.528691   -1.861509
  20 N     7.0000    0    14.007   -9.109491    0.306253    3.597858
  21 H     1.0000    0     1.008   -8.371521   -0.830790    2.260148
  22 O     8.0000    0    15.999  -15.185010    1.671163   -3.916172
  23 H     1.0000    0     1.008   -8.719735   13.306597   -0.313929
  24 C     6.0000    0    12.011   -8.042878    0.248090    6.128898
  25 H     1.0000    0     1.008   -9.200022   -0.905955    7.404840
  26 H     1.0000    0     1.008   -6.136127   -0.542556    6.032094
  27 H     1.0000    0     1.008   -7.955771    2.169854    6.889117
  28 C     6.0000    0    12.011  -19.054906    1.322127   -1.565437
  29 H     1.0000    0     1.008  -19.638874   -0.543764   -2.252565
  30 H     1.0000    0     1.008  -19.694906    1.548180    0.388900
  31 H     1.0000    0     1.008  -19.952402    2.743010   -2.771755
  32 H     1.0000    0     1.008  -11.387423   -0.145917   -0.663776

--------------------------------
INTERNAL COORDINATES (ANGSTROEM)
--------------------------------
 N      0   0   0     0.000000000000     0.00000000     0.00000000
 C      1   0   0     1.451580708007     0.00000000     0.00000000
 C      2   1   0     1.547715104064   106.70695091     0.00000000
 O      3   2   1     1.217514609479   120.39467543   320.75320221
 C      2   1   3     1.509743509396   113.14194395   241.30420353
 C      5   2   1     1.497934681313   119.35606419    37.90625792
 C      6   5   2     1.541657359574   112.32163812   158.01234391
 C      7   6   5     1.527714527185   110.10306130   177.61292448
 N      8   7   6     1.516065377612   110.42030087   179.68269412
 H      5   2   1     1.087879400428   118.78106429   233.48647253
 H      6   5   2     1.100485210622   109.19992249    35.49109759
 H      6   5   2     1.106137611273   109.14411934   278.85994843
 H      7   6   5     1.100460379099   109.48282470    56.82027051
 H      7   6   5     1.099796033467   109.49461569   298.63472334
 H      8   7   6     1.095347509534   112.06273460    61.27902748
 H      8   7   6     1.095297840810   112.18295658   298.10557457
 H      9   8   7     1.024615782106   112.09346735   179.74388267
 H      9   8   7     1.024911796516   110.65054542    59.19657290
 H      1   2   3     1.010023531808   117.19835447     2.39099025
 C      1   2   3     1.360851505219   121.27729303   178.05243953
 N      3   2   1     1.345641142759   115.85232498   143.42372573
 H     21   3   2     1.007792459310   118.99241528   351.39901818
 O     20   1   2     1.216123695860   121.47016268   357.19633062
 H      9   8   7     1.024942077697   110.63017524   300.30920054
 C     21   3   2     1.453765406807   121.66166402   178.69543044
 H     25  21   3     1.097175943061   111.22755340    72.75613940
 H     25  21   3     1.093515681620   108.85590086   193.26673880
 H     25  21   3     1.094603633684   109.58964774   313.00066650
 C     20   1   2     1.520380642636   116.06521931   176.48694477
 H     29  20   1     1.096650293273   108.06639901   250.13082296
 H     29  20   1     1.094787572107   113.35261272    10.96359168
 H     29  20   1     1.094720370729   108.71923342   133.58956173
 H      2   1   3     1.097345198650   109.57954102   119.60930211

---------------------------
INTERNAL COORDINATES (A.U.)
---------------------------
 N      0   0   0     0.000000000000     0.00000000     0.00000000
 C      1   0   0     2.743089999416     0.00000000     0.00000000
 C      2   1   0     2.924757680015   106.70695091     0.00000000
 O      3   2   1     2.300769175963   120.39467543   320.75320221
 C      2   1   3     2.853001765224   113.14194395   241.30420353
 C      5   2   1     2.830686314183   119.35606419    37.90625792
 C      6   5   2     2.913310201939   112.32163812   158.01234391
 C      7   6   5     2.886962067193   110.10306130   177.61292448
 N      8   7   6     2.864948364807   110.42030087   179.68269412
 H      5   2   1     2.055794133544   118.78106429   233.48647253
 H      6   5   2     2.079615662506   109.19992249    35.49109759
 H      6   5   2     2.090297151736   109.14411934   278.85994843
 H      7   6   5     2.079568737728   109.48282470    56.82027051
 H      7   6   5     2.078313306425   109.49461569   298.63472334
 H      8   7   6     2.069906814493   112.06273460    61.27902748
 H      8   7   6     2.069812954206   112.18295658   298.10557457
 H      9   8   7     1.936243220673   112.09346735   179.74388267
 H      9   8   7     1.936802606840   110.65054542    59.19657290
 H      1   2   3     1.908667863933   117.19835447     2.39099025
 C      1   2   3     2.571636653798   121.27729303   178.05243953
 N      3   2   1     2.542893234351   115.85232498   143.42372573
 H     21   3   2     1.904451747927   118.99241528   351.39901818
 O     20   1   2     2.298140730148   121.47016268   357.19633062
 H      9   8   7     1.936859829979   110.63017524   300.30920054
 C     21   3   2     2.747218481834   121.66166402   178.69543044
 H     25  21   3     2.073362053112   111.22755340    72.75613940
 H     25  21   3     2.066445161409   108.85590086   193.26673880
 H     25  21   3     2.068501092858   109.58964774   313.00066650
 C     20   1   2     2.873103033897   116.06521931   176.48694477
 H     29  20   1     2.072368718970   108.06639901   250.13082296
 H     29  20   1     2.068848686102   113.35261272    10.96359168
 H     29  20   1     2.068721693902   108.71923342   133.58956173
 H      2   1   3     2.073681899823   109.57954102   119.60930211

---------------------
BASIS SET INFORMATION
---------------------
There are 4 groups of distinct atoms

 Group   1 Type N   : 10s5p1d contracted to 6s2p1d pattern {511111/41/1}
 Group   2 Type C   : 10s5p1d contracted to 6s2p1d pattern {511111/41/1}
 Group   3 Type O   : 10s5p1d contracted to 6s2p1d pattern {511111/41/1}
 Group   4 Type H   : 6s1p contracted to 4s1p pattern {3111/1}

Atom   0N    basis set group =>   1
Atom   1C    basis set group =>   2
Atom   2C    basis set group =>   2
Atom   3O    basis set group =>   3
Atom   4C    basis set group =>   2
Atom   5C    basis set group =>   2
Atom   6C    basis set group =>   2
Atom   7C    basis set group =>   2
Atom   8N    basis set group =>   1
Atom   9H    basis set group =>   4
Atom  10H    basis set group =>   4
Atom  11H    basis set group =>   4
Atom  12H    basis set group =>   4
Atom  13H    basis set group =>   4
Atom  14H    basis set group =>   4
Atom  15H    basis set group =>   4
Atom  16H    basis set group =>   4
Atom  17H    basis set group =>   4
Atom  18H    basis set group =>   4
Atom  19C    basis set group =>   2
Atom  20N    basis set group =>   1
Atom  21H    basis set group =>   4
Atom  22O    basis set group =>   3
Atom  23H    basis set group =>   4
Atom  24C    basis set group =>   2
Atom  25H    basis set group =>   4
Atom  26H    basis set group =>   4
Atom  27H    basis set group =>   4
Atom  28C    basis set group =>   2
Atom  29H    basis set group =>   4
Atom  30H    basis set group =>   4
Atom  31H    basis set group =>   4
Atom  32H    basis set group =>   4
---------------------------------
AUXILIARY/J BASIS SET INFORMATION
---------------------------------
There are 4 groups of distinct atoms

 Group   1 Type N   : 12s5p4d2f1g contracted to 6s4p3d1f1g pattern {711111/2111/211/2/1}
 Group   2 Type C   : 12s5p4d2f1g contracted to 6s4p3d1f1g pattern {711111/2111/211/2/1}
 Group   3 Type O   : 12s5p4d2f1g contracted to 6s4p3d1f1g pattern {711111/2111/211/2/1}
 Group   4 Type H   : 5s2p1d contracted to 3s1p1d pattern {311/2/1}

Atom   0N    basis set group =>   1
Atom   1C    basis set group =>   2
Atom   2C    basis set group =>   2
Atom   3O    basis set group =>   3
Atom   4C    basis set group =>   2
Atom   5C    basis set group =>   2
Atom   6C    basis set group =>   2
Atom   7C    basis set group =>   2
Atom   8N    basis set group =>   1
Atom   9H    basis set group =>   4
Atom  10H    basis set group =>   4
Atom  11H    basis set group =>   4
Atom  12H    basis set group =>   4
Atom  13H    basis set group =>   4
Atom  14H    basis set group =>   4
Atom  15H    basis set group =>   4
Atom  16H    basis set group =>   4
Atom  17H    basis set group =>   4
Atom  18H    basis set group =>   4
Atom  19C    basis set group =>   2
Atom  20N    basis set group =>   1
Atom  21H    basis set group =>   4
Atom  22O    basis set group =>   3
Atom  23H    basis set group =>   4
Atom  24C    basis set group =>   2
Atom  25H    basis set group =>   4
Atom  26H    basis set group =>   4
Atom  27H    basis set group =>   4
Atom  28C    basis set group =>   2
Atom  29H    basis set group =>   4
Atom  30H    basis set group =>   4
Atom  31H    basis set group =>   4
Atom  32H    basis set group =>   4


           ************************************************************
           *        Program running with 16 parallel MPI-processes    *
           *              working on a common directory               *
           ************************************************************
------------------------------------------------------------------------------
                           ORCA GTO INTEGRAL CALCULATION
                           -- RI-GTO INTEGRALS CHOSEN --
------------------------------------------------------------------------------
------------------------------------------------------------------------------
                   ___                                                        
                  /   \      - P O W E R E D   B Y -                         
                 /     \                                                     
                 |  |  |   _    _      __       _____    __    __             
                 |  |  |  | |  | |    /  \     |  _  \  |  |  /  |          
                  \  \/   | |  | |   /    \    | | | |  |  | /  /          
                 / \  \   | |__| |  /  /\  \   | |_| |  |  |/  /          
                |  |  |   |  __  | /  /__\  \  |    /   |      \           
                |  |  |   | |  | | |   __   |  |    \   |  |\   \          
                \     /   | |  | | |  |  |  |  | |\  \  |  | \   \       
                 \___/    |_|  |_| |__|  |__|  |_| \__\ |__|  \__/        
                                                                              
                      - O R C A' S   B I G   F R I E N D -                    
                                      &                                       
                       - I N T E G R A L  F E E D E R -                       
                                                                              
 v1 FN, 2020, v2 2021                                                         
------------------------------------------------------------------------------


Reading SHARK input file opt.SHARKINP.tmp ... ok
----------------------
SHARK INTEGRAL PACKAGE
----------------------

Number of atoms                             ...     33
Number of basis functions                   ...    371
Number of shells                            ...    221
Maximum angular momentum                    ...      2
Integral batch strategy                     ... SHARK/LIBINT Hybrid
RI-J (if used) integral strategy            ... SPLIT-RIJ (Revised 2003 algorithm where possible)
Printlevel                                  ...      1
Contraction scheme used                     ... SEGMENTED contraction
Coulomb Range Separation                    ... NOT USED
Exchange Range Separation                   ... NOT USED
Finite Nucleus Model                        ... NOT USED
Auxiliary Coulomb fitting basis             ... AVAILABLE
   # of basis functions in Aux-J            ...    895
   # of shells in Aux-J                     ...    305
   Maximum angular momentum in Aux-J        ...      4
Auxiliary J/K fitting basis                 ... NOT available
Auxiliary Correlation fitting basis         ... NOT available
Auxiliary 'external' fitting basis          ... NOT available
Integral threshold                          ...     2.500000e-11
Primitive cut-off                           ...     2.500000e-12
Primitive pair pre-selection threshold      ...     2.500000e-12

Calculating pre-screening integrals         ... done (  0.0 sec) Dimension = 221
Organizing shell pair data                  ... done (  0.0 sec)
Shell pair information
Total number of shell pairs                 ...     24531
Shell pairs after pre-screening             ...     15760
Total number of primitive shell pairs       ...     64184
Primitive shell pairs kept                  ...     30041
          la=0 lb=0:   7408 shell pairs
          la=1 lb=0:   5391 shell pairs
          la=1 lb=1:    923 shell pairs
          la=2 lb=0:   1443 shell pairs
          la=2 lb=1:    513 shell pairs
          la=2 lb=2:     82 shell pairs

Calculating one electron integrals          ... done (  0.0 sec)
Calculating RI/J V-Matrix + Cholesky decomp.... done (  0.0 sec)
Calculating Nuclear repulsion               ... done (  0.0 sec) ENN=    938.505818269358 Eh

SHARK setup successfully completed in   0.2 seconds

Maximum memory used throughout the entire GTOINT-calculation: 22.7 MB


           ************************************************************
           *        Program running with 16 parallel MPI-processes    *
           *              working on a common directory               *
           ************************************************************
-------------------------------------------------------------------------------
                                 ORCA SCF
-------------------------------------------------------------------------------

------------
SCF SETTINGS
------------
Hamiltonian:
 Density Functional     Method          .... DFT(GTOs)
 Exchange Functional    Exchange        .... B88
   X-Alpha parameter    XAlpha          ....  0.666667
   Becke's b parameter  XBeta           ....  0.004200
 Correlation Functional Correlation     .... LYP
 LDA part of GGA corr.  LDAOpt          .... VWN-5
 Gradients option       PostSCFGGA      .... off
 Hybrid DFT is turned on
   Fraction HF Exchange ScalHFX         ....  0.200000
   Scaling of DF-GGA-X  ScalDFX         ....  0.720000
   Scaling of DF-GGA-C  ScalDFC         ....  0.810000
   Scaling of DF-LDA-C  ScalLDAC        ....  1.000000
   Perturbative correction              ....  0.000000
   Density functional embedding theory  .... OFF
   NL short-range parameter             ....  4.800000
 RI-approximation to the Coulomb term is turned on
   Number of AuxJ basis functions       .... 895
   RIJ-COSX (HFX calculated with COS-X)).... on


General Settings:
 Integral files         IntName         .... opt
 Hartree-Fock type      HFTyp           .... UHF
 Total Charge           Charge          ....    1
 Multiplicity           Mult            ....    2
 Number of Electrons    NEL             ....  109
 Basis Dimension        Dim             ....  371
 Nuclear Repulsion      ENuc            ....    938.5058182694 Eh

Convergence Acceleration:
 DIIS                   CNVDIIS         .... on
   Start iteration      DIISMaxIt       ....    12
   Startup error        DIISStart       ....  0.200000
   # of expansion vecs  DIISMaxEq       ....     5
   Bias factor          DIISBfac        ....   1.050
   Max. coefficient     DIISMaxC        ....  10.000
 Trust-Rad. Augm. Hess. CNVTRAH         .... auto
   Auto Start mean grad. ratio tolernc. ....  1.125000
   Auto Start start iteration           ....    20
   Auto Start num. interpolation iter.  ....    10
   Max. Number of Micro iterations      ....    16
   Max. Number of Macro iterations      .... Maxiter - #DIIS iter
   Number of Davidson start vectors     ....     2
   Converg. threshold I  (grad. norm)   ....   1.000e-05
   Converg. threshold II (energy diff.) ....   1.000e-08
   Grad. Scal. Fac. for Micro threshold ....   0.100
   Minimum threshold for Micro iter.    ....   0.010
   NR start threshold (gradient norm)   ....   0.001
   Initial trust radius                 ....   0.400
   Minimum AH scaling param. (alpha)    ....   1.000
   Maximum AH scaling param. (alpha)    .... 1000.000
   Orbital update algorithm             .... Taylor
   White noise on init. David. guess    .... on
   Maximum white noise                  ....   0.010
   Quad. conv. algorithm                .... NR
 SOSCF                  CNVSOSCF        .... off
 Level Shifting         CNVShift        .... on
   Level shift para.    LevelShift      ....    0.2500
   Turn off err/grad.   ShiftErr        ....    0.0010
 Zerner damping         CNVZerner       .... off
 Static damping         CNVDamp         .... on
   Fraction old density DampFac         ....    0.7000
   Max. Damping (<1)    DampMax         ....    0.9800
   Min. Damping (>=0)   DampMin         ....    0.0000
   Turn off err/grad.   DampErr         ....    0.1000
 Fernandez-Rico         CNVRico         .... off

SCF Procedure:
 Maximum # iterations   MaxIter         ....   125
 SCF integral mode      SCFMode         .... Direct
   Integral package                     .... SHARK and LIBINT hybrid scheme
 Reset frequency        DirectResetFreq ....    20
 Integral Threshold     Thresh          ....  2.500e-11 Eh
 Primitive CutOff       TCut            ....  2.500e-12 Eh

Convergence Tolerance:
 Convergence Check Mode ConvCheckMode   .... Total+1el-Energy
 Convergence forced     ConvForced      .... 0
 Energy Change          TolE            ....  1.000e-08 Eh
 1-El. energy change                    ....  1.000e-05 Eh
 DIIS Error             TolErr          ....  5.000e-07


Diagonalization of the overlap matrix:
Smallest eigenvalue                        ... 7.850e-04
Time for diagonalization                   ...    0.015 sec
Threshold for overlap eigenvalues          ... 1.000e-08
Number of eigenvalues below threshold      ... 0
Time for construction of square roots      ...    0.011 sec
Total time needed                          ...    0.026 sec

Time for model grid setup =    0.116 sec

------------------------------
INITIAL GUESS: MODEL POTENTIAL
------------------------------
Loading Hartree-Fock densities                     ... done
Calculating cut-offs                               ... done
Initializing the effective Hamiltonian             ... done
Setting up the integral package (SHARK)            ... done
Starting the Coulomb interaction                   ... done (   0.1 sec)
Reading the grid                                   ... done
Mapping shells                                     ... done
Starting the XC term evaluation                    ... done (   0.0 sec)
  promolecular density results
     # of electrons  =    109.991541309
     EX              =    -88.084406359
     EC              =     -3.688966926
     EX+EC           =    -91.773373285
Transforming the Hamiltonian                       ... done (   0.0 sec)
Diagonalizing the Hamiltonian                      ... done (   0.0 sec)
Back transforming the eigenvectors                 ... done (   0.0 sec)
Now organizing SCF variables                       ... done
                      ------------------
                      INITIAL GUESS DONE (   0.3 sec)
                      ------------------
-------------------
DFT GRID GENERATION
-------------------

General Integration Accuracy     IntAcc      ... 4.388
Radial Grid Type                 RadialGrid  ... OptM3 with GC (2021)
Angular Grid (max. ang.)         AngularGrid ... 4 (Lebedev-302)
Angular grid pruning method      GridPruning ... 4 (adaptive)
Weight generation scheme         WeightScheme... Becke
Basis function cutoff            BFCut       ... 1.0000e-11
Integration weight cutoff        WCut        ... 1.0000e-14
Angular grids for H and He will be reduced by one unit
Partially contracted basis set               ... off
Rotationally invariant grid construction     ... off

Total number of grid points                  ...   144797
Total number of batches                      ...     2279
Average number of points per batch           ...       63
Average number of grid points per atom       ...     4388
Time for grid setup =    0.616 sec

--------------------
COSX GRID GENERATION
--------------------

GRIDX 1
-------
General Integration Accuracy     IntAcc      ... 3.816
Radial Grid Type                 RadialGrid  ... OptM3 with GC (2021)
Angular Grid (max. ang.)         AngularGrid ... 1 (Lebedev-50)
Angular grid pruning method      GridPruning ... 4 (adaptive)
Weight generation scheme         WeightScheme... Becke
Basis function cutoff            BFCut       ... 1.0000e-11
Integration weight cutoff        WCut        ... 1.0000e-14
Angular grids for H and He will be reduced by one unit
Partially contracted basis set               ... on
Rotationally invariant grid construction     ... off

Total number of grid points                  ...    18490
Total number of batches                      ...      309
Average number of points per batch           ...       59
Average number of grid points per atom       ...      560
UseSFitting                                  ... on

GRIDX 2
-------
General Integration Accuracy     IntAcc      ... 4.020
Radial Grid Type                 RadialGrid  ... OptM3 with GC (2021)
Angular Grid (max. ang.)         AngularGrid ... 2 (Lebedev-110)
Angular grid pruning method      GridPruning ... 4 (adaptive)
Weight generation scheme         WeightScheme... Becke
Basis function cutoff            BFCut       ... 1.0000e-11
Integration weight cutoff        WCut        ... 1.0000e-14
Angular grids for H and He will be reduced by one unit
Partially contracted basis set               ... on
Rotationally invariant grid construction     ... off

Total number of grid points                  ...    39009
Total number of batches                      ...      626
Average number of points per batch           ...       62
Average number of grid points per atom       ...     1182
UseSFitting                                  ... on

GRIDX 3
-------
General Integration Accuracy     IntAcc      ... 4.338
Radial Grid Type                 RadialGrid  ... OptM3 with GC (2021)
Angular Grid (max. ang.)         AngularGrid ... 3 (Lebedev-194)
Angular grid pruning method      GridPruning ... 4 (adaptive)
Weight generation scheme         WeightScheme... Becke
Basis function cutoff            BFCut       ... 1.0000e-11
Integration weight cutoff        WCut        ... 1.0000e-14
Angular grids for H and He will be reduced by one unit
Partially contracted basis set               ... on
Rotationally invariant grid construction     ... off

Total number of grid points                  ...    85105
Total number of batches                      ...     1345
Average number of points per batch           ...       63
Average number of grid points per atom       ...     2579
UseSFitting                                  ... on

Time for X-Grid setup             =    0.685 sec

--------------
SCF ITERATIONS
--------------
ITER       Energy         Delta-E        Max-DP      RMS-DP      [F,P]     Damp
               ***  Starting incremental Fock matrix formation  ***
  0   -668.1292504594   0.000000000000 0.06453269  0.00086996  0.1313966 0.7000
  1   -668.3451119190  -0.215861459671 0.03756645  0.00059588  0.0514594 0.7000
                               ***Turning on DIIS***
  2   -668.4244163309  -0.079304411860 0.04508028  0.00094218  0.0181200 0.0000
  3   -668.5562113581  -0.131795027166 0.02603835  0.00043079  0.0247176 0.0000
  4   -668.5834894016  -0.027278043494 0.00871921  0.00014920  0.0077218 0.0000
  5   -668.5851745454  -0.001685143794 0.00368674  0.00005749  0.0051911 0.0000
  6   -668.5855506871  -0.000376141744 0.00220213  0.00003726  0.0006391 0.0000
               *** Restarting incremental Fock matrix formation ***
                                   *** Resetting DIIS ***
  7   -668.5856132348  -0.000062547713 0.00173743  0.00001882  0.0007495 0.0000
  8   -668.5856032043   0.000010030523 0.00080563  0.00000706  0.0010990 0.0000
  9   -668.5856240771  -0.000020872833 0.00032606  0.00000399  0.0002713 0.0000
 10   -668.5856257712  -0.000001694111 0.00018711  0.00000165  0.0000840 0.0000
 11   -668.5856258201  -0.000000048876 0.00010605  0.00000096  0.0001041 0.0000
 12   -668.5856259439  -0.000000123809 0.00003554  0.00000032  0.0000244 0.0000
 13   -668.5856259527  -0.000000008796 0.00001484  0.00000015  0.0000127 0.0000
 14   -668.5856259440   0.000000008722 0.00000665  0.00000007  0.0000043 0.0000
 15   -668.5856259416   0.000000002391 0.00000376  0.00000004  0.0000039 0.0000
                            ***DIIS convergence achieved***

               *****************************************************
               *                     SUCCESS                       *
               *           SCF CONVERGED AFTER  16 CYCLES          *
               *****************************************************

Old exchange energy                            =    -17.889629188 Eh
New exchange energy                            =    -17.889631498 Eh
Exchange energy change after final integration =     -0.000002310 Eh
Total energy after final integration           =   -668.585628255 Eh
Final COS-X integration done in                =     2.314 sec

----------------
TOTAL SCF ENERGY
----------------

Total Energy       :         -668.58562826 Eh          -18193.13987 eV

Components:
Nuclear Repulsion  :          938.50581827 Eh           25538.04164 eV
Electronic Energy  :        -1607.09144652 Eh          -43731.18151 eV
One Electron Energy:        -2757.61157033 Eh          -75038.42571 eV
Two Electron Energy:         1150.52012380 Eh           31307.24420 eV
Max COSX asymmetry :            0.00000134 Eh               0.00004 eV

Virial components:
Potential Energy   :        -1332.80558961 Eh          -36267.48390 eV
Kinetic Energy     :          664.21996136 Eh           18074.34403 eV
Virial Ratio       :            2.00657262


DFT components:
N(Alpha)           :       54.999947938635 electrons
N(Beta)            :       53.999936769322 electrons
N(Total)           :      108.999884707956 electrons
E(X)               :      -71.048184697202 Eh       
E(C)               :       -4.315867579203 Eh       
E(XC)              :      -75.364052276405 Eh       
DFET-embed. en.    :        0.000000000000 Eh       

---------------
SCF CONVERGENCE
---------------

  Last Energy change         ...   -3.5279e-09  Tolerance :   1.0000e-08
  Last MAX-Density change    ...    0.0000e+00  Tolerance :   1.0000e-07
  Last RMS-Density change    ...    0.0000e+00  Tolerance :   5.0000e-09
  Last DIIS Error            ...    7.0193e-07  Tolerance :   5.0000e-07

             **** THE GBW FILE WAS UPDATED (opt.gbw) ****
             **** DENSITY opt.scfp WAS UPDATED ****
             **** ENERGY FILE WAS UPDATED (opt.en.tmp) ****
----------------------
UHF SPIN CONTAMINATION
----------------------

Warning: in a DFT calculation there is little theoretical justification to 
         calculate <S**2> as in Hartree-Fock theory. We will do it anyways
         but you should keep in mind that the values have only limited relevance

Expectation value of <S**2>     :     0.754355
Ideal value S*(S+1) for S=0.5   :     0.750000
Deviation                       :     0.004355

             **** THE GBW FILE WAS UPDATED (opt.gbw) ****
             **** DENSITY opt.scfp WAS UPDATED ****
----------------
ORBITAL ENERGIES
----------------
                 SPIN UP ORBITALS
  NO   OCC          E(Eh)            E(eV) 
   0   1.0000     -19.207058      -522.6506 
   1   1.0000     -19.188054      -522.1335 
   2   1.0000     -14.646580      -398.5537 
   3   1.0000     -14.455377      -393.3508 
   4   1.0000     -14.439718      -392.9247 
   5   1.0000     -10.422348      -283.6065 
   6   1.0000     -10.387639      -282.6620 
   7   1.0000     -10.371738      -282.2293 
   8   1.0000     -10.350609      -281.6544 
   9   1.0000     -10.334150      -281.2065 
  10   1.0000     -10.314505      -280.6720 
  11   1.0000     -10.304900      -280.4106 
  12   1.0000     -10.301177      -280.3093 
  13   1.0000     -10.264797      -279.3193 
  14   1.0000      -1.195992       -32.5446 
  15   1.0000      -1.140112       -31.0240 
  16   1.0000      -1.120210       -30.4825 
  17   1.0000      -1.019121       -27.7317 
  18   1.0000      -1.010759       -27.5042 
  19   1.0000      -0.958529       -26.0829 
  20   1.0000      -0.892548       -24.2875 
  21   1.0000      -0.849759       -23.1231 
  22   1.0000      -0.808441       -21.9988 
  23   1.0000      -0.802861       -21.8470 
  24   1.0000      -0.780977       -21.2515 
  25   1.0000      -0.778766       -21.1913 
  26   1.0000      -0.747381       -20.3373 
  27   1.0000      -0.706355       -19.2209 
  28   1.0000      -0.682228       -18.5644 
  29   1.0000      -0.675251       -18.3745 
  30   1.0000      -0.652661       -17.7598 
  31   1.0000      -0.632297       -17.2057 
  32   1.0000      -0.621409       -16.9094 
  33   1.0000      -0.587976       -15.9996 
  34   1.0000      -0.574620       -15.6362 
  35   1.0000      -0.559102       -15.2139 
  36   1.0000      -0.556646       -15.1471 
  37   1.0000      -0.542729       -14.7684 
  38   1.0000      -0.541202       -14.7269 
  39   1.0000      -0.532475       -14.4894 
  40   1.0000      -0.518830       -14.1181 
  41   1.0000      -0.506861       -13.7924 
  42   1.0000      -0.491355       -13.3704 
  43   1.0000      -0.487179       -13.2568 
  44   1.0000      -0.484457       -13.1827 
  45   1.0000      -0.481491       -13.1020 
  46   1.0000      -0.474127       -12.9016 
  47   1.0000      -0.467084       -12.7100 
  48   1.0000      -0.461331       -12.5535 
  49   1.0000      -0.434137       -11.8135 
  50   1.0000      -0.369289       -10.0489 
  51   1.0000      -0.354977        -9.6594 
  52   1.0000      -0.343355        -9.3432 
  53   1.0000      -0.337575        -9.1859 
  54   1.0000      -0.293058        -7.9745 
  55   0.0000      -0.184215        -5.0127 
  56   0.0000      -0.115534        -3.1438 
  57   0.0000      -0.109549        -2.9810 
  58   0.0000      -0.082829        -2.2539 
  59   0.0000      -0.074473        -2.0265 
  60   0.0000      -0.068290        -1.8583 
  61   0.0000      -0.063446        -1.7264 
  62   0.0000      -0.054593        -1.4856 
  63   0.0000      -0.050386        -1.3711 
  64   0.0000      -0.045886        -1.2486 
  65   0.0000      -0.039987        -1.0881 
  66   0.0000      -0.025294        -0.6883 
  67   0.0000      -0.016270        -0.4427 
  68   0.0000      -0.008843        -0.2406 
  69   0.0000      -0.001596        -0.0434 
  70   0.0000       0.015738         0.4283 
  71   0.0000       0.024042         0.6542 
  72   0.0000       0.034666         0.9433 
  73   0.0000       0.037508         1.0206 
  74   0.0000       0.047396         1.2897 
  75   0.0000       0.055723         1.5163 
  76   0.0000       0.064511         1.7554 
  77   0.0000       0.074418         2.0250 
  78   0.0000       0.081296         2.2122 
  79   0.0000       0.084889         2.3099 
  80   0.0000       0.099250         2.7007 
  81   0.0000       0.101426         2.7599 
  82   0.0000       0.102758         2.7962 
  83   0.0000       0.110705         3.0124 
  84   0.0000       0.112262         3.0548 
  85   0.0000       0.116225         3.1626 
  86   0.0000       0.122323         3.3286 
  87   0.0000       0.129580         3.5261 
  88   0.0000       0.134218         3.6523 
  89   0.0000       0.137954         3.7539 
  90   0.0000       0.144862         3.9419 
  91   0.0000       0.156060         4.2466 
  92   0.0000       0.162263         4.4154 
  93   0.0000       0.169055         4.6002 
  94   0.0000       0.174274         4.7422 
  95   0.0000       0.189649         5.1606 
  96   0.0000       0.193255         5.2587 
  97   0.0000       0.200510         5.4561 
  98   0.0000       0.208171         5.6646 
  99   0.0000       0.212743         5.7890 
 100   0.0000       0.217562         5.9202 
 101   0.0000       0.222369         6.0510 
 102   0.0000       0.225051         6.1240 
 103   0.0000       0.229347         6.2408 
 104   0.0000       0.233863         6.3637 
 105   0.0000       0.246871         6.7177 
 106   0.0000       0.268333         7.3017 
 107   0.0000       0.271809         7.3963 
 108   0.0000       0.276522         7.5245 
 109   0.0000       0.283913         7.7257 
 110   0.0000       0.296728         8.0744 
 111   0.0000       0.305536         8.3140 
 112   0.0000       0.308585         8.3970 
 113   0.0000       0.323569         8.8048 
 114   0.0000       0.330135         8.9834 
 115   0.0000       0.339133         9.2283 
 116   0.0000       0.342892         9.3306 
 117   0.0000       0.361189         9.8284 
 118   0.0000       0.370762        10.0889 
 119   0.0000       0.378968        10.3122 
 120   0.0000       0.387549        10.5458 
 121   0.0000       0.400363        10.8944 
 122   0.0000       0.410625        11.1737 
 123   0.0000       0.417623        11.3641 
 124   0.0000       0.430996        11.7280 
 125   0.0000       0.432660        11.7733 
 126   0.0000       0.453495        12.3402 
 127   0.0000       0.471306        12.8249 
 128   0.0000       0.479189        13.0394 
 129   0.0000       0.486827        13.2472 
 130   0.0000       0.509590        13.8666 
 131   0.0000       0.514113        13.9897 
 132   0.0000       0.536323        14.5941 
 133   0.0000       0.538250        14.6465 
 134   0.0000       0.553033        15.0488 
 135   0.0000       0.581533        15.8243 
 136   0.0000       0.588954        16.0263 
 137   0.0000       0.601945        16.3798 
 138   0.0000       0.621540        16.9130 
 139   0.0000       0.633906        17.2495 
 140   0.0000       0.640898        17.4397 
 141   0.0000       0.678530        18.4637 
 142   0.0000       0.680020        18.5043 
 143   0.0000       0.698082        18.9958 
 144   0.0000       0.715270        19.4635 
 145   0.0000       0.721435        19.6313 
 146   0.0000       0.731561        19.9068 
 147   0.0000       0.736897        20.0520 
 148   0.0000       0.746285        20.3074 
 149   0.0000       0.749116        20.3845 
 150   0.0000       0.761287        20.7157 
 151   0.0000       0.765464        20.8293 
 152   0.0000       0.775621        21.1057 
 153   0.0000       0.779118        21.2009 
 154   0.0000       0.788361        21.4524 
 155   0.0000       0.790446        21.5091 
 156   0.0000       0.801747        21.8167 
 157   0.0000       0.809152        22.0181 
 158   0.0000       0.819703        22.3053 
 159   0.0000       0.821160        22.3449 
 160   0.0000       0.827339        22.5130 
 161   0.0000       0.847284        23.0558 
 162   0.0000       0.850275        23.1372 
 163   0.0000       0.862584        23.4721 
 164   0.0000       0.864145        23.5146 
 165   0.0000       0.883295        24.0357 
 166   0.0000       0.894953        24.3529 
 167   0.0000       0.903689        24.5906 
 168   0.0000       0.907029        24.6815 
 169   0.0000       0.923723        25.1358 
 170   0.0000       0.934660        25.4334 
 171   0.0000       0.935428        25.4543 
 172   0.0000       0.951591        25.8941 
 173   0.0000       0.961819        26.1724 
 174   0.0000       0.975703        26.5502 
 175   0.0000       0.977473        26.5984 
 176   0.0000       1.004076        27.3223 
 177   0.0000       1.021192        27.7880 
 178   0.0000       1.032595        28.0983 
 179   0.0000       1.043384        28.3919 
 180   0.0000       1.048469        28.5303 
 181   0.0000       1.066863        29.0308 
 182   0.0000       1.079323        29.3699 
 183   0.0000       1.086381        29.5619 
 184   0.0000       1.108650        30.1679 
 185   0.0000       1.116687        30.3866 
 186   0.0000       1.127179        30.6721 
 187   0.0000       1.150699        31.3121 
 188   0.0000       1.191759        32.4294 
 189   0.0000       1.209373        32.9087 
 190   0.0000       1.226258        33.3682 
 191   0.0000       1.239030        33.7157 
 192   0.0000       1.250782        34.0355 
 193   0.0000       1.261099        34.3162 
 194   0.0000       1.275542        34.7092 
 195   0.0000       1.279578        34.8191 
 196   0.0000       1.316314        35.8187 
 197   0.0000       1.330743        36.2114 
 198   0.0000       1.333582        36.2886 
 199   0.0000       1.335371        36.3373 
 200   0.0000       1.342605        36.5341 
 201   0.0000       1.378311        37.5057 
 202   0.0000       1.385400        37.6986 
 203   0.0000       1.402826        38.1728 
 204   0.0000       1.409756        38.3614 
 205   0.0000       1.415643        38.5216 
 206   0.0000       1.419413        38.6242 
 207   0.0000       1.424713        38.7684 
 208   0.0000       1.438744        39.1502 
 209   0.0000       1.447379        39.3852 
 210   0.0000       1.456332        39.6288 
 211   0.0000       1.469137        39.9773 
 212   0.0000       1.473614        40.0991 
 213   0.0000       1.474134        40.1132 
 214   0.0000       1.488140        40.4944 
 215   0.0000       1.494537        40.6684 
 216   0.0000       1.507558        41.0227 
 217   0.0000       1.517103        41.2825 
 218   0.0000       1.527484        41.5649 
 219   0.0000       1.534471        41.7551 
 220   0.0000       1.549295        42.1584 
 221   0.0000       1.561766        42.4978 
 222   0.0000       1.572441        42.7883 
 223   0.0000       1.585350        43.1396 
 224   0.0000       1.593701        43.3668 
 225   0.0000       1.616712        43.9930 
 226   0.0000       1.624435        44.2031 
 227   0.0000       1.628892        44.3244 
 228   0.0000       1.641700        44.6729 
 229   0.0000       1.644875        44.7593 
 230   0.0000       1.664432        45.2915 
 231   0.0000       1.668718        45.4081 
 232   0.0000       1.686750        45.8988 
 233   0.0000       1.692207        46.0473 
 234   0.0000       1.710966        46.5578 
 235   0.0000       1.733627        47.1744 
 236   0.0000       1.743930        47.4548 
 237   0.0000       1.773599        48.2621 
 238   0.0000       1.774526        48.2873 
 239   0.0000       1.787058        48.6283 
 240   0.0000       1.796910        48.8964 
 241   0.0000       1.810804        49.2745 
 242   0.0000       1.823443        49.6184 
 243   0.0000       1.836055        49.9616 
 244   0.0000       1.853842        50.4456 
 245   0.0000       1.865288        50.7571 
 246   0.0000       1.885457        51.3059 
 247   0.0000       1.931590        52.5612 
 248   0.0000       1.939814        52.7850 
 249   0.0000       1.971933        53.6590 
 250   0.0000       1.980350        53.8881 
 251   0.0000       1.992079        54.2072 
 252   0.0000       2.010280        54.7025 
 253   0.0000       2.017036        54.8863 
 254   0.0000       2.048267        55.7362 
 255   0.0000       2.059840        56.0511 
 256   0.0000       2.085664        56.7538 
 257   0.0000       2.090192        56.8770 
 258   0.0000       2.111428        57.4549 
 259   0.0000       2.119184        57.6659 
 260   0.0000       2.128607        57.9223 
 261   0.0000       2.141257        58.2666 
 262   0.0000       2.174790        59.1790 
 263   0.0000       2.180493        59.3342 
 264   0.0000       2.197243        59.7900 
 265   0.0000       2.208222        60.0888 
 266   0.0000       2.218443        60.3669 
 267   0.0000       2.233990        60.7900 
 268   0.0000       2.266653        61.6788 
 269   0.0000       2.273829        61.8740 
 270   0.0000       2.287561        62.2477 
 271   0.0000       2.288290        62.2675 
 272   0.0000       2.300388        62.5967 
 273   0.0000       2.321529        63.1720 
 274   0.0000       2.326103        63.2965 
 275   0.0000       2.347711        63.8845 
 276   0.0000       2.350910        63.9715 
 277   0.0000       2.355768        64.1037 
 278   0.0000       2.379918        64.7609 
 279   0.0000       2.399011        65.2804 
 280   0.0000       2.402810        65.3838 
 281   0.0000       2.408039        65.5261 
 282   0.0000       2.415468        65.7282 
 283   0.0000       2.423578        65.9489 
 284   0.0000       2.426918        66.0398 
 285   0.0000       2.474169        67.3256 
 286   0.0000       2.537774        69.0563 
 287   0.0000       2.559823        69.6563 
 288   0.0000       2.575185        70.0744 
 289   0.0000       2.589866        70.4738 
 290   0.0000       2.605853        70.9089 
 291   0.0000       2.616995        71.2121 
 292   0.0000       2.645100        71.9768 
 293   0.0000       2.661096        72.4121 
 294   0.0000       2.688168        73.1488 
 295   0.0000       2.712578        73.8130 
 296   0.0000       2.736818        74.4726 
 297   0.0000       2.900458        78.9255 
 298   0.0000       2.949779        80.2676 
 299   0.0000       3.025690        82.3332 
 300   0.0000       3.036895        82.6381 
 301   0.0000       3.302896        89.8764 
 302   0.0000       3.354687        91.2857 
 303   0.0000       3.362428        91.4963 
 304   0.0000       3.373791        91.8055 
 305   0.0000       4.635513       126.1387 
 306   0.0000       4.687980       127.5664 
 307   0.0000       4.831979       131.4848 
 308   0.0000       4.864604       132.3726 
 309   0.0000       4.885595       132.9438 
 310   0.0000       4.911891       133.6594 
 311   0.0000       4.914959       133.7428 
 312   0.0000       4.930694       134.1710 
 313   0.0000       4.938729       134.3897 
 314   0.0000       4.957508       134.9006 
 315   0.0000       5.008974       136.3011 
 316   0.0000       5.041445       137.1847 
 317   0.0000       5.045040       137.2825 
 318   0.0000       5.063537       137.7858 
 319   0.0000       5.102506       138.8462 
 320   0.0000       5.129377       139.5774 
 321   0.0000       5.138529       139.8265 
 322   0.0000       5.172981       140.7640 
 323   0.0000       5.186060       141.1199 
 324   0.0000       5.204473       141.6209 
 325   0.0000       5.276950       143.5931 
 326   0.0000       5.284389       143.7955 
 327   0.0000       5.328133       144.9859 
 328   0.0000       5.487812       149.3309 
 329   0.0000       5.536422       150.6537 
 330   0.0000       5.612798       152.7320 
 331   0.0000       5.654672       153.8715 
 332   0.0000       5.726895       155.8367 
 333   0.0000       7.010079       190.7540 
 334   0.0000       7.240368       197.0204 
 335   0.0000       7.249901       197.2798 
 336   0.0000       9.009962       245.1735 
 337   0.0000       9.038546       245.9513 
 338   0.0000      29.479876       802.1882 
 339   0.0000      29.551415       804.1349 
 340   0.0000      29.603732       805.5585 
 341   0.0000      29.757378       809.7394 
 342   0.0000      29.838021       811.9338 
 343   0.0000      29.924236       814.2799 
 344   0.0000      29.998390       816.2977 
 345   0.0000      30.052622       817.7734 
 346   0.0000      30.124450       819.7280 
 347   0.0000      36.237590       986.0750 
 348   0.0000      36.274297       987.0738 
 349   0.0000      36.442342       991.6465 
 350   0.0000      36.487266       992.8690 
 351   0.0000      36.526709       993.9423 
 352   0.0000      36.530430       994.0435 
 353   0.0000      36.534998       994.1678 
 354   0.0000      36.553558       994.6729 
 355   0.0000      36.573838       995.2247 
 356   0.0000      36.585954       995.5544 
 357   0.0000      36.616323       996.3808 
 358   0.0000      36.628809       996.7206 
 359   0.0000      36.660739       997.5894 
 360   0.0000      36.685782       998.2709 
 361   0.0000      36.715650       999.0836 
 362   0.0000      36.744069       999.8569 
 363   0.0000      36.804515      1001.5018 
 364   0.0000      36.823185      1002.0098 
 365   0.0000      36.843020      1002.5495 
 366   0.0000      40.939714      1114.0262 
 367   0.0000      41.179034      1120.5385 
 368   0.0000      41.198272      1121.0620 
 369   0.0000      53.548995      1457.1422 
 370   0.0000      53.572071      1457.7702 

                 SPIN DOWN ORBITALS
  NO   OCC          E(Eh)            E(eV) 
   0   1.0000     -19.206608      -522.6384 
   1   1.0000     -19.187530      -522.1192 
   2   1.0000     -14.646584      -398.5538 
   3   1.0000     -14.455053      -393.3420 
   4   1.0000     -14.439029      -392.9060 
   5   1.0000     -10.422327      -283.6059 
   6   1.0000     -10.386751      -282.6379 
   7   1.0000     -10.371749      -282.2296 
   8   1.0000     -10.350297      -281.6459 
   9   1.0000     -10.334908      -281.2272 
  10   1.0000     -10.315358      -280.6952 
  11   1.0000     -10.301175      -280.3092 
  12   1.0000     -10.291177      -280.0372 
  13   1.0000     -10.264707      -279.3169 
  14   1.0000      -1.195978       -32.5442 
  15   1.0000      -1.139087       -30.9961 
  16   1.0000      -1.119328       -30.4585 
  17   1.0000      -1.018286       -27.7090 
  18   1.0000      -1.008736       -27.4491 
  19   1.0000      -0.957085       -26.0436 
  20   1.0000      -0.881886       -23.9973 
  21   1.0000      -0.848473       -23.0881 
  22   1.0000      -0.807459       -21.9721 
  23   1.0000      -0.798821       -21.7370 
  24   1.0000      -0.780961       -21.2510 
  25   1.0000      -0.776635       -21.1333 
  26   1.0000      -0.744894       -20.2696 
  27   1.0000      -0.697266       -18.9736 
  28   1.0000      -0.681605       -18.5474 
  29   1.0000      -0.674690       -18.3592 
  30   1.0000      -0.645278       -17.5589 
  31   1.0000      -0.630701       -17.1622 
  32   1.0000      -0.618211       -16.8224 
  33   1.0000      -0.585285       -15.9264 
  34   1.0000      -0.572318       -15.5736 
  35   1.0000      -0.556658       -15.1474 
  36   1.0000      -0.555158       -15.1066 
  37   1.0000      -0.541302       -14.7296 
  38   1.0000      -0.539350       -14.6765 
  39   1.0000      -0.530660       -14.4400 
  40   1.0000      -0.517545       -14.0831 
  41   1.0000      -0.502715       -13.6796 
  42   1.0000      -0.488376       -13.2894 
  43   1.0000      -0.484971       -13.1967 
  44   1.0000      -0.482749       -13.1363 
  45   1.0000      -0.480135       -13.0651 
  46   1.0000      -0.472504       -12.8575 
  47   1.0000      -0.463531       -12.6133 
  48   1.0000      -0.459801       -12.5118 
  49   1.0000      -0.432674       -11.7737 
  50   1.0000      -0.360298        -9.8042 
  51   1.0000      -0.353073        -9.6076 
  52   1.0000      -0.341094        -9.2816 
  53   1.0000      -0.333396        -9.0722 
  54   0.0000      -0.184285        -5.0147 
  55   0.0000      -0.159728        -4.3464 
  56   0.0000      -0.115373        -3.1395 
  57   0.0000      -0.109171        -2.9707 
  58   0.0000      -0.082754        -2.2518 
  59   0.0000      -0.069907        -1.9023 
  60   0.0000      -0.067605        -1.8396 
  61   0.0000      -0.063289        -1.7222 
  62   0.0000      -0.054184        -1.4744 
  63   0.0000      -0.047634        -1.2962 
  64   0.0000      -0.045549        -1.2395 
  65   0.0000      -0.038685        -1.0527 
  66   0.0000      -0.024281        -0.6607 
  67   0.0000      -0.015463        -0.4208 
  68   0.0000      -0.007782        -0.2117 
  69   0.0000      -0.000603        -0.0164 
  70   0.0000       0.015881         0.4321 
  71   0.0000       0.024769         0.6740 
  72   0.0000       0.035637         0.9697 
  73   0.0000       0.038227         1.0402 
  74   0.0000       0.048415         1.3174 
  75   0.0000       0.056469         1.5366 
  76   0.0000       0.066154         1.8002 
  77   0.0000       0.075654         2.0587 
  78   0.0000       0.082143         2.2352 
  79   0.0000       0.086980         2.3669 
  80   0.0000       0.100723         2.7408 
  81   0.0000       0.102201         2.7810 
  82   0.0000       0.106552         2.8994 
  83   0.0000       0.111783         3.0418 
  84   0.0000       0.113620         3.0918 
  85   0.0000       0.117287         3.1915 
  86   0.0000       0.124176         3.3790 
  87   0.0000       0.133806         3.6410 
  88   0.0000       0.134636         3.6636 
  89   0.0000       0.143416         3.9025 
  90   0.0000       0.146116         3.9760 
  91   0.0000       0.158697         4.3184 
  92   0.0000       0.162900         4.4327 
  93   0.0000       0.169632         4.6159 
  94   0.0000       0.175798         4.7837 
  95   0.0000       0.191086         5.1997 
  96   0.0000       0.197791         5.3822 
  97   0.0000       0.201809         5.4915 
  98   0.0000       0.209910         5.7119 
  99   0.0000       0.213834         5.8187 
 100   0.0000       0.218217         5.9380 
 101   0.0000       0.225069         6.1244 
 102   0.0000       0.225857         6.1459 
 103   0.0000       0.229945         6.2571 
 104   0.0000       0.234357         6.3772 
 105   0.0000       0.248663         6.7665 
 106   0.0000       0.268808         7.3146 
 107   0.0000       0.273077         7.4308 
 108   0.0000       0.279465         7.6046 
 109   0.0000       0.286768         7.8033 
 110   0.0000       0.298172         8.1137 
 111   0.0000       0.308268         8.3884 
 112   0.0000       0.312479         8.5030 
 113   0.0000       0.326980         8.8976 
 114   0.0000       0.333146         9.0654 
 115   0.0000       0.345396         9.3987 
 116   0.0000       0.347732         9.4623 
 117   0.0000       0.361727         9.8431 
 118   0.0000       0.377434        10.2705 
 119   0.0000       0.384149        10.4532 
 120   0.0000       0.388616        10.5748 
 121   0.0000       0.402787        10.9604 
 122   0.0000       0.414063        11.2672 
 123   0.0000       0.425747        11.5852 
 124   0.0000       0.433850        11.8057 
 125   0.0000       0.436126        11.8676 
 126   0.0000       0.456777        12.4295 
 127   0.0000       0.472821        12.8661 
 128   0.0000       0.481711        13.1080 
 129   0.0000       0.487799        13.2737 
 130   0.0000       0.513940        13.9850 
 131   0.0000       0.515572        14.0294 
 132   0.0000       0.537121        14.6158 
 133   0.0000       0.538552        14.6547 
 134   0.0000       0.555002        15.1024 
 135   0.0000       0.584218        15.8974 
 136   0.0000       0.592784        16.1305 
 137   0.0000       0.603022        16.4091 
 138   0.0000       0.622992        16.9525 
 139   0.0000       0.635724        17.2989 
 140   0.0000       0.641630        17.4597 
 141   0.0000       0.679921        18.5016 
 142   0.0000       0.684706        18.6318 
 143   0.0000       0.701043        19.0764 
 144   0.0000       0.716088        19.4857 
 145   0.0000       0.722323        19.6554 
 146   0.0000       0.732587        19.9347 
 147   0.0000       0.737847        20.0778 
 148   0.0000       0.746568        20.3152 
 149   0.0000       0.749401        20.3922 
 150   0.0000       0.761414        20.7191 
 151   0.0000       0.767576        20.8868 
 152   0.0000       0.776867        21.1396 
 153   0.0000       0.781332        21.2611 
 154   0.0000       0.789265        21.4770 
 155   0.0000       0.792611        21.5680 
 156   0.0000       0.802331        21.8325 
 157   0.0000       0.812794        22.1172 
 158   0.0000       0.820968        22.3397 
 159   0.0000       0.823875        22.4188 
 160   0.0000       0.829414        22.5695 
 161   0.0000       0.847968        23.0744 
 162   0.0000       0.851059        23.1585 
 163   0.0000       0.864087        23.5130 
 164   0.0000       0.866369        23.5751 
 165   0.0000       0.885654        24.0999 
 166   0.0000       0.895787        24.3756 
 167   0.0000       0.906466        24.6662 
 168   0.0000       0.909926        24.7603 
 169   0.0000       0.926271        25.2051 
 170   0.0000       0.936644        25.4874 
 171   0.0000       0.938780        25.5455 
 172   0.0000       0.953008        25.9327 
 173   0.0000       0.963574        26.2202 
 174   0.0000       0.978351        26.6223 
 175   0.0000       0.981536        26.7090 
 176   0.0000       1.007896        27.4262 
 177   0.0000       1.021449        27.7950 
 178   0.0000       1.035830        28.1864 
 179   0.0000       1.046180        28.4680 
 180   0.0000       1.051246        28.6059 
 181   0.0000       1.068988        29.0886 
 182   0.0000       1.080654        29.4061 
 183   0.0000       1.088780        29.6272 
 184   0.0000       1.111550        30.2468 
 185   0.0000       1.117814        30.4173 
 186   0.0000       1.128549        30.7094 
 187   0.0000       1.151342        31.3296 
 188   0.0000       1.193769        32.4841 
 189   0.0000       1.209566        32.9140 
 190   0.0000       1.230607        33.4865 
 191   0.0000       1.242409        33.8077 
 192   0.0000       1.252344        34.0780 
 193   0.0000       1.270315        34.5670 
 194   0.0000       1.276555        34.7368 
 195   0.0000       1.282581        34.9008 
 196   0.0000       1.317797        35.8591 
 197   0.0000       1.332463        36.2582 
 198   0.0000       1.335331        36.3362 
 199   0.0000       1.341289        36.4983 
 200   0.0000       1.344849        36.5952 
 201   0.0000       1.385524        37.7020 
 202   0.0000       1.387695        37.7611 
 203   0.0000       1.404086        38.2071 
 204   0.0000       1.410611        38.3847 
 205   0.0000       1.418086        38.5881 
 206   0.0000       1.420512        38.6541 
 207   0.0000       1.426513        38.8174 
 208   0.0000       1.439580        39.1730 
 209   0.0000       1.449334        39.4384 
 210   0.0000       1.459172        39.7061 
[...]
      px      :     0.961899
      py      :     0.906418
      dz2     :     0.032590  d :     0.188251
      dxz     :     0.028352
      dyz     :     0.031538
      dx2y2   :     0.038665
      dxy     :     0.057107
  8 N s       :     3.029341  s :     3.029341
      pz      :     1.183122  p :     3.574929
      px      :     1.195287
      py      :     1.196520
      dz2     :     0.013068  d :     0.051877
      dxz     :     0.010207
      dyz     :     0.004261
      dx2y2   :     0.013484
      dxy     :     0.010857
  9 H s       :     0.863228  s :     0.863228
      pz      :     0.039511  p :     0.091522
      px      :     0.036340
      py      :     0.015671
 10 H s       :     0.850495  s :     0.850495
      pz      :     0.048723  p :     0.082908
      px      :     0.018528
      py      :     0.015657
 11 H s       :     0.852266  s :     0.852266
      pz      :     0.025957  p :     0.082385
      px      :     0.040546
      py      :     0.015881
 12 H s       :     0.864554  s :     0.864554
      pz      :     0.045584  p :     0.081244
      px      :     0.018714
      py      :     0.016946
 13 H s       :     0.864330  s :     0.864330
      pz      :     0.026277  p :     0.081423
      px      :     0.039270
      py      :     0.015877
 14 H s       :     0.854317  s :     0.854317
      pz      :     0.050648  p :     0.082605
      px      :     0.017654
      py      :     0.014303
 15 H s       :     0.854373  s :     0.854373
      pz      :     0.026349  p :     0.082710
      px      :     0.042586
      py      :     0.013775
 16 H s       :     0.746238  s :     0.746238
      pz      :     0.023230  p :     0.129469
      px      :     0.035648
      py      :     0.070591
 17 H s       :     0.743651  s :     0.743651
      pz      :     0.077798  p :     0.128931
      px      :     0.027123
      py      :     0.024009
 18 H s       :     0.756131  s :     0.756131
      pz      :     0.071609  p :     0.150725
      px      :     0.031723
      py      :     0.047392
 19 C s       :     2.846030  s :     2.846030
      pz      :     0.962211  p :     2.771150
      px      :     1.019130
      py      :     0.789809
      dz2     :     0.150781  d :     0.485890
      dxz     :     0.150508
      dyz     :     0.104203
      dx2y2   :     0.044138
      dxy     :     0.036259
 20 N s       :     3.064161  s :     3.064161
      pz      :     1.154262  p :     3.800649
      px      :     1.281987
      py      :     1.364400
      dz2     :     0.019437  d :     0.081276
      dxz     :     0.021824
      dyz     :     0.016534
      dx2y2   :     0.010907
      dxy     :     0.012574
 21 H s       :     0.772012  s :     0.772012
      pz      :     0.054005  p :     0.145223
      px      :     0.038477
      py      :     0.052741
 22 O s       :     3.581989  s :     3.581989
      pz      :     1.484845  p :     4.564526
      px      :     1.658184
      py      :     1.421496
      dz2     :     0.012259  d :     0.032034
      dxz     :     0.011341
      dyz     :     0.005437
      dx2y2   :     0.001661
      dxy     :     0.001336
 23 H s       :     0.744072  s :     0.744072
      pz      :     0.038854  p :     0.128912
      px      :     0.066841
      py      :     0.023216
 24 C s       :     2.856086  s :     2.856086
      pz      :     0.893122  p :     2.967202
      px      :     1.018871
      py      :     1.055209
      dz2     :     0.045123  d :     0.155995
      dxz     :     0.036258
      dyz     :     0.036186
      dx2y2   :     0.027447
      dxy     :     0.010981
 25 H s       :     0.881648  s :     0.881648
      pz      :     0.017750  p :     0.079969
      px      :     0.016297
      py      :     0.045922
 26 H s       :     0.885407  s :     0.885407
      pz      :     0.013059  p :     0.079635
      px      :     0.046472
      py      :     0.020105
 27 H s       :     0.860476  s :     0.860476
      pz      :     0.025991  p :     0.084352
      px      :     0.027680
      py      :     0.030681
 28 C s       :     2.868909  s :     2.868909
      pz      :     1.028933  p :     3.060458
      px      :     0.983774
      py      :     1.047751
      dz2     :     0.023639  d :     0.105369
      dxz     :     0.018959
      dyz     :     0.012025
      dx2y2   :     0.033468
      dxy     :     0.017277
 29 H s       :     0.855599  s :     0.855599
      pz      :     0.020140  p :     0.082136
      px      :     0.018738
      py      :     0.043258
 30 H s       :     0.881464  s :     0.881464
      pz      :     0.043420  p :     0.081664
      px      :     0.020324
      py      :     0.017920
 31 H s       :     0.863915  s :     0.863915
      pz      :     0.028517  p :     0.081569
      px      :     0.022006
      py      :     0.031046
 32 H s       :     0.856451  s :     0.856451
      pz      :     0.025769  p :     0.080263
      px      :     0.016378
      py      :     0.038116

SPIN
  0 N s       :     0.002099  s :     0.002099
      pz      :     0.000426  p :     0.017184
      px      :     0.015065
      py      :     0.001693
      dz2     :    -0.000081  d :    -0.000358
      dxz     :    -0.000248
      dyz     :    -0.000003
      dx2y2   :    -0.000002
      dxy     :    -0.000024
  1 C s       :    -0.001600  s :    -0.001600
      pz      :    -0.006212  p :    -0.018429
      px      :    -0.001601
      py      :    -0.010616
      dz2     :     0.016886  d :     0.033113
      dxz     :     0.000560
      dyz     :     0.008322
      dx2y2   :     0.002890
      dxy     :     0.004456
  2 C s       :     0.009176  s :     0.009176
      pz      :     0.018862  p :     0.022411
      px      :     0.003046
      py      :     0.000502
      dz2     :    -0.000269  d :     0.000859
      dxz     :     0.000362
      dyz     :     0.000594
      dx2y2   :    -0.000184
      dxy     :     0.000356
  3 O s       :     0.000658  s :     0.000658
      pz      :     0.003624  p :     0.014183
      px      :     0.011540
      py      :    -0.000981
      dz2     :     0.000104  d :     0.000133
      dxz     :     0.000008
      dyz     :     0.000000
      dx2y2   :    -0.000003
      dxy     :     0.000024
  4 C s       :     0.028452  s :     0.028452
      pz      :     0.401433  p :     0.775305
      px      :     0.341420
      py      :     0.032453
      dz2     :    -0.000156  d :    -0.003325
      dxz     :    -0.001229
      dyz     :    -0.000416
      dx2y2   :    -0.000463
      dxy     :    -0.001061
  5 C s       :    -0.003005  s :    -0.003005
      pz      :    -0.004149  p :    -0.022951
      px      :    -0.007568
      py      :    -0.011234
      dz2     :     0.002722  d :     0.034368
      dxz     :     0.006676
      dyz     :     0.009466
      dx2y2   :     0.008523
      dxy     :     0.006980
  6 C s       :     0.002063  s :     0.002063
      pz      :     0.001959  p :     0.004529
      px      :     0.000744
      py      :     0.001826
      dz2     :     0.000360  d :    -0.000339
      dxz     :     0.000153
      dyz     :    -0.000170
      dx2y2   :    -0.000584
      dxy     :    -0.000098
  7 C s       :    -0.000183  s :    -0.000183
      pz      :     0.000427  p :     0.000806
      px      :     0.000394
      py      :    -0.000015
      dz2     :     0.000005  d :     0.000230
      dxz     :     0.000004
      dyz     :     0.000188
      dx2y2   :     0.000047
      dxy     :    -0.000014
  8 N s       :     0.000010  s :     0.000010
      pz      :     0.000014  p :    -0.000063
      px      :    -0.000009
      py      :    -0.000068
      dz2     :    -0.000003  d :     0.000041
      dxz     :     0.000008
      dyz     :     0.000002
      dx2y2   :     0.000029
      dxy     :     0.000005
  9 H s       :    -0.017760  s :    -0.017760
      pz      :     0.012734  p :     0.026895
      px      :     0.013565
      py      :     0.000597
 10 H s       :     0.018462  s :     0.018462
      pz      :    -0.000420  p :    -0.000945
      px      :    -0.000392
      py      :    -0.000134
 11 H s       :     0.039959  s :     0.039959
      pz      :    -0.000249  p :    -0.000685
      px      :    -0.000641
      py      :     0.000204
 12 H s       :     0.000166  s :     0.000166
      pz      :     0.000027  p :     0.000216
      px      :     0.000010
      py      :     0.000179
 13 H s       :    -0.000305  s :    -0.000305
      pz      :     0.000014  p :     0.000481
      px      :     0.000480
      py      :    -0.000013
 14 H s       :     0.000141  s :     0.000141
      pz      :     0.000001  p :     0.000023
      px      :     0.000016
      py      :     0.000006
 15 H s       :     0.000166  s :     0.000166
      pz      :     0.000011  p :     0.000158
      px      :     0.000015
      py      :     0.000132
 16 H s       :     0.000080  s :     0.000080
      pz      :    -0.000004  p :    -0.000002
      px      :    -0.000004
      py      :     0.000006
 17 H s       :     0.000021  s :     0.000021
      pz      :     0.000004  p :    -0.000005
      px      :    -0.000000
      py      :    -0.000008
 18 H s       :    -0.000611  s :    -0.000611
      pz      :     0.000112  p :     0.000872
      px      :     0.000617
      py      :     0.000143
 19 C s       :    -0.000178  s :    -0.000178
      pz      :    -0.000497  p :     0.000168
      px      :    -0.000579
      py      :     0.001244
      dz2     :     0.001754  d :     0.002301
      dxz     :     0.000034
      dyz     :    -0.000087
      dx2y2   :     0.000641
      dxy     :    -0.000041
 20 N s       :     0.000678  s :     0.000678
      pz      :     0.000554  p :     0.010777
      px      :     0.007853
      py      :     0.002370
      dz2     :     0.000003  d :     0.000522
      dxz     :     0.000426
      dyz     :     0.000062
      dx2y2   :     0.000034
      dxy     :    -0.000004
 21 H s       :    -0.000347  s :    -0.000347
      pz      :     0.000074  p :     0.000439
      px      :     0.000159
      py      :     0.000206
 22 O s       :     0.000977  s :     0.000977
      pz      :     0.000680  p :     0.012944
      px      :     0.012800
      py      :    -0.000537
      dz2     :    -0.000005  d :     0.000012
      dxz     :    -0.000009
      dyz     :     0.000003
      dx2y2   :    -0.000003
      dxy     :     0.000026
 23 H s       :     0.000072  s :     0.000072
      pz      :    -0.000002  p :    -0.000012
      px      :    -0.000004
      py      :    -0.000006
 24 C s       :    -0.000013  s :    -0.000013
      pz      :     0.000189  p :     0.000109
      px      :    -0.000105
      py      :     0.000024
      dz2     :     0.000110  d :     0.000670
      dxz     :     0.000286
      dyz     :     0.000007
      dx2y2   :     0.000213
      dxy     :     0.000053
 25 H s       :     0.000232  s :     0.000232
      pz      :    -0.000004  p :    -0.000015
      px      :    -0.000008
      py      :    -0.000003
 26 H s       :     0.000764  s :     0.000764
      pz      :     0.000046  p :     0.000032
      px      :    -0.000018
      py      :     0.000003
 27 H s       :     0.000132  s :     0.000132
      pz      :    -0.000006  p :     0.000018
      px      :     0.000030
      py      :    -0.000005
 28 C s       :     0.000524  s :     0.000524
      pz      :     0.000039  p :     0.002227
      px      :     0.001996
      py      :     0.000193
      dz2     :     0.000016  d :     0.000075
      dxz     :    -0.000025
      dyz     :     0.000009
      dx2y2   :     0.000016
      dxy     :     0.000059
 29 H s       :    -0.000056  s :    -0.000056
      pz      :     0.000003  p :     0.000055
      px      :     0.000042
      py      :     0.000010
 30 H s       :     0.000058  s :     0.000058
      pz      :     0.000013  p :     0.000034
      px      :     0.000023
      py      :    -0.000002
 31 H s       :     0.000348  s :     0.000348
      pz      :     0.000001  p :     0.000079
      px      :     0.000074
      py      :     0.000004
 32 H s       :     0.004465  s :     0.004465
      pz      :    -0.000283  p :    -0.000786
      px      :    -0.000194
      py      :    -0.000308


                      *****************************
                      * MAYER POPULATION ANALYSIS *
                      *****************************

  NA   - Mulliken gross atomic population
  ZA   - Total nuclear charge
  QA   - Mulliken gross atomic charge
  VA   - Mayer's total valence
  BVA  - Mayer's bonded valence
  FA   - Mayer's free valence

  ATOM       NA         ZA         QA         VA         BVA        FA
  0 N      7.1377     7.0000    -0.1377     3.2913     3.2908     0.0005
  1 C      6.0962     6.0000    -0.0962     4.1111     4.1094     0.0017
  2 C      5.9428     6.0000     0.0572     4.0500     4.0487     0.0012
  3 O      8.3250     8.0000    -0.3250     2.1239     2.1235     0.0004
  4 C      6.0744     6.0000    -0.0744     3.9007     3.1714     0.7293
  5 C      6.2048     6.0000    -0.2048     4.0059     4.0037     0.0021
  6 C      6.2796     6.0000    -0.2796     3.9269     3.9268     0.0001
  7 C      6.2863     6.0000    -0.2863     3.7308     3.7308     0.0000
  8 N      7.3699     7.0000    -0.3699     3.5521     3.5521     0.0000
  9 H      0.8984     1.0000     0.1016     0.9766     0.9735     0.0032
 10 H      0.8190     1.0000     0.1810     0.9581     0.9576     0.0004
 11 H      0.8400     1.0000     0.1600     0.9638     0.9612     0.0026
 12 H      0.8369     1.0000     0.1631     0.9611     0.9611     0.0000
 13 H      0.8336     1.0000     0.1664     0.9574     0.9574     0.0000
 14 H      0.7784     1.0000     0.2216     0.9399     0.9399     0.0000
 15 H      0.7804     1.0000     0.2196     0.9417     0.9417     0.0000
 16 H      0.6661     1.0000     0.3339     0.8907     0.8907     0.0000
 17 H      0.6646     1.0000     0.3354     0.8908     0.8908     0.0000
 18 H      0.7448     1.0000     0.2552     0.9614     0.9613     0.0000
 19 C      5.8306     6.0000     0.1694     3.9888     3.9888    -0.0000
 20 N      7.0882     7.0000    -0.0882     3.2132     3.2129     0.0003
 21 H      0.7652     1.0000     0.2348     0.9606     0.9606     0.0000
 22 O      8.3103     8.0000    -0.3103     2.1239     2.1235     0.0004
 23 H      0.6653     1.0000     0.3347     0.8910     0.8910     0.0000
 24 C      6.4471     6.0000    -0.4471     3.8725     3.8725    -0.0000
 25 H      0.8214     1.0000     0.1786     0.9536     0.9536     0.0000
 26 H      0.8324     1.0000     0.1676     0.9564     0.9564     0.0000
 27 H      0.8012     1.0000     0.1988     0.9654     0.9654     0.0000
 28 C      6.5420     6.0000    -0.5420     3.8417     3.8417     0.0000
 29 H      0.8009     1.0000     0.1991     0.9554     0.9554     0.0000
 30 H      0.8488     1.0000     0.1512     0.9701     0.9701     0.0000
 31 H      0.8163     1.0000     0.1837     0.9608     0.9608     0.0000
 32 H      0.8513     1.0000     0.1487     0.9491     0.9490     0.0001

  Mayer bond orders larger than 0.100000
B(  0-N ,  1-C ) :   1.0115 B(  0-N , 18-H ) :   0.8982 B(  0-N , 19-C ) :   1.1934 
B(  1-C ,  2-C ) :   0.8669 B(  1-C ,  4-C ) :   0.9813 B(  1-C , 32-H ) :   0.9739 
B(  2-C ,  3-O ) :   1.8622 B(  2-C , 20-N ) :   1.2177 B(  4-C ,  5-C ) :   1.0034 
B(  4-C ,  9-H ) :   0.9804 B(  5-C ,  6-C ) :   0.9859 B(  5-C , 10-H ) :   0.9437 
B(  5-C , 11-H ) :   0.9355 B(  6-C ,  7-C ) :   0.9584 B(  6-C , 12-H ) :   0.9589 
B(  6-C , 13-H ) :   0.9566 B(  7-C ,  8-N ) :   0.8759 B(  7-C , 14-H ) :   0.9361 
B(  7-C , 15-H ) :   0.9374 B(  8-N , 16-H ) :   0.8844 B(  8-N , 17-H ) :   0.8834 
B(  8-N , 23-H ) :   0.8839 B( 19-C , 22-O ) :   1.8649 B( 19-C , 28-C ) :   0.9011 
B( 20-N , 21-H ) :   0.9268 B( 20-N , 24-C ) :   0.9657 B( 24-C , 25-H ) :   0.9544 
B( 24-C , 26-H ) :   0.9575 B( 24-C , 27-H ) :   0.9441 B( 28-C , 29-H ) :   0.9487 
B( 28-C , 30-H ) :   0.9731 B( 28-C , 31-H ) :   0.9597 

-------
TIMINGS
-------

Total SCF time: 0 days 0 hours 0 min 15 sec 

Total time                  ....      15.482 sec
Sum of individual times     ....      14.723 sec  ( 95.1%)

Fock matrix formation       ....      12.642 sec  ( 81.7%)
  Split-RI-J                ....       0.939 sec  (  7.4% of F)
  Chain of spheres X        ....       9.351 sec  ( 74.0% of F)
  XC integration            ....       2.123 sec  ( 16.8% of F)
    Basis function eval.    ....       0.228 sec  ( 10.7% of XC)
    Density eval.           ....       0.316 sec  ( 14.9% of XC)
    XC-Functional eval.     ....       0.052 sec  (  2.4% of XC)
    XC-Potential eval.      ....       0.199 sec  (  9.4% of XC)
Diagonalization             ....       0.384 sec  (  2.5%)
Density matrix formation    ....       0.018 sec  (  0.1%)
Population analysis         ....       0.073 sec  (  0.5%)
Initial guess               ....       0.060 sec  (  0.4%)
Orbital Transformation      ....       0.000 sec  (  0.0%)
Orbital Orthonormalization  ....       0.043 sec  (  0.3%)
DIIS solution               ....       0.180 sec  (  1.2%)
Grid generation             ....       1.367 sec  (  8.8%)

Maximum memory used throughout the entire SCF-calculation: 85.2 MB

-------------------------   --------------------
FINAL SINGLE POINT ENERGY      -668.587412360450
-------------------------   --------------------

                                *** OPTIMIZATION RUN DONE ***

                            ***************************************
                            *     ORCA property calculations      *
                            ***************************************

                                    ---------------------
                                    Active property flags
                                    ---------------------
   (+) Dipole Moment


------------------------------------------------------------------------------
                       ORCA ELECTRIC PROPERTIES CALCULATION
------------------------------------------------------------------------------

Dipole Moment Calculation                       ... on
Quadrupole Moment Calculation                   ... off
Polarizability Calculation                      ... off
GBWName                                         ... opt.gbw
Electron density                                ... opt.scfp
The origin for moment calculation is the CENTER OF MASS  = (-12.426472,  4.087984  0.386968)

-------------
DIPOLE MOMENT
-------------
                                X             Y             Z
Electronic contribution:     -1.18797      -5.57410      -0.31601
Nuclear contribution   :      3.60819      12.39673      -0.73099
                        -----------------------------------------
Total Dipole Moment    :      2.42022       6.82263      -1.04700
                        -----------------------------------------
Magnitude (a.u.)       :      7.31450
Magnitude (Debye)      :     18.59199



--------------------
Rotational spectrum 
--------------------
 
Rotational constants in cm-1:     0.020123     0.013160     0.008927 
Rotational constants in MHz :   603.283927   394.513458   267.621102 

 Dipole components along the rotational axes: 
x,y,z [a.u.] :    -6.895085     2.439526     0.091936 
x,y,z [Debye]:   -17.525913     6.200783     0.233682 

 

Timings for individual modules:

Sum of individual times         ...      673.836 sec (=  11.231 min)
GTO integral calculation        ...       53.370 sec (=   0.890 min)   7.9 %
SCF iterations                  ...      459.001 sec (=   7.650 min)  68.1 %
SCF Gradient evaluation         ...      160.511 sec (=   2.675 min)  23.8 %
Geometry relaxation             ...        0.954 sec (=   0.016 min)   0.1 %
                             ****ORCA TERMINATED NORMALLY****
TOTAL RUN TIME: 0 days 0 hours 12 minutes 1 seconds 658 msec
