
                                 *****************
                                 * O   R   C   A *
                                 *****************

                                            #,                                       
                                            ###                                      
                                            ####                                     
                                            #####                                    
                                            ######                                   
                                           ########,                                 
                                     ,,################,,,,,                         
                               ,,#################################,,                 
                          ,,##########################################,,             
                       ,#########################################, ''#####,          
                    ,#############################################,,   '####,        
                  ,##################################################,,,,####,       
                ,###########''''           ''''###############################       
              ,#####''   ,,,,##########,,,,          '''####'''          '####       
            ,##' ,,,,###########################,,,                        '##       
           ' ,,###''''                  '''############,,,                           
         ,,##''                                '''############,,,,        ,,,,,,###''
      ,#''                                            '''#######################'''  
     '                                                          ''''####''''         
             ,#######,   #######,   ,#######,      ##                                
            ,#'     '#,  ##    ##  ,#'     '#,    #''#        ######   ,####,        
            ##       ##  ##   ,#'  ##            #'  '#       #        #'  '#        
            ##       ##  #######   ##           ,######,      #####,   #    #        
            '#,     ,#'  ##    ##  '#,     ,#' ,#      #,         ##   #,  ,#        
             '#######'   ##     ##  '#######'  #'      '#     #####' # '####'        



                  #######################################################
                  #                        -***-                        #
                  #          Department of theory and spectroscopy      #
                  #    Directorship and core code : Frank Neese         #
                  #        Max Planck Institute fuer Kohlenforschung    #
                  #                Kaiser Wilhelm Platz 1               #
                  #                 D-45470 Muelheim/Ruhr               #
                  #                      Germany                        #
                  #                                                     #
                  #                  All rights reserved                #
                  #                        -***-                        #
                  #######################################################


                         Program Version 5.0.4 -  RELEASE  -


 With contributions from (in alphabetic order):
   Daniel Aravena         : Magnetic Suceptibility
   Michael Atanasov       : Ab Initio Ligand Field Theory (pilot matlab implementation)
   Alexander A. Auer      : GIAO ZORA, VPT2 properties, NMR spectrum
   Ute Becker             : Parallelization
   Giovanni Bistoni       : ED, misc. LED, open-shell LED, HFLD
   Martin Brehm           : Molecular dynamics
   Dmytro Bykov           : SCF Hessian
   Vijay G. Chilkuri      : MRCI spin determinant printing, contributions to CSF-ICE
   Dipayan Datta          : RHF DLPNO-CCSD density
   Achintya Kumar Dutta   : EOM-CC, STEOM-CC
   Dmitry Ganyushin       : Spin-Orbit,Spin-Spin,Magnetic field MRCI
   Miquel Garcia          : C-PCM and meta-GGA Hessian, CC/C-PCM, Gaussian charge scheme
   Yang Guo               : DLPNO-NEVPT2, F12-NEVPT2, CIM, IAO-localization
   Andreas Hansen         : Spin unrestricted coupled pair/coupled cluster methods
   Benjamin Helmich-Paris : MC-RPA, TRAH-SCF, COSX integrals
   Lee Huntington         : MR-EOM, pCC
   Robert Izsak           : Overlap fitted RIJCOSX, COSX-SCS-MP3, EOM
   Marcus Kettner         : VPT2
   Christian Kollmar      : KDIIS, OOCD, Brueckner-CCSD(T), CCSD density, CASPT2, CASPT2-K
   Simone Kossmann        : Meta GGA functionals, TD-DFT gradient, OOMP2, MP2 Hessian
   Martin Krupicka        : Initial AUTO-CI
   Lucas Lang             : DCDCAS
   Marvin Lechner         : AUTO-CI (C++ implementation), FIC-MRCC
   Dagmar Lenk            : GEPOL surface, SMD
   Dimitrios Liakos       : Extrapolation schemes; Compound Job, initial MDCI parallelization
   Dimitrios Manganas     : Further ROCIS development; embedding schemes
   Dimitrios Pantazis     : SARC Basis sets
   Anastasios Papadopoulos: AUTO-CI, single reference methods and gradients
   Taras Petrenko         : DFT Hessian,TD-DFT gradient, ASA, ECA, R-Raman, ABS, FL, XAS/XES, NRVS
   Peter Pinski           : DLPNO-MP2, DLPNO-MP2 Gradient
   Christoph Reimann      : Effective Core Potentials
   Marius Retegan         : Local ZFS, SOC
   Christoph Riplinger    : Optimizer, TS searches, QM/MM, DLPNO-CCSD(T), (RO)-DLPNO pert. Triples
   Tobias Risthaus        : Range-separated hybrids, TD-DFT gradient, RPA, STAB
   Michael Roemelt        : Original ROCIS implementation
   Masaaki Saitow         : Open-shell DLPNO-CCSD energy and density
   Barbara Sandhoefer     : DKH picture change effects
   Avijit Sen             : IP-ROCIS
   Kantharuban Sivalingam : CASSCF convergence, NEVPT2, FIC-MRCI
   Bernardo de Souza      : ESD, SOC TD-DFT
   Georgi Stoychev        : AutoAux, RI-MP2 NMR, DLPNO-MP2 response
   Willem Van den Heuvel  : Paramagnetic NMR
   Boris Wezisla          : Elementary symmetry handling
   Frank Wennmohs         : Technical directorship


 We gratefully acknowledge several colleagues who have allowed us to
 interface, adapt or use parts of their codes:
   Stefan Grimme, W. Hujo, H. Kruse, P. Pracht,  : VdW corrections, initial TS optimization,
                  C. Bannwarth, S. Ehlert          DFT functionals, gCP, sTDA/sTD-DF
   Ed Valeev, F. Pavosevic, A. Kumar             : LibInt (2-el integral package), F12 methods
   Garnet Chan, S. Sharma, J. Yang, R. Olivares  : DMRG
   Ulf Ekstrom                                   : XCFun DFT Library
   Mihaly Kallay                                 : mrcc  (arbitrary order and MRCC methods)
   Jiri Pittner, Ondrej Demel                    : Mk-CCSD
   Frank Weinhold                                : gennbo (NPA and NBO analysis)
   Christopher J. Cramer and Donald G. Truhlar   : smd solvation model
   Lars Goerigk                                  : TD-DFT with DH, B97 family of functionals
   V. Asgeirsson, H. Jonsson                     : NEB implementation
   FAccTs GmbH                                   : IRC, NEB, NEB-TS, DLPNO-Multilevel, CI-OPT
                                                   MM, QMMM, 2- and 3-layer-ONIOM, Crystal-QMMM,
                                                   LR-CPCM, SF, NACMEs, symmetry and pop. for TD-DFT,
                                                   nearIR, NL-DFT gradient (VV10), updates on ESD,
                                                   ML-optimized integration grids
   S Lehtola, MJT Oliveira, MAL Marques          : LibXC Library
   Liviu Ungur et al                             : ANISO software


 Your calculation uses the libint2 library for the computation of 2-el integrals
 For citations please refer to: http://libint.valeyev.net

 Your ORCA version has been built with support for libXC version: 5.1.0
 For citations please refer to: https://tddft.org/programs/libxc/

 This ORCA versions uses:
   CBLAS   interface :  Fast vector & matrix operations
   LAPACKE interface :  Fast linear algebra routines
   SCALAPACK package :  Parallel linear algebra routines
   Shared memory     :  Shared parallel matrices
   BLAS/LAPACK       :  OpenBLAS 0.3.15  USE64BITINT DYNAMIC_ARCH NO_AFFINITY Zen SINGLE_THREADED
        Core in use  :  Zen
   Copyright (c) 2011-2014, The OpenBLAS Project




***************************************
The coordinates will be read from file: opt.xyz
***************************************


================================================================================

----- Orbital basis set information -----
Your calculation utilizes the basis: EPR-II
   V. Barone, in Recent Advances in Density Functional Methods, Part 1 (ed. D. P. Chong), World Scientific, Singapore, 1995, p. 287.

----- AuxJ basis set information -----
Your calculation utilizes the AutoAux generation procedure.
  G. L. Stoychev, A. A. Auer, F. Neese, J. Chem. Theory Comput. 13, 554 (2017)

----- AuxC basis set information -----
Your calculation utilizes the AutoAux generation procedure.
  G. L. Stoychev, A. A. Auer, F. Neese, J. Chem. Theory Comput. 13, 554 (2017)

----- AuxJK basis set information -----
Your calculation utilizes the AutoAux generation procedure.
  G. L. Stoychev, A. A. Auer, F. Neese, J. Chem. Theory Comput. 13, 554 (2017)

================================================================================
                                        WARNINGS
                       Please study these warnings very carefully!
================================================================================


WARNING: your system is open-shell and RHF/RKS was chosen
  ===> : WILL SWITCH to UHF/UKS


INFO   : the flag for use of the SHARK integral package has been found!

================================================================================
                                       INPUT FILE
================================================================================
NAME = epr_info.inp
|  1> ! B3LYP EPR-II AUTOAUX
|  2> %pal nprocs 16 end
|  3> *XYZFile 1 2 opt.xyz
|  4> %EPRNMR
|  5>         GTENSOR   TRUE
|  6>         NUCLEI    = 9,10,11,12,18,30,31,32,33 {SHIFT, AISO, ADIP, AORB}
|  7>         ORI       GIAO
|  8> END
|  9> 
| 10>                          ****END OF INPUT****
================================================================================

                       ****************************
                       * Single Point Calculation *
                       ****************************

---------------------------------
CARTESIAN COORDINATES (ANGSTROEM)
---------------------------------
  N     -7.849123    0.924409    0.078250
  C     -6.401750    0.872185    0.219965
  C     -6.091914    0.890205    1.730097
  O     -6.815940    1.513692    2.510124
  C     -5.687368    2.042737   -0.513514
  C     -6.111098    3.437003   -0.021257
  C     -5.568349    4.548125   -0.947814
  C     -6.003392    5.900415   -0.506291
  N     -5.504638    7.077268   -1.280063
  H     -6.890913    6.119848    0.077407
  H     -5.640620    7.951844   -0.760907
  H     -5.979153    7.179798   -2.190367
  H     -8.373810    1.113893    0.921864
  C     -8.473464    0.610299   -1.102525
  N     -4.961817    0.228947    2.100739
  H     -4.505344   -0.350147    1.411205
  O     -7.833558    0.365947   -2.125600
  H     -4.500479    6.981892   -1.474721
  C     -4.514367    0.131224    3.490543
  H     -4.684212   -0.874947    3.886840
  H     -3.449971    0.370723    3.564730
  H     -5.090176    0.843453    4.081146
  C     -9.995826    0.578249   -1.065558
  H    -10.382527    1.208356   -1.870438
  H    -10.321507   -0.446142   -1.268112
  H    -10.417641    0.902492   -0.110659
  H     -6.039313   -0.056240   -0.237011
  H     -4.602756    1.918037   -0.405252
  H     -5.927158    1.929854   -1.575785
  H     -5.763364    3.610873    1.001782
  H     -7.204689    3.493287   -0.001252
  H     -4.467990    4.504860   -0.995504
  H     -5.919021    4.361961   -1.980277

----------------------------
CARTESIAN COORDINATES (A.U.)
----------------------------
  NO LB      ZA    FRAG     MASS         X           Y           Z
   0 N     7.0000    0    14.007  -14.832694    1.746880    0.147870
   1 C     6.0000    0    12.011  -12.097554    1.648191    0.415674
   2 C     6.0000    0    12.011  -11.512048    1.682243    3.269410
   3 O     8.0000    0    15.999  -12.880259    2.860464    4.743447
   4 C     6.0000    0    12.011  -10.747568    3.860213   -0.970401
   5 C     6.0000    0    12.011  -11.548302    6.494994   -0.040170
   6 C     6.0000    0    12.011  -10.522655    8.594710   -1.791108
   7 C     6.0000    0    12.011  -11.344767   11.150169   -0.956752
   8 N     7.0000    0    14.007  -10.402258   13.374099   -2.418968
   9 H     1.0000    0     1.008  -13.021938   11.564837    0.146277
  10 H     1.0000    0     1.008  -10.659227   15.026808   -1.437906
  11 H     1.0000    0     1.008  -11.298962   13.567852   -4.139194
  12 H     1.0000    0     1.008  -15.824207    2.104952    1.742070
  13 C     6.0000    0    12.011  -16.012526    1.153298   -2.083469
  14 N     7.0000    0    14.007   -9.376476    0.432647    3.969820
  15 H     1.0000    0     1.008   -8.513866   -0.661682    2.666790
  16 O     8.0000    0    15.999  -14.803279    0.691539   -4.016803
  17 H     1.0000    0     1.008   -8.504673   13.193863   -2.786818
  18 C     6.0000    0    12.011   -8.530918    0.247978    6.596170
  19 H     1.0000    0     1.008   -8.851877   -1.653410    7.345064
  20 H     1.0000    0     1.008   -6.519501    0.700565    6.736364
  21 H     1.0000    0     1.008   -9.619039    1.593895    7.712249
  22 C     6.0000    0    12.011  -18.889374    1.092732   -2.013613
  23 H     1.0000    0     1.008  -19.620132    2.283463   -3.534616
  24 H     1.0000    0     1.008  -19.504822   -0.843086   -2.396384
  25 H     1.0000    0     1.008  -19.686488    1.705463   -0.209114
  26 H     1.0000    0     1.008  -11.412647   -0.106278   -0.447887
  27 H     1.0000    0     1.008   -8.697948    3.624565   -0.765815
  28 H     1.0000    0     1.008  -11.200706    3.646896   -2.977803
  29 H     1.0000    0     1.008  -10.891180    6.823561    1.893093
  30 H     1.0000    0     1.008  -13.614889    6.601356   -0.002366
  31 H     1.0000    0     1.008   -8.443278    8.512952   -1.881229
  32 H     1.0000    0     1.008  -11.185328    8.242912   -3.742181

--------------------------------
INTERNAL COORDINATES (ANGSTROEM)
--------------------------------
 N      0   0   0     0.000000000000     0.00000000     0.00000000
 C      1   0   0     1.455232207900     0.00000000     0.00000000
 C      2   1   0     1.541694339939   107.14892797     0.00000000
 O      3   2   1     1.233447292391   120.49000444   326.92580472
 C      2   1   3     1.555160747512   112.57790959   237.49892271
 C      5   2   1     1.538129440972   113.87854585    59.32247696
 C      6   5   2     1.545210258799   111.29392008   190.24464606
 C      7   6   5     1.487580024067   111.89963580   178.34365742
 N      8   7   6     1.494142296996   117.68971159   177.56203528
 H      8   7   6     1.084687666405   125.65556443   334.77697735
 H      9   8   7     1.026107662643   111.41231604   195.57526633
 H      9   8   7     1.031663958157   112.43866511    74.81339134
 H      1   2   3     1.011377269845   116.19807880     9.69046201
 C      1   2   3     1.372112897581   121.88068187   195.64751759
 N      3   2   1     1.360791828456   115.34174675   149.45426425
 H     15   3   2     1.009541754751   117.91834016   349.52206601
 O     14   1   2     1.231207499629   121.60228557   354.49891640
 H      9   8   7     1.027289441365   110.56638969   315.34545001
 C     15   3   2     1.463323888007   123.02991966   180.46286198
 H     19  15   3     1.094659845915   110.96383809   106.42656527
 H     19  15   3     1.093527087885   110.33073027   227.51021308
 H     19  15   3     1.089788090762   108.02960605   347.22088728
 C     14   1   2     1.523148263861   116.02210751   174.27277380
 H     23  14   1     1.092888282129   108.88352654   127.77158529
 H     23  14   1     1.093833914690   108.22812073   244.16189410
 H     23  14   1     1.093112222198   113.61848305     5.29790381
 H      2   1   3     1.096431018840   108.57681941   119.47352823
 H      5   2   1     1.097111832372   108.78605655   182.53301033
 H      5   2   1     1.094834170462   106.22436378   297.97581008
 H      6   5   2     1.094421354710   110.83278072    68.06057311
 H      6   5   2     1.095220925891   109.11732529   310.50678802
 H      7   6   5     1.102241594649   110.38736599   301.08680691
 H      7   6   5     1.106167919061   109.10560211    56.74403292

---------------------------
INTERNAL COORDINATES (A.U.)
---------------------------
 N      0   0   0     0.000000000000     0.00000000     0.00000000
 C      1   0   0     2.749990334192     0.00000000     0.00000000
 C      2   1   0     2.913380084701   107.14892797     0.00000000
 O      3   2   1     2.330877583247   120.49000444   326.92580472
 C      2   1   3     2.938827907022   112.57790959   237.49892271
 C      5   2   1     2.906643401958   113.87854585    59.32247696
 C      6   5   2     2.920024208456   111.29392008   190.24464606
 C      7   6   5     2.811118847778   111.89963580   178.34365742
 N      8   7   6     2.823519746430   117.68971159   177.56203528
 H      8   7   6     2.049762630348   125.65556443   334.77697735
 H      9   8   7     1.939062466313   111.41231604   195.57526633
 H      9   8   7     1.949562343154   112.43866511    74.81339134
 H      1   2   3     1.911226058080   116.19807880     9.69046201
 C      1   2   3     2.592917601250   121.88068187   195.64751759
 N      3   2   1     2.571523881060   115.34174675   149.45426425
 H     15   3   2     1.907757437237   117.91834016   349.52206601
 O     14   1   2     2.326644988328   121.60228557   354.49891640
 H      9   8   7     1.941295704449   110.56638969   315.34545001
 C     15   3   2     2.765281393557   123.02991966   180.46286198
 H     19  15   3     2.068607318579   110.96383809   106.42656527
 H     19  15   3     2.066466716126   110.33073027   227.51021308
 H     19  15   3     2.059401035550   108.02960605   347.22088728
 C     14   1   2     2.878333080055   116.02210751   174.27277380
 H     23  14   1     2.065259548196   108.88352654   127.77158529
 H     23  14   1     2.067046534760   108.22812073   244.16189410
 H     23  14   1     2.065682733596   113.61848305     5.29790381
 H      2   1   3     2.071954350344   108.57681941   119.47352823
 H      5   2   1     2.073240901468   108.78605655   182.53301033
 H      5   2   1     2.068936744232   106.22436378   297.97581008
 H      6   5   2     2.068156635518   110.83278072    68.06057311
 H      6   5   2     2.069667606073   109.11732529   310.50678802
 H      7   6   5     2.082934747303   110.38736599   301.08680691
 H      7   6   5     2.090354425155   109.10560211    56.74403292

---------------------
BASIS SET INFORMATION
---------------------
There are 4 groups of distinct atoms

 Group   1 Type N   : 10s5p1d contracted to 6s2p1d pattern {511111/41/1}
 Group   2 Type C   : 10s5p1d contracted to 6s2p1d pattern {511111/41/1}
 Group   3 Type O   : 10s5p1d contracted to 6s2p1d pattern {511111/41/1}
 Group   4 Type H   : 6s1p contracted to 4s1p pattern {3111/1}

Atom   0N    basis set group =>   1
Atom   1C    basis set group =>   2
Atom   2C    basis set group =>   2
Atom   3O    basis set group =>   3
Atom   4C    basis set group =>   2
Atom   5C    basis set group =>   2
Atom   6C    basis set group =>   2
Atom   7C    basis set group =>   2
Atom   8N    basis set group =>   1
Atom   9H    basis set group =>   4
Atom  10H    basis set group =>   4
Atom  11H    basis set group =>   4
Atom  12H    basis set group =>   4
Atom  13C    basis set group =>   2
Atom  14N    basis set group =>   1
Atom  15H    basis set group =>   4
Atom  16O    basis set group =>   3
Atom  17H    basis set group =>   4
Atom  18C    basis set group =>   2
Atom  19H    basis set group =>   4
Atom  20H    basis set group =>   4
Atom  21H    basis set group =>   4
Atom  22C    basis set group =>   2
Atom  23H    basis set group =>   4
Atom  24H    basis set group =>   4
Atom  25H    basis set group =>   4
Atom  26H    basis set group =>   4
Atom  27H    basis set group =>   4
Atom  28H    basis set group =>   4
Atom  29H    basis set group =>   4
Atom  30H    basis set group =>   4
Atom  31H    basis set group =>   4
Atom  32H    basis set group =>   4
---------------------------------
AUXILIARY/J BASIS SET INFORMATION
---------------------------------
There are 4 groups of distinct atoms

 Group   1 Type N   : 17s13p12d2f contracted to 17s13p12d2f pattern {11111111111111111/1111111111111/111111111111/11}
 Group   2 Type C   : 17s13p12d2f contracted to 17s13p12d2f pattern {11111111111111111/1111111111111/111111111111/11}
 Group   3 Type O   : 17s13p12d2f contracted to 17s13p12d2f pattern {11111111111111111/1111111111111/111111111111/11}
 Group   4 Type H   : 15s6p1d contracted to 15s6p1d pattern {111111111111111/111111/1}

Atom   0N    basis set group =>   1
Atom   1C    basis set group =>   2
Atom   2C    basis set group =>   2
Atom   3O    basis set group =>   3
Atom   4C    basis set group =>   2
Atom   5C    basis set group =>   2
Atom   6C    basis set group =>   2
Atom   7C    basis set group =>   2
Atom   8N    basis set group =>   1
Atom   9H    basis set group =>   4
Atom  10H    basis set group =>   4
Atom  11H    basis set group =>   4
Atom  12H    basis set group =>   4
Atom  13C    basis set group =>   2
Atom  14N    basis set group =>   1
Atom  15H    basis set group =>   4
Atom  16O    basis set group =>   3
Atom  17H    basis set group =>   4
Atom  18C    basis set group =>   2
Atom  19H    basis set group =>   4
Atom  20H    basis set group =>   4
Atom  21H    basis set group =>   4
Atom  22C    basis set group =>   2
Atom  23H    basis set group =>   4
Atom  24H    basis set group =>   4
Atom  25H    basis set group =>   4
Atom  26H    basis set group =>   4
Atom  27H    basis set group =>   4
Atom  28H    basis set group =>   4
Atom  29H    basis set group =>   4
Atom  30H    basis set group =>   4
Atom  31H    basis set group =>   4
Atom  32H    basis set group =>   4
---------------------------------
AUXILIARY/C BASIS SET INFORMATION
---------------------------------
There are 4 groups of distinct atoms

 Group   1 Type N   : 17s13p12d2f contracted to 17s13p12d2f pattern {11111111111111111/1111111111111/111111111111/11}
 Group   2 Type C   : 17s13p12d2f contracted to 17s13p12d2f pattern {11111111111111111/1111111111111/111111111111/11}
 Group   3 Type O   : 17s13p12d2f contracted to 17s13p12d2f pattern {11111111111111111/1111111111111/111111111111/11}
 Group   4 Type H   : 15s6p1d contracted to 15s6p1d pattern {111111111111111/111111/1}

Atom   0N    basis set group =>   1
Atom   1C    basis set group =>   2
Atom   2C    basis set group =>   2
Atom   3O    basis set group =>   3
Atom   4C    basis set group =>   2
Atom   5C    basis set group =>   2
Atom   6C    basis set group =>   2
Atom   7C    basis set group =>   2
Atom   8N    basis set group =>   1
Atom   9H    basis set group =>   4
Atom  10H    basis set group =>   4
Atom  11H    basis set group =>   4
Atom  12H    basis set group =>   4
Atom  13C    basis set group =>   2
Atom  14N    basis set group =>   1
Atom  15H    basis set group =>   4
Atom  16O    basis set group =>   3
Atom  17H    basis set group =>   4
Atom  18C    basis set group =>   2
Atom  19H    basis set group =>   4
Atom  20H    basis set group =>   4
Atom  21H    basis set group =>   4
Atom  22C    basis set group =>   2
Atom  23H    basis set group =>   4
Atom  24H    basis set group =>   4
Atom  25H    basis set group =>   4
Atom  26H    basis set group =>   4
Atom  27H    basis set group =>   4
Atom  28H    basis set group =>   4
Atom  29H    basis set group =>   4
Atom  30H    basis set group =>   4
Atom  31H    basis set group =>   4
Atom  32H    basis set group =>   4
----------------------------------
AUXILIARY/JK BASIS SET INFORMATION
----------------------------------
There are 4 groups of distinct atoms

 Group   1 Type N   : 17s13p12d2f contracted to 17s13p12d2f pattern {11111111111111111/1111111111111/111111111111/11}
 Group   2 Type C   : 17s13p12d2f contracted to 17s13p12d2f pattern {11111111111111111/1111111111111/111111111111/11}
 Group   3 Type O   : 17s13p12d2f contracted to 17s13p12d2f pattern {11111111111111111/1111111111111/111111111111/11}
 Group   4 Type H   : 15s6p1d contracted to 15s6p1d pattern {111111111111111/111111/1}

Atom   0N    basis set group =>   1
Atom   1C    basis set group =>   2
Atom   2C    basis set group =>   2
Atom   3O    basis set group =>   3
Atom   4C    basis set group =>   2
Atom   5C    basis set group =>   2
Atom   6C    basis set group =>   2
Atom   7C    basis set group =>   2
Atom   8N    basis set group =>   1
Atom   9H    basis set group =>   4
Atom  10H    basis set group =>   4
Atom  11H    basis set group =>   4
Atom  12H    basis set group =>   4
Atom  13C    basis set group =>   2
Atom  14N    basis set group =>   1
Atom  15H    basis set group =>   4
Atom  16O    basis set group =>   3
Atom  17H    basis set group =>   4
Atom  18C    basis set group =>   2
Atom  19H    basis set group =>   4
Atom  20H    basis set group =>   4
Atom  21H    basis set group =>   4
Atom  22C    basis set group =>   2
Atom  23H    basis set group =>   4
Atom  24H    basis set group =>   4
Atom  25H    basis set group =>   4
Atom  26H    basis set group =>   4
Atom  27H    basis set group =>   4
Atom  28H    basis set group =>   4
Atom  29H    basis set group =>   4
Atom  30H    basis set group =>   4
Atom  31H    basis set group =>   4
Atom  32H    basis set group =>   4


           ************************************************************
           *        Program running with 16 parallel MPI-processes    *
           *              working on a common directory               *
           ************************************************************
------------------------------------------------------------------------------
                           ORCA GTO INTEGRAL CALCULATION
                           -- RI-GTO INTEGRALS CHOSEN --
------------------------------------------------------------------------------
------------------------------------------------------------------------------
                   ___                                                        
                  /   \      - P O W E R E D   B Y -                         
                 /     \                                                     
                 |  |  |   _    _      __       _____    __    __             
                 |  |  |  | |  | |    /  \     |  _  \  |  |  /  |          
                  \  \/   | |  | |   /    \    | | | |  |  | /  /          
                 / \  \   | |__| |  /  /\  \   | |_| |  |  |/  /          
                |  |  |   |  __  | /  /__\  \  |    /   |      \           
                |  |  |   | |  | | |   __   |  |    \   |  |\   \          
                \     /   | |  | | |  |  |  |  | |\  \  |  | \   \       
                 \___/    |_|  |_| |__|  |__|  |_| \__\ |__|  \__/        
                                                                              
                      - O R C A' S   B I G   F R I E N D -                    
                                      &                                       
                       - I N T E G R A L  F E E D E R -                       
                                                                              
 v1 FN, 2020, v2 2021                                                         
------------------------------------------------------------------------------


Reading SHARK input file epr_info.SHARKINP.tmp ... ok
----------------------
SHARK INTEGRAL PACKAGE
----------------------

Number of atoms                             ...     33
Number of basis functions                   ...    371
Number of shells                            ...    221
Maximum angular momentum                    ...      2
Integral batch strategy                     ... SHARK/LIBINT Hybrid
RI-J (if used) integral strategy            ... SPLIT-RIJ (Revised 2003 algorithm where possible)
Printlevel                                  ...      1
Contraction scheme used                     ... SEGMENTED contraction
Coulomb Range Separation                    ... NOT USED
Exchange Range Separation                   ... NOT USED
Finite Nucleus Model                        ... NOT USED
Auxiliary Coulomb fitting basis             ... AVAILABLE
   # of basis functions in Aux-J            ...   2542
   # of shells in Aux-J                     ...   1034
   Maximum angular momentum in Aux-J        ...      3
Auxiliary J/K fitting basis                 ... AVAILABLE
   # of basis functions in Aux-JK           ...   2542
   # of shells in Aux-JK                    ...   1034
   Maximum angular momentum in Aux-JK       ...      3
Auxiliary Correlation fitting basis         ... AVAILABLE
   # of basis functions in Aux-C            ...   2542
   # of shells in Aux-C                     ...   1034
   Maximum angular momentum in Aux-C        ...      3
Auxiliary 'external' fitting basis          ... NOT available
Integral threshold                          ...     1.000000e-10
Primitive cut-off                           ...     1.000000e-11
Primitive pair pre-selection threshold      ...     1.000000e-11

Calculating pre-screening integrals         ... done (  0.0 sec) Dimension = 221
Organizing shell pair data                  ... done (  0.0 sec)
Shell pair information
Total number of shell pairs                 ...     24531
Shell pairs after pre-screening             ...     15443
Total number of primitive shell pairs       ...     64184
Primitive shell pairs kept                  ...     29277
          la=0 lb=0:   7290 shell pairs
          la=1 lb=0:   5268 shell pairs
          la=1 lb=1:    903 shell pairs
          la=2 lb=0:   1399 shell pairs
          la=2 lb=1:    505 shell pairs
          la=2 lb=2:     78 shell pairs

Calculating one electron integrals          ... done (  0.0 sec)
Calculating RI/J V-Matrix + Cholesky decomp.... done (  0.3 sec)
Calculating RI/JK V-Matrix + Cholesky decomp... done (  0.3 sec)
Calculating RI/C V-Matrix + Cholesky decomp.... done (  0.3 sec)
Calculating Nuclear repulsion               ... done (  0.0 sec) ENN=    930.753911453611 Eh

SHARK setup successfully completed in   1.2 seconds

Maximum memory used throughout the entire GTOINT-calculation: 28.7 MB


           ************************************************************
           *        Program running with 16 parallel MPI-processes    *
           *              working on a common directory               *
           ************************************************************
-------------------------------------------------------------------------------
                                 ORCA SCF
-------------------------------------------------------------------------------

------------
SCF SETTINGS
------------
Hamiltonian:
 Density Functional     Method          .... DFT(GTOs)
 Exchange Functional    Exchange        .... B88
   X-Alpha parameter    XAlpha          ....  0.666667
   Becke's b parameter  XBeta           ....  0.004200
 Correlation Functional Correlation     .... LYP
 LDA part of GGA corr.  LDAOpt          .... VWN-5
 Gradients option       PostSCFGGA      .... off
 Hybrid DFT is turned on
   Fraction HF Exchange ScalHFX         ....  0.200000
   Scaling of DF-GGA-X  ScalDFX         ....  0.720000
   Scaling of DF-GGA-C  ScalDFC         ....  0.810000
   Scaling of DF-LDA-C  ScalLDAC        ....  1.000000
   Perturbative correction              ....  0.000000
   Density functional embedding theory  .... OFF
   NL short-range parameter             ....  4.800000
 RI-approximation to the Coulomb term is turned on
   Number of AuxJ basis functions       .... 2542
   RIJ-COSX (HFX calculated with COS-X)).... on


General Settings:
 Integral files         IntName         .... epr_info
 Hartree-Fock type      HFTyp           .... UHF
 Total Charge           Charge          ....    1
 Multiplicity           Mult            ....    2
 Number of Electrons    NEL             ....  109
 Basis Dimension        Dim             ....  371
 Nuclear Repulsion      ENuc            ....    930.7539114536 Eh

Convergence Acceleration:
 DIIS                   CNVDIIS         .... on
   Start iteration      DIISMaxIt       ....    12
   Startup error        DIISStart       ....  0.200000
   # of expansion vecs  DIISMaxEq       ....     5
   Bias factor          DIISBfac        ....   1.050
   Max. coefficient     DIISMaxC        ....  10.000
 Trust-Rad. Augm. Hess. CNVTRAH         .... auto
   Auto Start mean grad. ratio tolernc. ....  1.125000
   Auto Start start iteration           ....    20
   Auto Start num. interpolation iter.  ....    10
   Max. Number of Micro iterations      ....    16
   Max. Number of Macro iterations      .... Maxiter - #DIIS iter
   Number of Davidson start vectors     ....     2
   Converg. threshold I  (grad. norm)   ....   5.000e-05
   Converg. threshold II (energy diff.) ....   1.000e-06
   Grad. Scal. Fac. for Micro threshold ....   0.100
   Minimum threshold for Micro iter.    ....   0.010
   NR start threshold (gradient norm)   ....   0.001
   Initial trust radius                 ....   0.400
   Minimum AH scaling param. (alpha)    ....   1.000
   Maximum AH scaling param. (alpha)    .... 1000.000
   Orbital update algorithm             .... Taylor
   White noise on init. David. guess    .... on
   Maximum white noise                  ....   0.010
   Quad. conv. algorithm                .... NR
 SOSCF                  CNVSOSCF        .... off
 Level Shifting         CNVShift        .... on
   Level shift para.    LevelShift      ....    0.2500
   Turn off err/grad.   ShiftErr        ....    0.0010
 Zerner damping         CNVZerner       .... off
 Static damping         CNVDamp         .... on
   Fraction old density DampFac         ....    0.7000
   Max. Damping (<1)    DampMax         ....    0.9800
   Min. Damping (>=0)   DampMin         ....    0.0000
   Turn off err/grad.   DampErr         ....    0.1000
 Fernandez-Rico         CNVRico         .... off

SCF Procedure:
 Maximum # iterations   MaxIter         ....   125
 SCF integral mode      SCFMode         .... Direct
   Integral package                     .... SHARK and LIBINT hybrid scheme
 Reset frequency        DirectResetFreq ....    20
 Integral Threshold     Thresh          ....  1.000e-10 Eh
 Primitive CutOff       TCut            ....  1.000e-11 Eh

Convergence Tolerance:
 Convergence Check Mode ConvCheckMode   .... Total+1el-Energy
 Convergence forced     ConvForced      .... 0
 Energy Change          TolE            ....  1.000e-06 Eh
 1-El. energy change                    ....  1.000e-03 Eh
 DIIS Error             TolErr          ....  1.000e-06


Diagonalization of the overlap matrix:
Smallest eigenvalue                        ... 1.119e-03
Time for diagonalization                   ...    0.014 sec
Threshold for overlap eigenvalues          ... 1.000e-08
Number of eigenvalues below threshold      ... 0
Time for construction of square roots      ...    0.012 sec
Total time needed                          ...    0.028 sec

Time for model grid setup =    0.114 sec

------------------------------
INITIAL GUESS: MODEL POTENTIAL
------------------------------
Loading Hartree-Fock densities                     ... done
Calculating cut-offs                               ... done
Initializing the effective Hamiltonian             ... done
Setting up the integral package (SHARK)            ... done
Starting the Coulomb interaction                   ... done (   0.0 sec)
Reading the grid                                   ... done
Mapping shells                                     ... done
Starting the XC term evaluation                    ... done (   0.0 sec)
  promolecular density results
     # of electrons  =    109.998434936
     EX              =    -88.053218329
     EC              =     -3.686102461
     EX+EC           =    -91.739320790
Transforming the Hamiltonian                       ... done (   0.0 sec)
Diagonalizing the Hamiltonian                      ... done (   0.0 sec)
Back transforming the eigenvectors                 ... done (   0.0 sec)
Now organizing SCF variables                       ... done
                      ------------------
                      INITIAL GUESS DONE (   0.3 sec)
                      ------------------
-------------------
DFT GRID GENERATION
-------------------

General Integration Accuracy     IntAcc      ... 4.388
Radial Grid Type                 RadialGrid  ... OptM3 with GC (2021)
Angular Grid (max. ang.)         AngularGrid ... 4 (Lebedev-302)
Angular grid pruning method      GridPruning ... 4 (adaptive)
Weight generation scheme         WeightScheme... Becke
Basis function cutoff            BFCut       ... 1.0000e-10
Integration weight cutoff        WCut        ... 1.0000e-14
Angular grids for H and He will be reduced by one unit
Partially contracted basis set               ... off
Rotationally invariant grid construction     ... off

Total number of grid points                  ...   144790
Total number of batches                      ...     2278
Average number of points per batch           ...       63
Average number of grid points per atom       ...     4388
Time for grid setup =    0.585 sec

--------------------
COSX GRID GENERATION
--------------------

GRIDX 1
-------
General Integration Accuracy     IntAcc      ... 3.816
Radial Grid Type                 RadialGrid  ... OptM3 with GC (2021)
Angular Grid (max. ang.)         AngularGrid ... 1 (Lebedev-50)
Angular grid pruning method      GridPruning ... 4 (adaptive)
Weight generation scheme         WeightScheme... Becke
Basis function cutoff            BFCut       ... 1.0000e-10
Integration weight cutoff        WCut        ... 1.0000e-14
Angular grids for H and He will be reduced by one unit
Partially contracted basis set               ... on
Rotationally invariant grid construction     ... off

Total number of grid points                  ...    18486
Total number of batches                      ...      309
Average number of points per batch           ...       59
Average number of grid points per atom       ...      560
UseSFitting                                  ... on

GRIDX 2
-------
General Integration Accuracy     IntAcc      ... 4.020
Radial Grid Type                 RadialGrid  ... OptM3 with GC (2021)
Angular Grid (max. ang.)         AngularGrid ... 2 (Lebedev-110)
Angular grid pruning method      GridPruning ... 4 (adaptive)
Weight generation scheme         WeightScheme... Becke
Basis function cutoff            BFCut       ... 1.0000e-10
Integration weight cutoff        WCut        ... 1.0000e-14
Angular grids for H and He will be reduced by one unit
Partially contracted basis set               ... on
Rotationally invariant grid construction     ... off

Total number of grid points                  ...    39028
Total number of batches                      ...      626
Average number of points per batch           ...       62
Average number of grid points per atom       ...     1183
UseSFitting                                  ... on

GRIDX 3
-------
General Integration Accuracy     IntAcc      ... 4.338
Radial Grid Type                 RadialGrid  ... OptM3 with GC (2021)
Angular Grid (max. ang.)         AngularGrid ... 3 (Lebedev-194)
Angular grid pruning method      GridPruning ... 4 (adaptive)
Weight generation scheme         WeightScheme... Becke
Basis function cutoff            BFCut       ... 1.0000e-10
Integration weight cutoff        WCut        ... 1.0000e-14
Angular grids for H and He will be reduced by one unit
Partially contracted basis set               ... on
Rotationally invariant grid construction     ... off

Total number of grid points                  ...    85087
Total number of batches                      ...     1346
Average number of points per batch           ...       63
Average number of grid points per atom       ...     2578
UseSFitting                                  ... on

Time for X-Grid setup             =    0.675 sec

--------------
SCF ITERATIONS
--------------
ITER       Energy         Delta-E        Max-DP      RMS-DP      [F,P]     Damp
               ***  Starting incremental Fock matrix formation  ***
  0   -668.1150912975   0.000000000000 0.06412014  0.00089304  0.1307069 0.7000
  1   -668.3348606116  -0.219769314047 0.03706270  0.00062185  0.0506928 0.7000
                               ***Turning on DIIS***
  2   -668.4148756020  -0.080014990458 0.05388150  0.00097737  0.0181721 0.0000
  3   -668.5485090249  -0.133633422865 0.03305910  0.00045303  0.0242158 0.0000
  4   -668.5758843345  -0.027375309631 0.01191480  0.00015387  0.0071536 0.0000
  5   -668.5775481246  -0.001663790068 0.00538228  0.00005877  0.0048771 0.0000
  6   -668.5779120026  -0.000363877951 0.00320633  0.00003212  0.0005641 0.0000
               *** Restarting incremental Fock matrix formation ***
                                   *** Resetting DIIS ***
  7   -668.5779517926  -0.000039790071 0.00157366  0.00001663  0.0005850 0.0000
  8   -668.5779415527   0.000010239921 0.00106113  0.00000968  0.0009195 0.0000
  9   -668.5779607493  -0.000019196599 0.00024052  0.00000251  0.0001151 0.0000
                 **** Energy Check signals convergence ****

               *****************************************************
               *                     SUCCESS                       *
               *           SCF CONVERGED AFTER  10 CYCLES          *
               *****************************************************

Old exchange energy                            =    -17.878505736 Eh
New exchange energy                            =    -17.878500277 Eh
Exchange energy change after final integration =      0.000005459 Eh
Total energy after final integration           =   -668.577955125 Eh
Final COS-X integration done in                =     2.155 sec

----------------
TOTAL SCF ENERGY
----------------

Total Energy       :         -668.57795512 Eh          -18192.93107 eV

Components:
Nuclear Repulsion  :          930.75391145 Eh           25327.10154 eV
Electronic Energy  :        -1599.33186658 Eh          -43520.03261 eV
One Electron Energy:        -2742.22765873 Eh          -74619.80819 eV
Two Electron Energy:         1142.89579215 Eh           31099.77559 eV
Max COSX asymmetry :            0.00000156 Eh               0.00004 eV

Virial components:
Potential Energy   :        -1332.55267632 Eh          -36260.60178 eV
Kinetic Energy     :          663.97472119 Eh           18067.67071 eV
Virial Ratio       :            2.00693285


DFT components:
N(Alpha)           :       55.000057674713 electrons
N(Beta)            :       54.000055095538 electrons
N(Total)           :      109.000112770251 electrons
E(X)               :      -71.009666460888 Eh       
E(C)               :       -4.312225812283 Eh       
E(XC)              :      -75.321892273171 Eh       
DFET-embed. en.    :        0.000000000000 Eh       

---------------
SCF CONVERGENCE
---------------

  Last Energy change         ...    1.6537e-07  Tolerance :   1.0000e-06
  Last MAX-Density change    ...    0.0000e+00  Tolerance :   1.0000e-05
  Last RMS-Density change    ...    0.0000e+00  Tolerance :   1.0000e-06
  Last DIIS Error            ...    1.5975e-04  Tolerance :   1.0000e-06

             **** THE GBW FILE WAS UPDATED (epr_info.gbw) ****
             **** DENSITY epr_info.scfp WAS UPDATED ****
             **** ENERGY FILE WAS UPDATED (epr_info.en.tmp) ****
----------------------
UHF SPIN CONTAMINATION
----------------------

Warning: in a DFT calculation there is little theoretical justification to 
         calculate <S**2> as in Hartree-Fock theory. We will do it anyways
         but you should keep in mind that the values have only limited relevance

Expectation value of <S**2>     :     0.754010
Ideal value S*(S+1) for S=0.5   :     0.750000
Deviation                       :     0.004010

             **** THE GBW FILE WAS UPDATED (epr_info.gbw) ****
             **** DENSITY epr_info.scfp WAS UPDATED ****
----------------
ORBITAL ENERGIES
----------------
                 SPIN UP ORBITALS
  NO   OCC          E(Eh)            E(eV) 
   0   1.0000     -19.205797      -522.6163 
   1   1.0000     -19.185152      -522.0545 
   2   1.0000     -14.658877      -398.8883 
   3   1.0000     -14.455789      -393.3620 
   4   1.0000     -14.438241      -392.8845 
   5   1.0000     -10.438535      -284.0470 
   6   1.0000     -10.388115      -282.6750 
   7   1.0000     -10.372817      -282.2587 
   8   1.0000     -10.360957      -281.9360 
   9   1.0000     -10.332396      -281.1588 
  10   1.0000     -10.314879      -280.6821 
  11   1.0000     -10.298830      -280.2454 
  12   1.0000     -10.296733      -280.1883 
  13   1.0000     -10.263196      -279.2758 
  14   1.0000      -1.206174       -32.8217 
  15   1.0000      -1.129247       -30.7284 
  16   1.0000      -1.108235       -30.1566 
  17   1.0000      -1.013674       -27.5835 
  18   1.0000      -1.004212       -27.3260 
  19   1.0000      -0.962646       -26.1949 
  20   1.0000      -0.891616       -24.2621 
  21   1.0000      -0.846762       -23.0416 
  22   1.0000      -0.809715       -22.0335 
  23   1.0000      -0.804809       -21.9000 
  24   1.0000      -0.784718       -21.3533 
  25   1.0000      -0.783243       -21.3131 
  26   1.0000      -0.750844       -20.4315 
  27   1.0000      -0.717481       -19.5237 
  28   1.0000      -0.680286       -18.5115 
  29   1.0000      -0.678735       -18.4693 
  30   1.0000      -0.655845       -17.8464 
  31   1.0000      -0.625686       -17.0258 
  32   1.0000      -0.610342       -16.6082 
  33   1.0000      -0.593414       -16.1476 
  34   1.0000      -0.573177       -15.5969 
  35   1.0000      -0.553437       -15.0598 
  36   1.0000      -0.549393       -14.9497 
  37   1.0000      -0.541562       -14.7366 
  38   1.0000      -0.530693       -14.4409 
  39   1.0000      -0.528216       -14.3735 
  40   1.0000      -0.514533       -14.0012 
  41   1.0000      -0.496821       -13.5192 
  42   1.0000      -0.486908       -13.2494 
  43   1.0000      -0.481256       -13.0956 
  44   1.0000      -0.477490       -12.9932 
  45   1.0000      -0.471430       -12.8283 
  46   1.0000      -0.461484       -12.5576 
  47   1.0000      -0.456435       -12.4202 
  48   1.0000      -0.454801       -12.3758 
  49   1.0000      -0.426666       -11.6102 
  50   1.0000      -0.411465       -11.1965 
  51   1.0000      -0.356138        -9.6910 
  52   1.0000      -0.352116        -9.5816 
  53   1.0000      -0.336277        -9.1506 
  54   1.0000      -0.330606        -8.9962 
  55   0.0000      -0.187998        -5.1157 
  56   0.0000      -0.117039        -3.1848 
  57   0.0000      -0.106558        -2.8996 
  58   0.0000      -0.087781        -2.3886 
  59   0.0000      -0.082553        -2.2464 
  60   0.0000      -0.069165        -1.8821 
  61   0.0000      -0.066895        -1.8203 
  62   0.0000      -0.056168        -1.5284 
  63   0.0000      -0.053280        -1.4498 
  64   0.0000      -0.042577        -1.1586 
  65   0.0000      -0.039990        -1.0882 
  66   0.0000      -0.023757        -0.6465 
  67   0.0000      -0.014417        -0.3923 
  68   0.0000      -0.005517        -0.1501 
  69   0.0000      -0.003671        -0.0999 
  70   0.0000       0.015718         0.4277 
  71   0.0000       0.024592         0.6692 
  72   0.0000       0.026431         0.7192 
  73   0.0000       0.046396         1.2625 
  74   0.0000       0.048870         1.3298 
  75   0.0000       0.064999         1.7687 
  76   0.0000       0.067965         1.8494 
  77   0.0000       0.076624         2.0850 
  78   0.0000       0.083709         2.2778 
  79   0.0000       0.086001         2.3402 
  80   0.0000       0.093976         2.5572 
  81   0.0000       0.100455         2.7335 
  82   0.0000       0.107866         2.9352 
  83   0.0000       0.110756         3.0138 
  84   0.0000       0.118064         3.2127 
  85   0.0000       0.122634         3.3370 
  86   0.0000       0.124219         3.3802 
  87   0.0000       0.126969         3.4550 
  88   0.0000       0.134966         3.6726 
  89   0.0000       0.139333         3.7914 
  90   0.0000       0.154262         4.1977 
  91   0.0000       0.159654         4.3444 
  92   0.0000       0.167349         4.5538 
  93   0.0000       0.174767         4.7556 
  94   0.0000       0.177830         4.8390 
  95   0.0000       0.178164         4.8481 
  96   0.0000       0.189420         5.1544 
  97   0.0000       0.191184         5.2024 
  98   0.0000       0.199881         5.4390 
  99   0.0000       0.209906         5.7118 
 100   0.0000       0.210764         5.7352 
 101   0.0000       0.216275         5.8851 
 102   0.0000       0.217847         5.9279 
 103   0.0000       0.230391         6.2693 
 104   0.0000       0.238792         6.4979 
 105   0.0000       0.247575         6.7368 
 106   0.0000       0.257998         7.0205 
 107   0.0000       0.265216         7.2169 
 108   0.0000       0.277882         7.5616 
 109   0.0000       0.282907         7.6983 
 110   0.0000       0.289990         7.8910 
 111   0.0000       0.293759         7.9936 
 112   0.0000       0.298142         8.1128 
 113   0.0000       0.319839         8.7032 
 114   0.0000       0.326411         8.8821 
 115   0.0000       0.328535         8.9399 
 116   0.0000       0.351332         9.5602 
 117   0.0000       0.356755         9.7078 
 118   0.0000       0.361715         9.8428 
 119   0.0000       0.367323         9.9954 
 120   0.0000       0.381734        10.3875 
 121   0.0000       0.393533        10.7086 
 122   0.0000       0.397953        10.8288 
 123   0.0000       0.404293        11.0014 
 124   0.0000       0.418581        11.3902 
 125   0.0000       0.434212        11.8155 
 126   0.0000       0.439220        11.9518 
 127   0.0000       0.462255        12.5786 
 128   0.0000       0.474024        12.8988 
 129   0.0000       0.482439        13.1278 
 130   0.0000       0.493839        13.4380 
 131   0.0000       0.505649        13.7594 
 132   0.0000       0.522341        14.2136 
 133   0.0000       0.535219        14.5641 
 134   0.0000       0.543867        14.7994 
 135   0.0000       0.572470        15.5777 
 136   0.0000       0.577220        15.7070 
 137   0.0000       0.602717        16.4008 
 138   0.0000       0.622885        16.9496 
 139   0.0000       0.649482        17.6733 
 140   0.0000       0.653680        17.7875 
 141   0.0000       0.666916        18.1477 
 142   0.0000       0.685523        18.6540 
 143   0.0000       0.694415        18.8960 
 144   0.0000       0.716969        19.5097 
 145   0.0000       0.726120        19.7587 
 146   0.0000       0.735122        20.0037 
 147   0.0000       0.744167        20.2498 
 148   0.0000       0.748918        20.3791 
 149   0.0000       0.756662        20.5898 
 150   0.0000       0.762664        20.7531 
 151   0.0000       0.765013        20.8171 
 152   0.0000       0.775537        21.1034 
 153   0.0000       0.777099        21.1459 
 154   0.0000       0.790201        21.5025 
 155   0.0000       0.792102        21.5542 
 156   0.0000       0.794909        21.6306 
 157   0.0000       0.800308        21.7775 
 158   0.0000       0.806899        21.9568 
 159   0.0000       0.827122        22.5071 
 160   0.0000       0.835924        22.7467 
 161   0.0000       0.846090        23.0233 
 162   0.0000       0.856217        23.2989 
 163   0.0000       0.859795        23.3962 
 164   0.0000       0.864076        23.5127 
 165   0.0000       0.865995        23.5649 
 166   0.0000       0.888686        24.1824 
 167   0.0000       0.894111        24.3300 
 168   0.0000       0.906208        24.6592 
 169   0.0000       0.927624        25.2419 
 170   0.0000       0.939187        25.5566 
 171   0.0000       0.947097        25.7718 
 172   0.0000       0.952146        25.9092 
 173   0.0000       0.962867        26.2009 
 174   0.0000       0.981199        26.6998 
 175   0.0000       0.996932        27.1279 
 176   0.0000       1.000838        27.2342 
 177   0.0000       1.027408        27.9572 
 178   0.0000       1.050235        28.5783 
 179   0.0000       1.062576        28.9142 
 180   0.0000       1.072796        29.1923 
 181   0.0000       1.079181        29.3660 
 182   0.0000       1.091204        29.6932 
 183   0.0000       1.104785        30.0627 
 184   0.0000       1.120424        30.4883 
 185   0.0000       1.129185        30.7267 
 186   0.0000       1.132027        30.8040 
 187   0.0000       1.142161        31.0798 
 188   0.0000       1.155924        31.4543 
 189   0.0000       1.161753        31.6129 
 190   0.0000       1.185540        32.2602 
 191   0.0000       1.202805        32.7300 
 192   0.0000       1.244400        33.8619 
 193   0.0000       1.264157        34.3995 
 194   0.0000       1.270352        34.5680 
 195   0.0000       1.278397        34.7869 
 196   0.0000       1.282990        34.9119 
 197   0.0000       1.325798        36.0768 
 198   0.0000       1.334385        36.3105 
 199   0.0000       1.337803        36.4035 
 200   0.0000       1.345506        36.6131 
 201   0.0000       1.364145        37.1203 
 202   0.0000       1.376989        37.4698 
 203   0.0000       1.393815        37.9276 
 204   0.0000       1.406358        38.2689 
 205   0.0000       1.410783        38.3893 
 206   0.0000       1.417200        38.5640 
 207   0.0000       1.430374        38.9225 
 208   0.0000       1.437138        39.1065 
 209   0.0000       1.450692        39.4753 
 210   0.0000       1.464709        39.8568 
 211   0.0000       1.477702        40.2103 
 212   0.0000       1.482477        40.3402 
 213   0.0000       1.490558        40.5601 
 214   0.0000       1.502859        40.8949 
 215   0.0000       1.511146        41.1204 
 216   0.0000       1.514293        41.2060 
 217   0.0000       1.528659        41.5969 
 218   0.0000       1.543398        41.9980 
 219   0.0000       1.551380        42.2152 
 220   0.0000       1.561243        42.4836 
 221   0.0000       1.566947        42.6388 
 222   0.0000       1.590748        43.2864 
 223   0.0000       1.597365        43.4665 
 224   0.0000       1.602293        43.6006 
 225   0.0000       1.605439        43.6862 
 226   0.0000       1.614536        43.9338 
 227   0.0000       1.624391        44.2019 
 228   0.0000       1.636756        44.5384 
 229   0.0000       1.644663        44.7536 
 230   0.0000       1.656531        45.0765 
 231   0.0000       1.676333        45.6154 
 232   0.0000       1.684259        45.8310 
 233   0.0000       1.691437        46.0263 
 234   0.0000       1.707568        46.4653 
 235   0.0000       1.713968        46.6394 
 236   0.0000       1.724202        46.9179 
 237   0.0000       1.745989        47.5108 
 238   0.0000       1.760056        47.8936 
 239   0.0000       1.766414        48.0666 
 240   0.0000       1.797359        48.9086 
 241   0.0000       1.800779        49.0017 
 242   0.0000       1.823512        49.6203 
 243   0.0000       1.851371        50.3784 
 244   0.0000       1.866481        50.7895 
 245   0.0000       1.874180        50.9990 
 246   0.0000       1.899639        51.6918 
 247   0.0000       1.923945        52.3532 
 248   0.0000       1.943772        52.8927 
 249   0.0000       1.947315        52.9891 
 250   0.0000       1.966974        53.5241 
 251   0.0000       1.973195        53.6934 
 252   0.0000       1.997347        54.3506 
 253   0.0000       2.006500        54.5996 
 254   0.0000       2.050323        55.7921 
 255   0.0000       2.065268        56.1988 
 256   0.0000       2.097444        57.0744 
 257   0.0000       2.099145        57.1206 
 258   0.0000       2.104120        57.2560 
 259   0.0000       2.111646        57.4608 
 260   0.0000       2.158507        58.7360 
 261   0.0000       2.167001        58.9671 
 262   0.0000       2.170311        59.0572 
 263   0.0000       2.193888        59.6987 
 264   0.0000       2.197735        59.8034 
 265   0.0000       2.210844        60.1601 
 266   0.0000       2.223734        60.5109 
 267   0.0000       2.236344        60.8540 
 268   0.0000       2.256869        61.4125 
 269   0.0000       2.275295        61.9139 
 270   0.0000       2.278212        61.9933 
 271   0.0000       2.296228        62.4835 
 272   0.0000       2.315140        62.9982 
 273   0.0000       2.317682        63.0673 
 274   0.0000       2.329039        63.3764 
 275   0.0000       2.343159        63.7606 
 276   0.0000       2.349329        63.9285 
 277   0.0000       2.363919        64.3255 
 278   0.0000       2.366091        64.3846 
 279   0.0000       2.380595        64.7793 
 280   0.0000       2.415735        65.7355 
 281   0.0000       2.420222        65.8576 
 282   0.0000       2.429732        66.1164 
 283   0.0000       2.449476        66.6536 
 284   0.0000       2.458802        66.9074 
 285   0.0000       2.489449        67.7414 
 286   0.0000       2.509133        68.2770 
 287   0.0000       2.532653        68.9170 
 288   0.0000       2.537324        69.0441 
 289   0.0000       2.559808        69.6559 
 290   0.0000       2.611367        71.0589 
 291   0.0000       2.632994        71.6474 
 292   0.0000       2.637556        71.7715 
 293   0.0000       2.663904        72.4885 
 294   0.0000       2.676371        72.8277 
 295   0.0000       2.697639        73.4065 
 296   0.0000       2.735219        74.4291 
 297   0.0000       2.903747        79.0150 
 298   0.0000       2.944054        80.1118 
 299   0.0000       3.011213        81.9393 
 300   0.0000       3.025136        82.3181 
 301   0.0000       3.271916        89.0334 
 302   0.0000       3.335599        90.7663 
 303   0.0000       3.350999        91.1853 
 304   0.0000       3.354346        91.2764 
 305   0.0000       4.609403       125.4282 
 306   0.0000       4.655018       126.6695 
 307   0.0000       4.848472       131.9336 
 308   0.0000       4.874872       132.6520 
 309   0.0000       4.903591       133.4335 
 310   0.0000       4.914503       133.7304 
 311   0.0000       4.923461       133.9742 
 312   0.0000       4.939152       134.4012 
 313   0.0000       4.941820       134.4738 
 314   0.0000       4.950116       134.6995 
 315   0.0000       4.966896       135.1561 
 316   0.0000       4.993807       135.8884 
 317   0.0000       5.036562       137.0518 
 318   0.0000       5.065271       137.8330 
 319   0.0000       5.112629       139.1217 
 320   0.0000       5.133191       139.6812 
 321   0.0000       5.168768       140.6493 
 322   0.0000       5.186554       141.1333 
 323   0.0000       5.210526       141.7856 
 324   0.0000       5.227873       142.2577 
 325   0.0000       5.262495       143.1998 
 326   0.0000       5.284603       143.8014 
 327   0.0000       5.306822       144.4060 
 328   0.0000       5.485393       149.2651 
 329   0.0000       5.531123       150.5095 
 330   0.0000       5.604319       152.5013 
 331   0.0000       5.644668       153.5992 
 332   0.0000       5.740004       156.1934 
 333   0.0000       7.015362       190.8977 
 334   0.0000       7.224085       196.5773 
 335   0.0000       7.230791       196.7598 
 336   0.0000       8.995520       244.7805 
 337   0.0000       9.030283       245.7265 
 338   0.0000      29.427872       800.7731 
 339   0.0000      29.542437       803.8906 
 340   0.0000      29.588163       805.1348 
 341   0.0000      29.726492       808.8990 
 342   0.0000      29.830515       811.7296 
 343   0.0000      29.930331       814.4457 
 344   0.0000      29.994252       816.1851 
 345   0.0000      30.030091       817.1603 
 346   0.0000      30.157356       820.6234 
 347   0.0000      36.208190       985.2750 
 348   0.0000      36.249150       986.3895 
 349   0.0000      36.464434       992.2477 
 350   0.0000      36.526835       993.9457 
 351   0.0000      36.527814       993.9724 
 352   0.0000      36.534470       994.1535 
 353   0.0000      36.542071       994.3603 
 354   0.0000      36.559915       994.8459 
 355   0.0000      36.568941       995.0915 
 356   0.0000      36.590134       995.6682 
 357   0.0000      36.628870       996.7222 
 358   0.0000      36.642428       997.0911 
 359   0.0000      36.642576       997.0952 
 360   0.0000      36.704886       998.7907 
 361   0.0000      36.715403       999.0769 
 362   0.0000      36.759883      1000.2873 
 363   0.0000      36.810519      1001.6652 
 364   0.0000      36.834623      1002.3211 
 365   0.0000      36.847472      1002.6707 
 366   0.0000      40.944702      1114.1620 
 367   0.0000      41.160585      1120.0364 
 368   0.0000      41.174181      1120.4064 
 369   0.0000      53.531736      1456.6726 
 370   0.0000      53.564078      1457.5527 

                 SPIN DOWN ORBITALS
  NO   OCC          E(Eh)            E(eV) 
   0   1.0000     -19.205795      -522.6162 
   1   1.0000     -19.185149      -522.0545 
   2   1.0000     -14.659569      -398.9071 
   3   1.0000     -14.455789      -393.3620 
   4   1.0000     -14.438240      -392.8845 
   5   1.0000     -10.423645      -283.6418 
   6   1.0000     -10.388112      -282.6749 
   7   1.0000     -10.372817      -282.2587 
   8   1.0000     -10.361589      -281.9532 
   9   1.0000     -10.332403      -281.1590 
  10   1.0000     -10.314825      -280.6807 
  11   1.0000     -10.298830      -280.2454 
  12   1.0000     -10.296737      -280.1884 
  13   1.0000     -10.263195      -279.2757 
  14   1.0000      -1.202049       -32.7094 
  15   1.0000      -1.129243       -30.7283 
  16   1.0000      -1.108231       -30.1565 
  17   1.0000      -1.013673       -27.5834 
  18   1.0000      -1.004184       -27.3252 
  19   1.0000      -0.951207       -25.8837 
  20   1.0000      -0.884689       -24.0736 
  21   1.0000      -0.839166       -22.8349 
  22   1.0000      -0.807067       -21.9614 
  23   1.0000      -0.802926       -21.8487 
  24   1.0000      -0.782913       -21.3042 
  25   1.0000      -0.776775       -21.1371 
  26   1.0000      -0.749305       -20.3896 
  27   1.0000      -0.716170       -19.4880 
  28   1.0000      -0.678763       -18.4701 
  29   1.0000      -0.672560       -18.3013 
  30   1.0000      -0.653938       -17.7946 
  31   1.0000      -0.624123       -16.9833 
  32   1.0000      -0.601466       -16.3667 
  33   1.0000      -0.587889       -15.9973 
  34   1.0000      -0.572367       -15.5749 
  35   1.0000      -0.552914       -15.0456 
  36   1.0000      -0.547312       -14.8931 
  37   1.0000      -0.539908       -14.6916 
  38   1.0000      -0.529602       -14.4112 
  39   1.0000      -0.525401       -14.2969 
  40   1.0000      -0.513745       -13.9797 
  41   1.0000      -0.495970       -13.4960 
  42   1.0000      -0.486520       -13.2389 
  43   1.0000      -0.480722       -13.0811 
  44   1.0000      -0.477446       -12.9920 
  45   1.0000      -0.471156       -12.8208 
  46   1.0000      -0.460970       -12.5436 
  47   1.0000      -0.455928       -12.4064 
  48   1.0000      -0.454620       -12.3708 
  49   1.0000      -0.426504       -11.6058 
  50   1.0000      -0.356153        -9.6914 
  51   1.0000      -0.352117        -9.5816 
  52   1.0000      -0.336249        -9.1498 
  53   1.0000      -0.330594        -8.9959 
  54   0.0000      -0.257682        -7.0119 
  55   0.0000      -0.186373        -5.0715 
  56   0.0000      -0.115454        -3.1417 
  57   0.0000      -0.102596        -2.7918 
  58   0.0000      -0.082438        -2.2433 
  59   0.0000      -0.082242        -2.2379 
  60   0.0000      -0.068219        -1.8563 
  61   0.0000      -0.066081        -1.7982 
  62   0.0000      -0.054589        -1.4854 
  63   0.0000      -0.052387        -1.4255 
  64   0.0000      -0.041842        -1.1386 
  65   0.0000      -0.035161        -0.9568 
  66   0.0000      -0.020616        -0.5610 
  67   0.0000      -0.009978        -0.2715 
  68   0.0000      -0.004898        -0.1333 
  69   0.0000      -0.003450        -0.0939 
  70   0.0000       0.020165         0.5487 
  71   0.0000       0.026655         0.7253 
  72   0.0000       0.028779         0.7831 
  73   0.0000       0.047616         1.2957 
  74   0.0000       0.052816         1.4372 
  75   0.0000       0.066773         1.8170 
  76   0.0000       0.068241         1.8569 
  77   0.0000       0.078518         2.1366 
  78   0.0000       0.084801         2.3075 
  79   0.0000       0.088485         2.4078 
  80   0.0000       0.095336         2.5942 
  81   0.0000       0.105851         2.8804 
  82   0.0000       0.108588         2.9548 
  83   0.0000       0.112405         3.0587 
  84   0.0000       0.121445         3.3047 
  85   0.0000       0.124347         3.3836 
  86   0.0000       0.126413         3.4399 
  87   0.0000       0.128860         3.5064 
  88   0.0000       0.136174         3.7055 
  89   0.0000       0.154580         4.2063 
  90   0.0000       0.157444         4.2843 
  91   0.0000       0.160183         4.3588 
  92   0.0000       0.172734         4.7003 
  93   0.0000       0.176102         4.7920 
  94   0.0000       0.178405         4.8547 
  95   0.0000       0.185783         5.0554 
  96   0.0000       0.190936         5.1956 
  97   0.0000       0.194684         5.2976 
  98   0.0000       0.200612         5.4589 
  99   0.0000       0.210723         5.7341 
 100   0.0000       0.214560         5.8385 
 101   0.0000       0.217674         5.9232 
 102   0.0000       0.219031         5.9601 
 103   0.0000       0.231079         6.2880 
 104   0.0000       0.239980         6.5302 
 105   0.0000       0.248734         6.7684 
 106   0.0000       0.259566         7.0632 
 107   0.0000       0.266653         7.2560 
 108   0.0000       0.278131         7.5683 
 109   0.0000       0.284154         7.7322 
 110   0.0000       0.291169         7.9231 
 111   0.0000       0.295433         8.0391 
 112   0.0000       0.302116         8.2210 
 113   0.0000       0.321387         8.7454 
 114   0.0000       0.327239         8.9046 
 115   0.0000       0.329831         8.9752 
 116   0.0000       0.352296         9.5865 
 117   0.0000       0.358195         9.7470 
 118   0.0000       0.364989         9.9319 
 119   0.0000       0.367728        10.0064 
 120   0.0000       0.382329        10.4037 
 121   0.0000       0.395059        10.7501 
 122   0.0000       0.398776        10.8512 
 123   0.0000       0.407061        11.0767 
 124   0.0000       0.419947        11.4273 
 125   0.0000       0.435372        11.8471 
 126   0.0000       0.440364        11.9829 
 127   0.0000       0.463232        12.6052 
 128   0.0000       0.474426        12.9098 
 129   0.0000       0.482633        13.1331 
 130   0.0000       0.494103        13.4452 
 131   0.0000       0.506890        13.7932 
 132   0.0000       0.527585        14.3563 
 133   0.0000       0.538433        14.6515 
 134   0.0000       0.545169        14.8348 
 135   0.0000       0.573308        15.6005 
 136   0.0000       0.577651        15.7187 
 137   0.0000       0.609192        16.5770 
 138   0.0000       0.623282        16.9604 
 139   0.0000       0.652989        17.7687 
 140   0.0000       0.658489        17.9184 
 141   0.0000       0.668703        18.1963 
 142   0.0000       0.690008        18.7761 
 143   0.0000       0.696749        18.9595 
 144   0.0000       0.719672        19.5833 
 145   0.0000       0.727502        19.7963 
 146   0.0000       0.740839        20.1593 
 147   0.0000       0.745829        20.2950 
 148   0.0000       0.752261        20.4701 
 149   0.0000       0.758414        20.6375 
 150   0.0000       0.764846        20.8125 
 151   0.0000       0.767751        20.8916 
 152   0.0000       0.776503        21.1297 
 153   0.0000       0.781257        21.2591 
 154   0.0000       0.793438        21.5905 
 155   0.0000       0.795061        21.6347 
 156   0.0000       0.796839        21.6831 
 157   0.0000       0.802069        21.8254 
 158   0.0000       0.807601        21.9760 
 159   0.0000       0.827873        22.5276 
 160   0.0000       0.837118        22.7791 
 161   0.0000       0.846351        23.0304 
 162   0.0000       0.856744        23.3132 
 163   0.0000       0.861658        23.4469 
 164   0.0000       0.864467        23.5233 
 165   0.0000       0.866364        23.5750 
 166   0.0000       0.890222        24.2242 
 167   0.0000       0.894759        24.3476 
 168   0.0000       0.907818        24.7030 
 169   0.0000       0.927954        25.2509 
 170   0.0000       0.941608        25.6225 
 171   0.0000       0.947604        25.7856 
 172   0.0000       0.954012        25.9600 
 173   0.0000       0.963151        26.2087 
 174   0.0000       0.982648        26.7392 
 175   0.0000       0.997916        27.1547 
 176   0.0000       1.005180        27.3523 
 177   0.0000       1.030258        28.0348 
 178   0.0000       1.051664        28.6172 
 179   0.0000       1.063824        28.9481 
 180   0.0000       1.074146        29.2290 
 181   0.0000       1.080168        29.3929 
 182   0.0000       1.091517        29.7017 
 183   0.0000       1.108742        30.1704 
 184   0.0000       1.122657        30.5491 
 185   0.0000       1.134211        30.8634 
 186   0.0000       1.144256        31.1368 
 187   0.0000       1.147735        31.2315 
 188   0.0000       1.158961        31.5369 
 189   0.0000       1.172876        31.9156 
 190   0.0000       1.186866        32.2963 
 191   0.0000       1.206038        32.8180 
 192   0.0000       1.245165        33.8827 
 193   0.0000       1.267267        34.4841 
 194   0.0000       1.272514        34.6269 
 195   0.0000       1.282252        34.8918 
 196   0.0000       1.284359        34.9492 
 197   0.0000       1.326083        36.0846 
 198   0.0000       1.334566        36.3154 
 199   0.0000       1.337882        36.4056 
 200   0.0000       1.351208        36.7682 
 201   0.0000       1.367591        37.2141 
 202   0.0000       1.378507        37.5111 
 203   0.0000       1.405800        38.2538 
 204   0.0000       1.410033        38.3689 
 205   0.0000       1.417166        38.5630 
 206   0.0000       1.422395        38.7053 
 207   0.0000       1.431616        38.9563 
 208   0.0000       1.440535        39.1989 
 209   0.0000       1.450950        39.4824 
 210   0.0000       1.465622        39.8816 
 211   0.0000       1.479008        40.2459 
 212   0.0000       1.484546        40.3966 
 213   0.0000       1.491813        40.5943 
 214   0.0000       1.505671        40.9714 
 215   0.0000       1.515455        41.2376 
 216   0.0000       1.517220        41.2856 
 217   0.0000       1.529566        41.6216 
 218   0.0000       1.545007        42.0418 
 219   0.0000       1.555502        42.3274 
 220   0.0000       1.561694        42.4958 
 221   0.0000       1.572668        42.7945 
 222   0.0000       1.593550        43.3627 
 223   0.0000       1.599282        43.5187 
 224   0.0000       1.606052        43.7029 
 225   0.0000       1.609399        43.7940 
 226   0.0000       1.616074        43.9756 
 227   0.0000       1.627834        44.2956 
 228   0.0000       1.638736        44.5923 
 229   0.0000       1.645851        44.7859 
 230   0.0000       1.657183        45.0943 
 231   0.0000       1.678409        45.6718 
 232   0.0000       1.684958        45.8500 
 233   0.0000       1.693748        46.0892 
 234   0.0000       1.708118        46.4802 
 235   0.0000       1.714494        46.6538 
 236   0.0000       1.725253        46.9465 
 237   0.0000       1.746290        47.5190 
 238   0.0000       1.761965        47.9455 
 239   0.0000       1.767613        48.0992 
 240   0.0000       1.799058        48.9549 
 241   0.0000       1.802271        49.0423 
 242   0.0000       1.824622        49.6505 
 243   0.0000       1.857597        50.5478 
 244   0.0000       1.868742        50.8510 
 245   0.0000       1.879084        51.1325 
 246   0.0000       1.900154        51.7058 
 247   0.0000       1.927745        52.4566 
 248   0.0000       1.945308        52.9345 
 249   0.0000       1.947578        52.9963 
 250   0.0000       1.970009        53.6067 
 251   0.0000       1.973512        53.7020 
 252   0.0000       1.999150        54.3996 
 253   0.0000       2.006778        54.6072 
 254   0.0000       2.051700        55.8296 
 255   0.0000       2.067172        56.2506 
 256   0.0000       2.098205        57.0951 
 257   0.0000       2.102313        57.2068 
 258   0.0000       2.104362        57.2626 
 259   0.0000       2.114085        57.5272 
 260   0.0000       2.158692        58.7410 
 261   0.0000       2.168936        59.0198 
 262   0.0000       2.173717        59.1498 
 263   0.0000       2.195431        59.7407 
 264   0.0000       2.197821        59.8057 
 265   0.0000       2.211694        60.1833 
 266   0.0000       2.225601        60.5617 
 267   0.0000       2.239142        60.9302 
 268   0.0000       2.257323        61.4249 
 269   0.0000       2.275857        61.9292 
 270   0.0000       2.281206        62.0748 
 271   0.0000       2.298855        62.5550 
 272   0.0000       2.316409        63.0327 
 273   0.0000       2.317845        63.0718 
 274   0.0000       2.331615        63.4465 
 275   0.0000       2.343435        63.7681 
 276   0.0000       2.350839        63.9696 
 277   0.0000       2.364334        64.3368 
 278   0.0000       2.368068        64.4384 
 279   0.0000       2.382017        64.8180 
 280   0.0000       2.416061        65.7444 
 281   0.0000       2.422417        65.9173 
 282   0.0000       2.429910        66.1212 
 283   0.0000       2.450298        66.6760 
 284   0.0000       2.459667        66.9309 
 285   0.0000       2.489688        67.7479 
 286   0.0000       2.511040        68.3289 
 287   0.0000       2.533143        68.9303 
 288   0.0000       2.539774        69.1108 
 289   0.0000       2.559966        69.6602 
 290   0.0000       2.611934        71.0743 
 291   0.0000       2.633529        71.6620 
 292   0.0000       2.640227        71.8442 
 293   0.0000       2.663982        72.4906 
 294   0.0000       2.676388        72.8282 
 295   0.0000       2.697660        73.4071 
 296   0.0000       2.735241        74.4297 
 297   0.0000       2.903751        79.0151 
 298   0.0000       2.944064        80.1121 
 299   0.0000       3.011216        81.9394 
 300   0.0000       3.025137        82.3182 
 301   0.0000       3.271921        89.0335 
 302   0.0000       3.335605        90.7664 
 303   0.0000       3.351004        91.1855 
 304   0.0000       3.354351        91.2765 
 305   0.0000       4.618259       125.6692 
 306   0.0000       4.657822       126.7458 
 307   0.0000       4.860934       132.2727 
 308   0.0000       4.883482       132.8863 
 309   0.0000       4.904061       133.4463 
 310   0.0000       4.914607       133.7333 
 311   0.0000       4.930126       134.1555 
 312   0.0000       4.939734       134.4170 
 313   0.0000       4.941767       134.4723 
 314   0.0000       4.949881       134.6931 
 315   0.0000       4.968755       135.2067 
 316   0.0000       4.995149       135.9249 
 317   0.0000       5.038260       137.0980 
 318   0.0000       5.066203       137.8584 
 319   0.0000       5.121253       139.3564 
 320   0.0000       5.134833       139.7259 
 321   0.0000       5.168831       140.6511 
 322   0.0000       5.187817       141.1677 
 323   0.0000       5.210884       141.7954 
 324   0.0000       5.230144       142.3194 
 325   0.0000       5.265036       143.2689 
 326   0.0000       5.284698       143.8039 
 327   0.0000       5.311847       144.5427 
 328   0.0000       5.488325       149.3449 
 329   0.0000       5.532341       150.5427 
 330   0.0000       5.605665       152.5379 
 331   0.0000       5.644942       153.6067 
 332   0.0000       5.740548       156.2083 
 333   0.0000       7.014912       190.8855 
 334   0.0000       7.224085       196.5773 
 335   0.0000       7.230792       196.7598 
 336   0.0000       8.995525       244.7807 
 337   0.0000       9.030288       245.7266 
 338   0.0000      29.438723       801.0684 
 339   0.0000      29.543547       803.9208 
 340   0.0000      29.593444       805.2786 
 341   0.0000      29.728731       808.9599 
 342   0.0000      29.830804       811.7374 
 343   0.0000      29.931117       814.4671 
 344   0.0000      29.994380       816.1886 
 345   0.0000      30.030395       817.1686 
 346   0.0000      30.157513       820.6276 
 347   0.0000      36.223304       985.6862 
 348   0.0000      36.253879       986.5182 
 349   0.0000      36.484055       992.7816 
 350   0.0000      36.522551       993.8291 
 351   0.0000      36.526967       993.9493 
 352   0.0000      36.534480       994.1537 
 353   0.0000      36.542223       994.3644 
 354   0.0000      36.559973       994.8474 
 355   0.0000      36.569777       995.1142 
 356   0.0000      36.590000       995.6645 
 357   0.0000      36.628899       996.7230 
 358   0.0000      36.642729       997.0994 
 359   0.0000      36.651989       997.3513 
 360   0.0000      36.713446       999.0236 
 361   0.0000      36.717457       999.1328 
 362   0.0000      36.763116      1000.3752 
 363   0.0000      36.810654      1001.6688 
 364   0.0000      36.834891      1002.3283 
 365   0.0000      36.847505      1002.6716 
 366   0.0000      40.943930      1114.1410 
 367   0.0000      41.160585      1120.0365 
 368   0.0000      41.174181      1120.4064 
 369   0.0000      53.531739      1456.6727 
 370   0.0000      53.564081      1457.5527 

                    ********************************
                    * MULLIKEN POPULATION ANALYSIS *
                    ********************************

--------------------------------------------
MULLIKEN ATOMIC CHARGES AND SPIN POPULATIONS
--------------------------------------------
   0 N :   -0.136928    0.000065
   1 C :   -0.108066   -0.000147
   2 C :    0.083350    0.000083
   3 O :   -0.326944    0.000085
   4 C :   -0.268855   -0.001251
   5 C :   -0.280050    0.005946
   6 C :   -0.252404   -0.056723
   7 C :   -0.133154    0.988169
   8 N :   -0.349942   -0.036360
   9 H :    0.215922   -0.039991
  10 H :    0.338700    0.003775
  11 H :    0.335276    0.037905
  12 H :    0.258805   -0.000004
  13 C :    0.169936   -0.000012
  14 N :   -0.106084    0.000003
  15 H :    0.237664   -0.000006
  16 O :   -0.316708    0.000087
  17 H :    0.335474    0.009834
  18 C :   -0.449431    0.000000
  19 H :    0.180764   -0.000002
  20 H :    0.165265    0.000001
  21 H :    0.199643   -0.000000
  22 C :   -0.543407    0.000028
  23 H :    0.184959    0.000001
  24 H :    0.199709   -0.000003
  25 H :    0.150762   -0.000002
  26 H :    0.159565    0.000041
  27 H :    0.146649    0.000491
  28 H :    0.183584    0.000319
  29 H :    0.183233   -0.000888
  30 H :    0.176594   -0.000615
  31 H :    0.178517    0.030487
  32 H :    0.187603    0.058683
Sum of atomic charges         :    1.0000000
Sum of atomic spin populations:    1.0000000

-----------------------------------------------------
MULLIKEN REDUCED ORBITAL CHARGES AND SPIN POPULATIONS
-----------------------------------------------------
CHARGE
  0 N s       :     3.372846  s :     3.372846
      pz      :     1.097472  p :     3.730773
[...]

Forming final perturbed densities           ... done
Transforming perturbed density to AO basis  ... done

 Raw HFC matrix (all values in MHz): 
 -----------------------------------
                -5.1155              -0.0070               0.0061
                -0.0090               2.3794              -4.0451
                 0.0077              -4.0444              -2.2918

 A(FC)          -1.6770              -1.6770              -1.6770
 A(SD)          -2.9504               6.3890              -3.4387
 A(ORB+DIA)      0.0005               0.0025               0.0001    A(PC) =   0.0011
 A(ORB)          0.0003               0.0020              -0.0001    A(PC) =   0.0007
 A(DIA)          0.0002               0.0005               0.0003    A(PC) =   0.0003
             ----------           ----------           ----------
 A(Tot)         -4.6268               4.7145              -5.1155    A(iso)=   -1.6760
 Orientation: 
  X           0.0036333           -0.0009316           -0.9999930
  Y           0.4999899            0.8660306            0.0010098
  Z           0.8660236           -0.4999901            0.0036124

Notes:  (1) The A matrix conforms to the "SAI" spin Hamiltonian convention.
        (2) Tensor is right-handed.

 -----------------------------------------------------------
 Nucleus  30H : A:ISTP=    1 I=  0.5 P=533.5514 MHz/au**3
                Q:ISTP=    2 I=  1.0 Q=  0.0029 barn     
 -----------------------------------------------------------
 Solving for nuclear perturbation:
Forming RHS of the CP-SCF equations         ... 
Calc. nucleus orbit integrals (SHARK)       ... done

------------------------------------------------------------------------------
                           ORCA CP-SCF CALCULATION
------------------------------------------------------------------------------

Input orbitals are from        ... epr_info.gbw
Input Perturbation             ... epr_info.pin.tmp
Wavefunction output            ... epr_info.pout.tmp
Perturbation mode              ... Imaginary perturbation
Solver                         ... POPLE
Max. number of iterations      ... 64
Convergence tolerance          ... 1.000e-03
Integral handling              ... Direct
DFT GridXC                     ... 1
COSX GridX                     ... 1
COSX IntAccX                   ... 3.067
COSX Algorithm                 ... Auto
Number of perturbations        ... 3
Number of operators            ... 2
Orbital ranges used for CP-SCF:
 Operator 0:  Orbitals   0... 54  to  55...370
 Operator 1:  Orbitals   0... 53  to  54...370
Variables per perturbation     ... 34498
DFT calculation                         ... on
XC functional terms                     ... off
Hybrid DFT                              ... on
   Exchange mixing (SCF)                ...  0.200
   Exchange mixing (CP-SCF)             ...  0.200
   GGA exch. scaling(SCF)               ...  0.720
   GGA exch. scaling (CP-SCF)           ...  0.720
   GGA corr. scaling (SCF)              ...  0.810
   GGA corr. scaling (CP-SCF)           ...  0.810

CP-SCF GRID
-----------

General Integration Accuracy     IntAcc      ... 3.467
Radial Grid Type                 RadialGrid  ... OptM3 with GC (2021)
Angular Grid (max. ang.)         AngularGrid ... 1 (Lebedev-50)
Angular grid pruning method      GridPruning ... 4 (adaptive)
Weight generation scheme         WeightScheme... Becke
Basis function cutoff            BFCut       ... 1.0000e-10
Integration weight cutoff        WCut        ... 1.0000e-14
Angular grids for H and He will be reduced by one unit
Partially contracted basis set               ... off
Rotationally invariant grid construction     ... off

Total number of grid points                  ...    20349
Total number of batches                      ...      333
Average number of points per batch           ...       61
Average number of grid points per atom       ...      617

CP-SCF GRIDX
------------

General Integration Accuracy     IntAcc      ... 3.067
Radial Grid Type                 RadialGrid  ... OptM3 with GC (2021)
Angular Grid (max. ang.)         AngularGrid ... 1 (Lebedev-50)
Angular grid pruning method      GridPruning ... 4 (adaptive)
Weight generation scheme         WeightScheme... Becke
Basis function cutoff            BFCut       ... 1.0000e-10
Integration weight cutoff        WCut        ... 1.0000e-14
Angular grids for H and He will be reduced by one unit
Partially contracted basis set               ... on
Rotationally invariant grid construction     ... off

Total number of grid points                  ...     9609
Total number of batches                      ...      172
Average number of points per batch           ...       55
Average number of grid points per atom       ...      291

Memory available               ... 921.7 MB
Memory needed per perturbation ...   8.2 MB
Perturbations treated per batch... 3
Number of batches              ... 1
     CP-SCF ITERATION   0:   4.1877e-02 (   0.5 sec   0/  3 done)
     CP-SCF ITERATION   1:   1.0515e-03 (   0.5 sec   2/  3 done)
     CP-SCF ITERATION   2:   1.0783e-04 (   0.3 sec   3/  3 done)
                    *** THE CP-SCF HAS CONVERGED ***

Forming final perturbed densities           ... done
Transforming perturbed density to AO basis  ... done

 Raw HFC matrix (all values in MHz): 
 -----------------------------------
                -2.8619               3.3752              -0.7990
                 3.3754               1.9068              -1.5638
                -0.7998              -1.5651              -3.9445

 A(FC)          -1.6347              -1.6347              -1.6347
 A(SD)           5.6726              -2.6963              -2.9763
 A(ORB+DIA)      0.0036               0.0004               0.0007    A(PC) =   0.0015
 A(ORB)          0.0030               0.0001               0.0002    A(PC) =   0.0011
 A(DIA)          0.0005               0.0003               0.0004    A(PC) =   0.0004
             ----------           ----------           ----------
 A(Tot)          4.0415              -4.3307              -4.6104    A(iso)=   -1.6332
 Orientation: 
  X           0.4489580            0.1287176            0.8842333
  Y           0.8673575            0.1750752           -0.4658752
  Z          -0.2147737            0.9761047           -0.0330427

Notes:  (1) The A matrix conforms to the "SAI" spin Hamiltonian convention.
        (2) Tensor is right-handed.

 -----------------------------------------------------------
 Nucleus  31H : A:ISTP=    1 I=  0.5 P=533.5514 MHz/au**3
                Q:ISTP=    2 I=  1.0 Q=  0.0029 barn     
 -----------------------------------------------------------
 Solving for nuclear perturbation:
Forming RHS of the CP-SCF equations         ... 
Calc. nucleus orbit integrals (SHARK)       ... done

------------------------------------------------------------------------------
                           ORCA CP-SCF CALCULATION
------------------------------------------------------------------------------

Input orbitals are from        ... epr_info.gbw
Input Perturbation             ... epr_info.pin.tmp
Wavefunction output            ... epr_info.pout.tmp
Perturbation mode              ... Imaginary perturbation
Solver                         ... POPLE
Max. number of iterations      ... 64
Convergence tolerance          ... 1.000e-03
Integral handling              ... Direct
DFT GridXC                     ... 1
COSX GridX                     ... 1
COSX IntAccX                   ... 3.067
COSX Algorithm                 ... Auto
Number of perturbations        ... 3
Number of operators            ... 2
Orbital ranges used for CP-SCF:
 Operator 0:  Orbitals   0... 54  to  55...370
 Operator 1:  Orbitals   0... 53  to  54...370
Variables per perturbation     ... 34498
DFT calculation                         ... on
XC functional terms                     ... off
Hybrid DFT                              ... on
   Exchange mixing (SCF)                ...  0.200
   Exchange mixing (CP-SCF)             ...  0.200
   GGA exch. scaling(SCF)               ...  0.720
   GGA exch. scaling (CP-SCF)           ...  0.720
   GGA corr. scaling (SCF)              ...  0.810
   GGA corr. scaling (CP-SCF)           ...  0.810

CP-SCF GRID
-----------

General Integration Accuracy     IntAcc      ... 3.467
Radial Grid Type                 RadialGrid  ... OptM3 with GC (2021)
Angular Grid (max. ang.)         AngularGrid ... 1 (Lebedev-50)
Angular grid pruning method      GridPruning ... 4 (adaptive)
Weight generation scheme         WeightScheme... Becke
Basis function cutoff            BFCut       ... 1.0000e-10
Integration weight cutoff        WCut        ... 1.0000e-14
Angular grids for H and He will be reduced by one unit
Partially contracted basis set               ... off
Rotationally invariant grid construction     ... off

Total number of grid points                  ...    20349
Total number of batches                      ...      333
Average number of points per batch           ...       61
Average number of grid points per atom       ...      617

CP-SCF GRIDX
------------

General Integration Accuracy     IntAcc      ... 3.067
Radial Grid Type                 RadialGrid  ... OptM3 with GC (2021)
Angular Grid (max. ang.)         AngularGrid ... 1 (Lebedev-50)
Angular grid pruning method      GridPruning ... 4 (adaptive)
Weight generation scheme         WeightScheme... Becke
Basis function cutoff            BFCut       ... 1.0000e-10
Integration weight cutoff        WCut        ... 1.0000e-14
Angular grids for H and He will be reduced by one unit
Partially contracted basis set               ... on
Rotationally invariant grid construction     ... off

Total number of grid points                  ...     9609
Total number of batches                      ...      172
Average number of points per batch           ...       55
Average number of grid points per atom       ...      291

Memory available               ... 921.3 MB
Memory needed per perturbation ...   8.2 MB
Perturbations treated per batch... 3
Number of batches              ... 1
     CP-SCF ITERATION   0:   4.0171e-02 (   0.5 sec   0/  3 done)
     CP-SCF ITERATION   1:   1.3262e-03 (   0.5 sec   2/  3 done)
     CP-SCF ITERATION   2:   1.2092e-04 (   0.3 sec   3/  3 done)
                    *** THE CP-SCF HAS CONVERGED ***

Forming final perturbed densities           ... done
Transforming perturbed density to AO basis  ... done

 Raw HFC matrix (all values in MHz): 
 -----------------------------------
                84.6009              -6.4354              -3.8029
                -6.4319              83.5941               2.8952
                -3.8061               2.8966              78.1574

 A(FC)          82.1165              82.1165              82.1165
 A(SD)          -5.7248              -4.3259              10.0506
 A(ORB+DIA)     -0.0008               0.0016               0.0019    A(PC) =   0.0009
 A(ORB)         -0.0009               0.0007               0.0010    A(PC) =   0.0003
 A(DIA)          0.0001               0.0009               0.0010    A(PC) =   0.0006
             ----------           ----------           ----------
 A(Tot)         76.3910              77.7922              92.1691    A(iso)=   82.1174
 Orientation: 
  X          -0.4430999            0.5576219            0.7019404
  Y          -0.0358599            0.7713513           -0.6353985
  Z          -0.8957548           -0.3067165           -0.3217894

Notes:  (1) The A matrix conforms to the "SAI" spin Hamiltonian convention.
        (2) Tensor is right-handed.

 -----------------------------------------------------------
 Nucleus  32H : A:ISTP=    1 I=  0.5 P=533.5514 MHz/au**3
                Q:ISTP=    2 I=  1.0 Q=  0.0029 barn     
 -----------------------------------------------------------
 Solving for nuclear perturbation:
Forming RHS of the CP-SCF equations         ... 
Calc. nucleus orbit integrals (SHARK)       ... done

------------------------------------------------------------------------------
                           ORCA CP-SCF CALCULATION
------------------------------------------------------------------------------

Input orbitals are from        ... epr_info.gbw
Input Perturbation             ... epr_info.pin.tmp
Wavefunction output            ... epr_info.pout.tmp
Perturbation mode              ... Imaginary perturbation
Solver                         ... POPLE
Max. number of iterations      ... 64
Convergence tolerance          ... 1.000e-03
Integral handling              ... Direct
DFT GridXC                     ... 1
COSX GridX                     ... 1
COSX IntAccX                   ... 3.067
COSX Algorithm                 ... Auto
Number of perturbations        ... 3
Number of operators            ... 2
Orbital ranges used for CP-SCF:
 Operator 0:  Orbitals   0... 54  to  55...370
 Operator 1:  Orbitals   0... 53  to  54...370
Variables per perturbation     ... 34498
DFT calculation                         ... on
XC functional terms                     ... off
Hybrid DFT                              ... on
   Exchange mixing (SCF)                ...  0.200
   Exchange mixing (CP-SCF)             ...  0.200
   GGA exch. scaling(SCF)               ...  0.720
   GGA exch. scaling (CP-SCF)           ...  0.720
   GGA corr. scaling (SCF)              ...  0.810
   GGA corr. scaling (CP-SCF)           ...  0.810

CP-SCF GRID
-----------

General Integration Accuracy     IntAcc      ... 3.467
Radial Grid Type                 RadialGrid  ... OptM3 with GC (2021)
Angular Grid (max. ang.)         AngularGrid ... 1 (Lebedev-50)
Angular grid pruning method      GridPruning ... 4 (adaptive)
Weight generation scheme         WeightScheme... Becke
Basis function cutoff            BFCut       ... 1.0000e-10
Integration weight cutoff        WCut        ... 1.0000e-14
Angular grids for H and He will be reduced by one unit
Partially contracted basis set               ... off
Rotationally invariant grid construction     ... off

Total number of grid points                  ...    20349
Total number of batches                      ...      333
Average number of points per batch           ...       61
Average number of grid points per atom       ...      617

CP-SCF GRIDX
------------

General Integration Accuracy     IntAcc      ... 3.067
Radial Grid Type                 RadialGrid  ... OptM3 with GC (2021)
Angular Grid (max. ang.)         AngularGrid ... 1 (Lebedev-50)
Angular grid pruning method      GridPruning ... 4 (adaptive)
Weight generation scheme         WeightScheme... Becke
Basis function cutoff            BFCut       ... 1.0000e-10
Integration weight cutoff        WCut        ... 1.0000e-14
Angular grids for H and He will be reduced by one unit
Partially contracted basis set               ... on
Rotationally invariant grid construction     ... off

Total number of grid points                  ...     9609
Total number of batches                      ...      172
Average number of points per batch           ...       55
Average number of grid points per atom       ...      291

Memory available               ... 920.9 MB
Memory needed per perturbation ...   8.2 MB
Perturbations treated per batch... 3
Number of batches              ... 1
     CP-SCF ITERATION   0:   3.9746e-02 (   0.5 sec   0/  3 done)
     CP-SCF ITERATION   1:   1.0530e-03 (   0.5 sec   2/  3 done)
     CP-SCF ITERATION   2:   1.0094e-04 (   0.3 sec   3/  3 done)
                    *** THE CP-SCF HAS CONVERGED ***

Forming final perturbed densities           ... done
Transforming perturbed density to AO basis  ... done

 Raw HFC matrix (all values in MHz): 
 -----------------------------------
               148.3625              -1.1852               0.3534
                -1.1845             155.8260               5.0832
                 0.3556               5.0845             157.1842

 A(FC)         153.7905             153.7905             153.7905
 A(SD)          -5.8177              -2.0446               7.8623
 A(ORB+DIA)     -0.0014               0.0011               0.0013    A(PC) =   0.0003
 A(ORB)         -0.0015               0.0005               0.0005    A(PC) =  -0.0002
 A(DIA)          0.0001               0.0006               0.0008    A(PC) =   0.0005
             ----------           ----------           ----------
 A(Tot)        147.9714             151.7471             161.6541    A(iso)=  153.7909
 Orientation: 
  X           0.9489417           -0.3130248           -0.0390537
  Y           0.2593829            0.7038154            0.6613353
  Z          -0.1795278           -0.6376985            0.7490730

Notes:  (1) The A matrix conforms to the "SAI" spin Hamiltonian convention.
        (2) Tensor is right-handed.


--------------------------------------------------------------------------------
----------------------------------------------------------------------------
                           ORCA EULER ANGLE PROGRAM
----------------------------------------------------------------------------

Only g-tensor available        -->  using g-tensor as reference tensor

Reference tensor               ...  g

g-tensor ordering              ...  |g_min> --> |gx>
                                    |g_mid> --> |gy>
                                    |g_max> --> |gz>

A- and EFG-tensor ordering     ...  the axes |Ax>, |Qx>, |Ay>, etc. are assigned
                                    such that the Euler rotation is minimal. You
                                    can find the respective eigenvalues as Ax,
                                    EFGx, Ay, etc. in the tables below.
                                    The relation of |Ax>, |Ay>,  etc. to Amin, Amid, etc.
                                    (as printed in the ORCA EPR/NMR CALCULATION Output)
                                    is obtained in the detailed printout.

Euler rotation around          ...  z - y - z
   First rotation              -->  by alpha around z
   Second rotation             -->  by beta around y'
   Third rotation              -->  by gamma around z''
   Positive / Negative angle   -->  clockwise / counterclockwise rotation

Plot EFG-tensors                    (-)
Plot HFC-tensors                    (-)
Detailed Printout                   (-)

-------------------------------------------------------------------------
          Euler rotation of hyperfine tensor to g-tensor
-------------------------------------------------------------------------

-------------------------------------------------------------------
 Atom  |   Alpha    Beta    Gamma   |   Ax       Ay       Az 
       |          [degrees]         |           [MHz]         
-------------------------------------------------------------------
  8N      159.9     44.8   -155.6     -94.60  -106.42  -103.96
  9H      103.5     38.9    -90.4     -64.76   -20.23  -101.07
 10H       89.8     37.5    -92.4      10.75     9.57    27.42
 11H       28.5     26.7    -18.7      99.56    97.07   112.97
 17H     -100.9     11.9    128.0      25.76    25.21    42.66
 29H       22.8     32.1    -61.2      -5.12    -4.63     4.71
 30H      159.1     26.4   -126.3      -4.33    -4.61     4.04
 31H      155.5     19.3   -144.1      76.39    92.17    77.79
 32H      175.4     42.6    149.6     151.75   161.65   147.97
-------------------------------------------------------------------


Maximum memory used throughout the entire EPRNMR-calculation: 137.2 MB

Timings for individual modules:

Sum of individual times         ...      301.000 sec (=   5.017 min)
GTO integral calculation        ...        3.666 sec (=   0.061 min)   1.2 %
Spin-Orbit-Coupling Matrices    ...        4.855 sec (=   0.081 min)   1.6 %
SCF iterations                  ...       23.121 sec (=   0.385 min)   7.7 %
EPR/NMR calculation             ...      269.358 sec (=   4.489 min)  89.5 %
                             ****ORCA TERMINATED NORMALLY****
TOTAL RUN TIME: 0 days 0 hours 5 minutes 3 seconds 701 msec
