
                                 *****************
                                 * O   R   C   A *
                                 *****************

                                            #,                                       
                                            ###                                      
                                            ####                                     
                                            #####                                    
                                            ######                                   
                                           ########,                                 
                                     ,,################,,,,,                         
                               ,,#################################,,                 
                          ,,##########################################,,             
                       ,#########################################, ''#####,          
                    ,#############################################,,   '####,        
                  ,##################################################,,,,####,       
                ,###########''''           ''''###############################       
              ,#####''   ,,,,##########,,,,          '''####'''          '####       
            ,##' ,,,,###########################,,,                        '##       
           ' ,,###''''                  '''############,,,                           
         ,,##''                                '''############,,,,        ,,,,,,###''
      ,#''                                            '''#######################'''  
     '                                                          ''''####''''         
             ,#######,   #######,   ,#######,      ##                                
            ,#'     '#,  ##    ##  ,#'     '#,    #''#        ######   ,####,        
            ##       ##  ##   ,#'  ##            #'  '#       #        #'  '#        
            ##       ##  #######   ##           ,######,      #####,   #    #        
            '#,     ,#'  ##    ##  '#,     ,#' ,#      #,         ##   #,  ,#        
             '#######'   ##     ##  '#######'  #'      '#     #####' # '####'        



                  #######################################################
                  #                        -***-                        #
                  #          Department of theory and spectroscopy      #
                  #    Directorship and core code : Frank Neese         #
                  #        Max Planck Institute fuer Kohlenforschung    #
                  #                Kaiser Wilhelm Platz 1               #
                  #                 D-45470 Muelheim/Ruhr               #
                  #                      Germany                        #
                  #                                                     #
                  #                  All rights reserved                #
                  #                        -***-                        #
                  #######################################################


                         Program Version 5.0.4 -  RELEASE  -


 With contributions from (in alphabetic order):
   Daniel Aravena         : Magnetic Suceptibility
   Michael Atanasov       : Ab Initio Ligand Field Theory (pilot matlab implementation)
   Alexander A. Auer      : GIAO ZORA, VPT2 properties, NMR spectrum
   Ute Becker             : Parallelization
   Giovanni Bistoni       : ED, misc. LED, open-shell LED, HFLD
   Martin Brehm           : Molecular dynamics
   Dmytro Bykov           : SCF Hessian
   Vijay G. Chilkuri      : MRCI spin determinant printing, contributions to CSF-ICE
   Dipayan Datta          : RHF DLPNO-CCSD density
   Achintya Kumar Dutta   : EOM-CC, STEOM-CC
   Dmitry Ganyushin       : Spin-Orbit,Spin-Spin,Magnetic field MRCI
   Miquel Garcia          : C-PCM and meta-GGA Hessian, CC/C-PCM, Gaussian charge scheme
   Yang Guo               : DLPNO-NEVPT2, F12-NEVPT2, CIM, IAO-localization
   Andreas Hansen         : Spin unrestricted coupled pair/coupled cluster methods
   Benjamin Helmich-Paris : MC-RPA, TRAH-SCF, COSX integrals
   Lee Huntington         : MR-EOM, pCC
   Robert Izsak           : Overlap fitted RIJCOSX, COSX-SCS-MP3, EOM
   Marcus Kettner         : VPT2
   Christian Kollmar      : KDIIS, OOCD, Brueckner-CCSD(T), CCSD density, CASPT2, CASPT2-K
   Simone Kossmann        : Meta GGA functionals, TD-DFT gradient, OOMP2, MP2 Hessian
   Martin Krupicka        : Initial AUTO-CI
   Lucas Lang             : DCDCAS
   Marvin Lechner         : AUTO-CI (C++ implementation), FIC-MRCC
   Dagmar Lenk            : GEPOL surface, SMD
   Dimitrios Liakos       : Extrapolation schemes; Compound Job, initial MDCI parallelization
   Dimitrios Manganas     : Further ROCIS development; embedding schemes
   Dimitrios Pantazis     : SARC Basis sets
   Anastasios Papadopoulos: AUTO-CI, single reference methods and gradients
   Taras Petrenko         : DFT Hessian,TD-DFT gradient, ASA, ECA, R-Raman, ABS, FL, XAS/XES, NRVS
   Peter Pinski           : DLPNO-MP2, DLPNO-MP2 Gradient
   Christoph Reimann      : Effective Core Potentials
   Marius Retegan         : Local ZFS, SOC
   Christoph Riplinger    : Optimizer, TS searches, QM/MM, DLPNO-CCSD(T), (RO)-DLPNO pert. Triples
   Tobias Risthaus        : Range-separated hybrids, TD-DFT gradient, RPA, STAB
   Michael Roemelt        : Original ROCIS implementation
   Masaaki Saitow         : Open-shell DLPNO-CCSD energy and density
   Barbara Sandhoefer     : DKH picture change effects
   Avijit Sen             : IP-ROCIS
   Kantharuban Sivalingam : CASSCF convergence, NEVPT2, FIC-MRCI
   Bernardo de Souza      : ESD, SOC TD-DFT
   Georgi Stoychev        : AutoAux, RI-MP2 NMR, DLPNO-MP2 response
   Willem Van den Heuvel  : Paramagnetic NMR
   Boris Wezisla          : Elementary symmetry handling
   Frank Wennmohs         : Technical directorship


 We gratefully acknowledge several colleagues who have allowed us to
 interface, adapt or use parts of their codes:
   Stefan Grimme, W. Hujo, H. Kruse, P. Pracht,  : VdW corrections, initial TS optimization,
                  C. Bannwarth, S. Ehlert          DFT functionals, gCP, sTDA/sTD-DF
   Ed Valeev, F. Pavosevic, A. Kumar             : LibInt (2-el integral package), F12 methods
   Garnet Chan, S. Sharma, J. Yang, R. Olivares  : DMRG
   Ulf Ekstrom                                   : XCFun DFT Library
   Mihaly Kallay                                 : mrcc  (arbitrary order and MRCC methods)
   Jiri Pittner, Ondrej Demel                    : Mk-CCSD
   Frank Weinhold                                : gennbo (NPA and NBO analysis)
   Christopher J. Cramer and Donald G. Truhlar   : smd solvation model
   Lars Goerigk                                  : TD-DFT with DH, B97 family of functionals
   V. Asgeirsson, H. Jonsson                     : NEB implementation
   FAccTs GmbH                                   : IRC, NEB, NEB-TS, DLPNO-Multilevel, CI-OPT
                                                   MM, QMMM, 2- and 3-layer-ONIOM, Crystal-QMMM,
                                                   LR-CPCM, SF, NACMEs, symmetry and pop. for TD-DFT,
                                                   nearIR, NL-DFT gradient (VV10), updates on ESD,
                                                   ML-optimized integration grids
   S Lehtola, MJT Oliveira, MAL Marques          : LibXC Library
   Liviu Ungur et al                             : ANISO software


 Your calculation uses the libint2 library for the computation of 2-el integrals
 For citations please refer to: http://libint.valeyev.net

 Your ORCA version has been built with support for libXC version: 5.1.0
 For citations please refer to: https://tddft.org/programs/libxc/

 This ORCA versions uses:
   CBLAS   interface :  Fast vector & matrix operations
   LAPACKE interface :  Fast linear algebra routines
   SCALAPACK package :  Parallel linear algebra routines
   Shared memory     :  Shared parallel matrices
   BLAS/LAPACK       :  OpenBLAS 0.3.15  USE64BITINT DYNAMIC_ARCH NO_AFFINITY Zen SINGLE_THREADED
        Core in use  :  Zen
   Copyright (c) 2011-2014, The OpenBLAS Project




***************************************
The coordinates will be read from file: opt.xyz
***************************************


XCFun DFT library Copyright 2009-2010 Ulf Ekstrom and contributors.
See http://admol.org/xcfun for more information.
This is free software; see the source code for copying conditions.
There is ABSOLUTELY NO WARRANTY; not even for MERCHANTABILITY or FITNESS FOR A PARTICULAR PURPOSE.
For details see the documentation.
Scientific users of this library should cite U. Ekstrom, L. Visscher, R. Bast, A. J. Thorvaldsen and K. Ruud;
J.Chem.Theor.Comp. 2010, DOI: 10.1021/ct100117s
XCFun Version 0.99 

================================================================================

----- Orbital basis set information -----
Your calculation utilizes the basis: def2-TZVP
   F. Weigend and R. Ahlrichs, Phys. Chem. Chem. Phys. 7, 3297 (2005).

----- AuxJ basis set information -----
Your calculation utilizes the auxiliary basis: def2/J
   F. Weigend, Phys. Chem. Chem. Phys. 8, 1057 (2006).

================================================================================
                                        WARNINGS
                       Please study these warnings very carefully!
================================================================================


WARNING: your system is open-shell and RHF/RKS was chosen
  ===> : WILL SWITCH to UHF/UKS


WARNING: Geometry Optimization
  ===> : Switching off AutoStart
         For restart on a previous wavefunction, please use MOREAD

WARNING: Minnesota functionals are quite sensitive to the integration grid.
         see SE Wheeler, KN Houk, JCTC 2010, 6, 395,
             N Mardirossian, M Head-Gordon, JCTC 2016, 12, 4303.
         DEFGRID3 seems to be a minimum grid for reliable results with these functionals!
  ===> : Please increase the integration grid!


INFO   : the flag for use of the SHARK integral package has been found!

================================================================================
                                       INPUT FILE
================================================================================
NAME = freq.inp
|  1> ! M062X def2-TZVP OPT FREQ
|  2> %pal nprocs 16 end
|  3> *XYZFile 1 2 opt.xyz
|  4> 
|  5>                          ****END OF INPUT****
================================================================================

                       *****************************
                       * Geometry Optimization Run *
                       *****************************

Geometry optimization settings:
Update method            Update   .... BFGS
Choice of coordinates    CoordSys .... Z-matrix Internals
Initial Hessian          InHess   .... Almoef's Model

Convergence Tolerances:
Energy Change            TolE     ....  5.0000e-06 Eh
Max. Gradient            TolMAXG  ....  3.0000e-04 Eh/bohr
RMS Gradient             TolRMSG  ....  1.0000e-04 Eh/bohr
Max. Displacement        TolMAXD  ....  4.0000e-03 bohr
RMS Displacement         TolRMSD  ....  2.0000e-03 bohr
Strict Convergence                ....  False
------------------------------------------------------------------------------
                        ORCA OPTIMIZATION COORDINATE SETUP
------------------------------------------------------------------------------

The optimization will be done in new redundant internal coordinates
Making redundant internal coordinates   ...  (new redundants) done
Evaluating the initial hessian          ...  (Almloef) done
Evaluating the coordinates              ...  done
Calculating the B-matrix                .... done
Calculating the G-matrix                .... done
Diagonalizing the G-matrix              .... done
Small eigenvalue found = 5.729e-03
Small eigenvalue found = 6.205e-03
Small eigenvalue found = 1.044e-02
Small eigenvalue found = 2.208e-02
Small eigenvalue found = 2.609e-02
The first mode is                       ....   67
The number of degrees of freedom        ....   93

    -----------------------------------------------------------------
                    Redundant Internal Coordinates


    -----------------------------------------------------------------
         Definition                    Initial Value    Approx d2E/dq
    -----------------------------------------------------------------
      1. B(C   1,N   0)                  1.4552         0.440354   
      2. B(C   2,C   1)                  1.5417         0.357866   
      3. B(O   3,C   2)                  1.2334         0.994593   
      4. B(C   4,C   1)                  1.5552         0.340593   
      5. B(C   5,C   4)                  1.5381         0.362583   
      6. B(C   6,C   5)                  1.5452         0.353273   
      7. B(C   7,C   6)                  1.4876         0.436572   
      8. B(N   8,C   7)                  1.4941         0.381701   
      9. B(H   9,C   7)                  1.0847         0.367197   
     10. B(H  10,N   8)                  1.0261         0.407846   
     11. B(H  11,N   8)                  1.0317         0.399606   
     12. B(H  12,N   0)                  1.0114         0.430524   
     13. B(C  13,N   0)                  1.3721         0.597604   
     14. B(N  14,C   2)                  1.3608         0.622982   
     15. B(H  15,N  14)                  1.0095         0.433437   
     16. B(O  16,C  13)                  1.2312         1.002810   
     17. B(H  17,N   8)                  1.0273         0.406079   
     18. B(C  18,N  14)                  1.4633         0.427456   
     19. B(H  19,C  18)                  1.0947         0.353988   
     20. B(H  20,C  18)                  1.0935         0.355464   
     21. B(H  21,C  18)                  1.0898         0.360380   
     22. B(C  22,C  13)                  1.5231         0.383097   
     23. B(H  23,C  22)                  1.0929         0.356299   
     24. B(H  24,C  22)                  1.0938         0.355064   
     25. B(H  25,C  22)                  1.0931         0.356006   
     26. B(H  26,C   1)                  1.0964         0.351692   
     27. B(H  27,C   4)                  1.0971         0.350814   
     28. B(H  28,C   4)                  1.0948         0.353761   
     29. B(H  29,C   5)                  1.0944         0.354298   
     30. B(H  30,C   5)                  1.0952         0.353259   
     31. B(H  31,C   6)                  1.1022         0.344265   
     32. B(H  32,C   6)                  1.1062         0.339335   
     33. A(C   1,N   0,C  13)          121.8807         0.400514   
     34. A(C   1,N   0,H  12)          116.1981         0.338288   
     35. A(H  12,N   0,C  13)          121.6439         0.356126   
     36. A(C   2,C   1,H  26)          110.5924         0.320799   
     37. A(N   0,C   1,C   4)          112.5779         0.365566   
     38. A(N   0,C   1,C   2)          107.1489         0.368680   
     39. A(C   4,C   1,H  26)          106.7941         0.318218   
     40. A(C   2,C   1,C   4)          111.1537         0.355072   
     41. A(N   0,C   1,H  26)          108.5768         0.329942   
     42. A(O   3,C   2,N  14)          124.1158         0.467141   
     43. A(C   1,C   2,N  14)          115.3417         0.391528   
     44. A(C   1,C   2,O   3)          120.4900         0.425318   
     45. A(C   5,C   4,H  27)          110.1083         0.321355   
     46. A(H  27,C   4,H  28)          107.4906         0.288845   
     47. A(C   1,C   4,C   5)          113.8785         0.355862   
     48. A(C   1,C   4,H  28)          106.2244         0.318522   
     49. A(C   5,C   4,H  28)          110.0989         0.321796   
     50. A(C   1,C   4,H  27)          108.7861         0.318088   
     51. A(C   6,C   5,H  29)          109.5531         0.320509   
     52. A(C   6,C   5,H  30)          108.9487         0.320355   
     53. A(H  29,C   5,H  30)          106.9790         0.289228   
     54. A(C   4,C   5,H  29)          110.8328         0.321876   
     55. A(C   4,C   5,H  30)          109.1173         0.321721   
     56. A(C   4,C   5,C   6)          111.2939         0.358079   
     57. A(C   5,C   6,C   7)          111.8996         0.369629   
     58. A(C   7,C   6,H  32)          109.7130         0.329512   
     59. A(C   7,C   6,H  31)          109.9057         0.330298   
     60. A(C   5,C   6,H  31)          110.3874         0.319008   
     61. A(H  31,C   6,H  32)          105.6335         0.286127   
     62. A(C   5,C   6,H  32)          109.1056         0.318259   
     63. A(N   8,C   7,H   9)          113.1081         0.324560   
     64. A(C   6,C   7,H   9)          125.6556         0.333846   
     65. A(C   6,C   7,N   8)          117.6897         0.372239   
     66. A(H  10,N   8,H  11)          107.5038         0.296633   
     67. A(C   7,N   8,H  11)          112.4387         0.326315   
     68. A(H  11,N   8,H  17)          106.9553         0.296429   
     69. A(H  10,N   8,H  17)          107.7306         0.297389   
     70. A(C   7,N   8,H  10)          111.4123         0.327414   
     71. A(C   7,N   8,H  17)          110.5664         0.327180   
     72. A(N   0,C  13,O  16)          121.6023         0.464296   
     73. A(O  16,C  13,C  22)          122.3752         0.431181   
     74. A(N   0,C  13,C  22)          116.0221         0.393351   
     75. A(H  15,N  14,C  18)          118.1729         0.336995   
     76. A(C   2,N  14,C  18)          123.0299         0.401351   
     77. A(C   2,N  14,H  15)          117.9183         0.359064   
     78. A(H  20,C  18,H  21)          109.5354         0.290284   
     79. A(H  19,C  18,H  21)          108.8165         0.290094   
     80. A(N  14,C  18,H  21)          108.0296         0.329652   
     81. A(H  19,C  18,H  20)          109.1337         0.289470   
     82. A(N  14,C  18,H  20)          110.3307         0.328905   
     83. A(N  14,C  18,H  19)          110.9638         0.328679   
     84. A(H  24,C  22,H  25)          108.9451         0.289677   
     85. A(H  23,C  22,H  25)          109.6208         0.289835   
     86. A(C  13,C  22,H  25)          113.6185         0.325052   
     87. A(H  23,C  22,H  24)          107.3507         0.289714   
     88. A(C  13,C  22,H  24)          108.2281         0.324910   
     89. A(C  13,C  22,H  23)          108.8835         0.325096   
     90. D(C   4,C   1,N   0,H  12)   -112.8106         0.016535   
     91. D(H  26,C   1,N   0,C  13)    -44.8790         0.016535   
     92. D(C   2,C   1,N   0,H  12)      9.6905         0.016535   
     93. D(C   4,C   1,N   0,C  13)     73.1464         0.016535   
     94. D(C   2,C   1,N   0,C  13)   -164.3525         0.016535   
     95. D(H  26,C   1,N   0,H  12)    129.1640         0.016535   
     96. D(N  14,C   2,C   1,C   4)    -87.1626         0.009640   
     97. D(N  14,C   2,C   1,H  26)     31.2840         0.009640   
     98. D(O   3,C   2,C   1,N   0)    -33.0742         0.009640   
     99. D(O   3,C   2,C   1,H  26)   -151.2444         0.009640   
    100. D(O   3,C   2,C   1,C   4)     90.3090         0.009640   
    101. D(N  14,C   2,C   1,N   0)    149.4543         0.009640   
    102. D(C   5,C   4,C   1,C   2)    -60.8959         0.009390   
    103. D(C   5,C   4,C   1,H  26)    178.3928         0.009390   
    104. D(C   5,C   4,C   1,N   0)     59.3225         0.009390   
    105. D(H  28,C   4,C   1,H  26)     57.0461         0.009390   
    106. D(H  28,C   4,C   1,C   2)    177.7574         0.009390   
    107. D(H  27,C   4,C   1,H  26)    -58.3967         0.009390   
    108. D(H  27,C   4,C   1,C   2)     62.3146         0.009390   
    109. D(H  27,C   4,C   1,N   0)   -177.4670         0.009390   
    110. D(H  28,C   4,C   1,N   0)    -62.0242         0.009390   
    111. D(H  30,C   5,C   4,H  28)     69.6740         0.010537   
    112. D(H  30,C   5,C   4,H  27)   -171.9807         0.010537   
    113. D(H  30,C   5,C   4,C   1)    -49.4932         0.010537   
    114. D(H  29,C   5,C   4,H  28)   -172.7722         0.010537   
    115. D(H  29,C   5,C   4,H  27)    -54.4269         0.010537   
    116. D(H  29,C   5,C   4,C   1)     68.0606         0.010537   
    117. D(C   6,C   5,C   4,H  28)    -50.5881         0.010537   
    118. D(C   6,C   5,C   4,H  27)     67.7572         0.010537   
    119. D(C   6,C   5,C   4,C   1)   -169.7554         0.010537   
    120. D(C   7,C   6,C   5,C   4)    178.3437         0.010040   
    121. D(H  32,C   6,C   5,H  29)    179.6654         0.010040   
    122. D(H  32,C   6,C   5,C   4)     56.7440         0.010040   
    123. D(H  31,C   6,C   5,H  30)   -179.2748         0.010040   
    124. D(H  31,C   6,C   5,H  29)     64.0082         0.010040   
    125. D(H  31,C   6,C   5,C   4)    -58.9132         0.010040   
    126. D(C   7,C   6,C   5,H  30)     57.9820         0.010040   
    127. D(H  32,C   6,C   5,H  30)    -63.6176         0.010040   
    128. D(C   7,C   6,C   5,H  29)    -58.7350         0.010040   
    129. D(H   9,C   7,C   6,H  32)     96.0263         0.014067   
    130. D(H   9,C   7,C   6,H  31)   -148.2395         0.014067   
    131. D(H   9,C   7,C   6,C   5)    -25.2230         0.014067   
    132. D(N   8,C   7,C   6,H  32)    -61.1886         0.014067   
    133. D(N   8,C   7,C   6,H  31)     54.5455         0.014067   
    134. D(N   8,C   7,C   6,C   5)    177.5620         0.014067   
    135. D(H  17,N   8,C   7,H   9)    155.3518         0.012471   
    136. D(H  17,N   8,C   7,C   6)    -44.6545         0.012471   
    137. D(H  11,N   8,C   7,H   9)    -85.1802         0.012471   
    138. D(H  11,N   8,C   7,C   6)     74.8134         0.012471   
    139. D(H  10,N   8,C   7,H   9)     35.5817         0.012471   
    140. D(H  10,N   8,C   7,C   6)   -164.4247         0.012471   
    141. D(C  22,C  13,N   0,H  12)      0.5526         0.028760   
    142. D(C  22,C  13,N   0,C   1)    174.2728         0.028760   
    143. D(O  16,C  13,N   0,H  12)   -179.2213         0.028760   
    144. D(O  16,C  13,N   0,C   1)     -5.5011         0.028760   
    145. D(C  18,N  14,C   2,O   3)      3.0947         0.031451   
    146. D(C  18,N  14,C   2,C   1)   -179.5371         0.031451   
    147. D(H  15,N  14,C   2,O   3)    172.1539         0.031451   
    148. D(H  15,N  14,C   2,C   1)    -10.4779         0.031451   
    149. D(H  20,C  18,N  14,H  15)     58.4773         0.015578   
    150. D(H  20,C  18,N  14,C   2)   -132.4898         0.015578   
    151. D(H  19,C  18,N  14,H  15)    -62.6064         0.015578   
    152. D(H  19,C  18,N  14,C   2)    106.4266         0.015578   
    153. D(H  21,C  18,N  14,H  15)    178.1879         0.015578   
    154. D(H  21,C  18,N  14,C   2)    -12.7791         0.015578   
    155. D(H  25,C  22,C  13,O  16)   -174.9302         0.010941   
    156. D(H  25,C  22,C  13,N   0)      5.2979         0.010941   
    157. D(H  24,C  22,C  13,O  16)     63.9338         0.010941   
    158. D(H  24,C  22,C  13,N   0)   -115.8381         0.010941   
    159. D(H  23,C  22,C  13,O  16)    -52.4565         0.010941   
    160. D(H  23,C  22,C  13,N   0)    127.7716         0.010941   
    -----------------------------------------------------------------

Number of atoms                         .... 33
Number of degrees of freedom            .... 160

         *************************************************************
         *                GEOMETRY OPTIMIZATION CYCLE   1            *
         *************************************************************
---------------------------------
CARTESIAN COORDINATES (ANGSTROEM)
---------------------------------
  N     -7.849123    0.924409    0.078250
  C     -6.401750    0.872185    0.219965
  C     -6.091914    0.890205    1.730097
  O     -6.815940    1.513692    2.510124
  C     -5.687368    2.042737   -0.513514
  C     -6.111098    3.437003   -0.021257
  C     -5.568349    4.548125   -0.947814
  C     -6.003392    5.900415   -0.506291
  N     -5.504638    7.077268   -1.280063
  H     -6.890913    6.119848    0.077407
  H     -5.640620    7.951844   -0.760907
  H     -5.979153    7.179798   -2.190367
  H     -8.373810    1.113893    0.921864
  C     -8.473464    0.610299   -1.102525
  N     -4.961817    0.228947    2.100739
  H     -4.505344   -0.350147    1.411205
  O     -7.833558    0.365947   -2.125600
  H     -4.500479    6.981892   -1.474721
  C     -4.514367    0.131224    3.490543
  H     -4.684212   -0.874947    3.886840
  H     -3.449971    0.370723    3.564730
  H     -5.090176    0.843453    4.081146
  C     -9.995826    0.578249   -1.065558
  H    -10.382527    1.208356   -1.870438
  H    -10.321507   -0.446142   -1.268112
  H    -10.417641    0.902492   -0.110659
  H     -6.039313   -0.056240   -0.237011
  H     -4.602756    1.918037   -0.405252
  H     -5.927158    1.929854   -1.575785
  H     -5.763364    3.610873    1.001782
  H     -7.204689    3.493287   -0.001252
  H     -4.467990    4.504860   -0.995504
  H     -5.919021    4.361961   -1.980277

----------------------------
CARTESIAN COORDINATES (A.U.)
----------------------------
  NO LB      ZA    FRAG     MASS         X           Y           Z
   0 N     7.0000    0    14.007  -14.832694    1.746880    0.147870
   1 C     6.0000    0    12.011  -12.097554    1.648191    0.415674
   2 C     6.0000    0    12.011  -11.512048    1.682243    3.269410
   3 O     8.0000    0    15.999  -12.880259    2.860464    4.743447
   4 C     6.0000    0    12.011  -10.747568    3.860213   -0.970401
   5 C     6.0000    0    12.011  -11.548302    6.494994   -0.040170
   6 C     6.0000    0    12.011  -10.522655    8.594710   -1.791108
   7 C     6.0000    0    12.011  -11.344767   11.150169   -0.956752
   8 N     7.0000    0    14.007  -10.402258   13.374099   -2.418968
   9 H     1.0000    0     1.008  -13.021938   11.564837    0.146277
  10 H     1.0000    0     1.008  -10.659227   15.026808   -1.437906
  11 H     1.0000    0     1.008  -11.298962   13.567852   -4.139194
  12 H     1.0000    0     1.008  -15.824207    2.104952    1.742070
  13 C     6.0000    0    12.011  -16.012526    1.153298   -2.083469
  14 N     7.0000    0    14.007   -9.376476    0.432647    3.969820
  15 H     1.0000    0     1.008   -8.513866   -0.661682    2.666790
  16 O     8.0000    0    15.999  -14.803279    0.691539   -4.016803
  17 H     1.0000    0     1.008   -8.504673   13.193863   -2.786818
  18 C     6.0000    0    12.011   -8.530918    0.247978    6.596170
  19 H     1.0000    0     1.008   -8.851877   -1.653410    7.345064
  20 H     1.0000    0     1.008   -6.519501    0.700565    6.736364
  21 H     1.0000    0     1.008   -9.619039    1.593895    7.712249
  22 C     6.0000    0    12.011  -18.889374    1.092732   -2.013613
  23 H     1.0000    0     1.008  -19.620132    2.283463   -3.534616
  24 H     1.0000    0     1.008  -19.504822   -0.843086   -2.396384
  25 H     1.0000    0     1.008  -19.686488    1.705463   -0.209114
  26 H     1.0000    0     1.008  -11.412647   -0.106278   -0.447887
  27 H     1.0000    0     1.008   -8.697948    3.624565   -0.765815
  28 H     1.0000    0     1.008  -11.200706    3.646896   -2.977803
  29 H     1.0000    0     1.008  -10.891180    6.823561    1.893093
  30 H     1.0000    0     1.008  -13.614889    6.601356   -0.002366
  31 H     1.0000    0     1.008   -8.443278    8.512952   -1.881229
  32 H     1.0000    0     1.008  -11.185328    8.242912   -3.742181

--------------------------------
INTERNAL COORDINATES (ANGSTROEM)
--------------------------------
 N      0   0   0     0.000000000000     0.00000000     0.00000000
 C      1   0   0     1.455232207900     0.00000000     0.00000000
 C      2   1   0     1.541694339939   107.14892797     0.00000000
 O      3   2   1     1.233447292391   120.49000444   326.92580472
 C      2   1   3     1.555160747512   112.57790959   237.49892271
 C      5   2   1     1.538129440972   113.87854585    59.32247696
 C      6   5   2     1.545210258799   111.29392008   190.24464606
 C      7   6   5     1.487580024067   111.89963580   178.34365742
 N      8   7   6     1.494142296996   117.68971159   177.56203528
 H      8   7   6     1.084687666405   125.65556443   334.77697735
 H      9   8   7     1.026107662643   111.41231604   195.57526633
 H      9   8   7     1.031663958157   112.43866511    74.81339134
 H      1   2   3     1.011377269845   116.19807880     9.69046201
 C      1   2   3     1.372112897581   121.88068187   195.64751759
 N      3   2   1     1.360791828456   115.34174675   149.45426425
 H     15   3   2     1.009541754751   117.91834016   349.52206601
 O     14   1   2     1.231207499629   121.60228557   354.49891640
 H      9   8   7     1.027289441365   110.56638969   315.34545001
 C     15   3   2     1.463323888007   123.02991966   180.46286198
 H     19  15   3     1.094659845915   110.96383809   106.42656527
 H     19  15   3     1.093527087885   110.33073027   227.51021308
 H     19  15   3     1.089788090762   108.02960605   347.22088728
 C     14   1   2     1.523148263861   116.02210751   174.27277380
 H     23  14   1     1.092888282129   108.88352654   127.77158529
 H     23  14   1     1.093833914690   108.22812073   244.16189410
 H     23  14   1     1.093112222198   113.61848305     5.29790381
 H      2   1   3     1.096431018840   108.57681941   119.47352823
 H      5   2   1     1.097111832372   108.78605655   182.53301033
 H      5   2   1     1.094834170462   106.22436378   297.97581008
 H      6   5   2     1.094421354710   110.83278072    68.06057311
 H      6   5   2     1.095220925891   109.11732529   310.50678802
 H      7   6   5     1.102241594649   110.38736599   301.08680691
 H      7   6   5     1.106167919061   109.10560211    56.74403292

---------------------------
INTERNAL COORDINATES (A.U.)
---------------------------
 N      0   0   0     0.000000000000     0.00000000     0.00000000
 C      1   0   0     2.749990334192     0.00000000     0.00000000
 C      2   1   0     2.913380084701   107.14892797     0.00000000
 O      3   2   1     2.330877583247   120.49000444   326.92580472
 C      2   1   3     2.938827907022   112.57790959   237.49892271
 C      5   2   1     2.906643401958   113.87854585    59.32247696
 C      6   5   2     2.920024208456   111.29392008   190.24464606
 C      7   6   5     2.811118847778   111.89963580   178.34365742
 N      8   7   6     2.823519746430   117.68971159   177.56203528
 H      8   7   6     2.049762630348   125.65556443   334.77697735
 H      9   8   7     1.939062466313   111.41231604   195.57526633
 H      9   8   7     1.949562343154   112.43866511    74.81339134
 H      1   2   3     1.911226058080   116.19807880     9.69046201
 C      1   2   3     2.592917601250   121.88068187   195.64751759
 N      3   2   1     2.571523881060   115.34174675   149.45426425
 H     15   3   2     1.907757437237   117.91834016   349.52206601
 O     14   1   2     2.326644988328   121.60228557   354.49891640
 H      9   8   7     1.941295704449   110.56638969   315.34545001
 C     15   3   2     2.765281393557   123.02991966   180.46286198
 H     19  15   3     2.068607318579   110.96383809   106.42656527
 H     19  15   3     2.066466716126   110.33073027   227.51021308
 H     19  15   3     2.059401035550   108.02960605   347.22088728
 C     14   1   2     2.878333080055   116.02210751   174.27277380
 H     23  14   1     2.065259548196   108.88352654   127.77158529
 H     23  14   1     2.067046534760   108.22812073   244.16189410
 H     23  14   1     2.065682733596   113.61848305     5.29790381
 H      2   1   3     2.071954350344   108.57681941   119.47352823
 H      5   2   1     2.073240901468   108.78605655   182.53301033
 H      5   2   1     2.068936744232   106.22436378   297.97581008
 H      6   5   2     2.068156635518   110.83278072    68.06057311
 H      6   5   2     2.069667606073   109.11732529   310.50678802
 H      7   6   5     2.082934747303   110.38736599   301.08680691
 H      7   6   5     2.090354425155   109.10560211    56.74403292

---------------------
BASIS SET INFORMATION
---------------------
There are 4 groups of distinct atoms

 Group   1 Type N   : 11s6p2d1f contracted to 5s3p2d1f pattern {62111/411/11/1}
 Group   2 Type C   : 11s6p2d1f contracted to 5s3p2d1f pattern {62111/411/11/1}
 Group   3 Type O   : 11s6p2d1f contracted to 5s3p2d1f pattern {62111/411/11/1}
 Group   4 Type H   : 5s1p contracted to 3s1p pattern {311/1}

Atom   0N    basis set group =>   1
Atom   1C    basis set group =>   2
Atom   2C    basis set group =>   2
Atom   3O    basis set group =>   3
Atom   4C    basis set group =>   2
Atom   5C    basis set group =>   2
Atom   6C    basis set group =>   2
Atom   7C    basis set group =>   2
Atom   8N    basis set group =>   1
Atom   9H    basis set group =>   4
Atom  10H    basis set group =>   4
Atom  11H    basis set group =>   4
Atom  12H    basis set group =>   4
Atom  13C    basis set group =>   2
Atom  14N    basis set group =>   1
Atom  15H    basis set group =>   4
Atom  16O    basis set group =>   3
Atom  17H    basis set group =>   4
Atom  18C    basis set group =>   2
Atom  19H    basis set group =>   4
Atom  20H    basis set group =>   4
Atom  21H    basis set group =>   4
Atom  22C    basis set group =>   2
Atom  23H    basis set group =>   4
Atom  24H    basis set group =>   4
Atom  25H    basis set group =>   4
Atom  26H    basis set group =>   4
Atom  27H    basis set group =>   4
Atom  28H    basis set group =>   4
Atom  29H    basis set group =>   4
Atom  30H    basis set group =>   4
Atom  31H    basis set group =>   4
Atom  32H    basis set group =>   4
---------------------------------
AUXILIARY/J BASIS SET INFORMATION
---------------------------------
There are 4 groups of distinct atoms

 Group   1 Type N   : 12s5p4d2f1g contracted to 6s4p3d1f1g pattern {711111/2111/211/2/1}
 Group   2 Type C   : 12s5p4d2f1g contracted to 6s4p3d1f1g pattern {711111/2111/211/2/1}
 Group   3 Type O   : 12s5p4d2f1g contracted to 6s4p3d1f1g pattern {711111/2111/211/2/1}
 Group   4 Type H   : 5s2p1d contracted to 3s1p1d pattern {311/2/1}

Atom   0N    basis set group =>   1
Atom   1C    basis set group =>   2
Atom   2C    basis set group =>   2
Atom   3O    basis set group =>   3
Atom   4C    basis set group =>   2
Atom   5C    basis set group =>   2
Atom   6C    basis set group =>   2
Atom   7C    basis set group =>   2
Atom   8N    basis set group =>   1
Atom   9H    basis set group =>   4
Atom  10H    basis set group =>   4
Atom  11H    basis set group =>   4
Atom  12H    basis set group =>   4
Atom  13C    basis set group =>   2
Atom  14N    basis set group =>   1
Atom  15H    basis set group =>   4
Atom  16O    basis set group =>   3
Atom  17H    basis set group =>   4
Atom  18C    basis set group =>   2
Atom  19H    basis set group =>   4
Atom  20H    basis set group =>   4
Atom  21H    basis set group =>   4
Atom  22C    basis set group =>   2
Atom  23H    basis set group =>   4
Atom  24H    basis set group =>   4
Atom  25H    basis set group =>   4
Atom  26H    basis set group =>   4
Atom  27H    basis set group =>   4
Atom  28H    basis set group =>   4
Atom  29H    basis set group =>   4
Atom  30H    basis set group =>   4
Atom  31H    basis set group =>   4
Atom  32H    basis set group =>   4


           ************************************************************
           *        Program running with 16 parallel MPI-processes    *
           *              working on a common directory               *
           ************************************************************
------------------------------------------------------------------------------
                           ORCA GTO INTEGRAL CALCULATION
                           -- RI-GTO INTEGRALS CHOSEN --
------------------------------------------------------------------------------
------------------------------------------------------------------------------
                   ___                                                        
                  /   \      - P O W E R E D   B Y -                         
                 /     \                                                     
                 |  |  |   _    _      __       _____    __    __             
                 |  |  |  | |  | |    /  \     |  _  \  |  |  /  |          
                  \  \/   | |  | |   /    \    | | | |  |  | /  /          
                 / \  \   | |__| |  /  /\  \   | |_| |  |  |/  /          
                |  |  |   |  __  | /  /__\  \  |    /   |      \           
                |  |  |   | |  | | |   __   |  |    \   |  |\   \          
                \     /   | |  | | |  |  |  |  | |\  \  |  | \   \       
                 \___/    |_|  |_| |__|  |__|  |_| \__\ |__|  \__/        
                                                                              
                      - O R C A' S   B I G   F R I E N D -                    
                                      &                                       
                       - I N T E G R A L  F E E D E R -                       
                                                                              
 v1 FN, 2020, v2 2021                                                         
------------------------------------------------------------------------------


Reading SHARK input file freq.SHARKINP.tmp ... ok
----------------------
SHARK INTEGRAL PACKAGE
----------------------

Number of atoms                             ...     33
Number of basis functions                   ...    548
Number of shells                            ...    230
Maximum angular momentum                    ...      3
Integral batch strategy                     ... SHARK/LIBINT Hybrid
RI-J (if used) integral strategy            ... SPLIT-RIJ (Revised 2003 algorithm where possible)
Printlevel                                  ...      1
Contraction scheme used                     ... SEGMENTED contraction
Coulomb Range Separation                    ... NOT USED
Exchange Range Separation                   ... NOT USED
Finite Nucleus Model                        ... NOT USED
Auxiliary Coulomb fitting basis             ... AVAILABLE
   # of basis functions in Aux-J            ...    895
   # of shells in Aux-J                     ...    305
   Maximum angular momentum in Aux-J        ...      4
Auxiliary J/K fitting basis                 ... NOT available
Auxiliary Correlation fitting basis         ... NOT available
Auxiliary 'external' fitting basis          ... NOT available
Integral threshold                          ...     2.500000e-11
Primitive cut-off                           ...     2.500000e-12
Primitive pair pre-selection threshold      ...     2.500000e-12

Calculating pre-screening integrals         ... done (  0.0 sec) Dimension = 230
Organizing shell pair data                  ... done (  0.1 sec)
Shell pair information
Total number of shell pairs                 ...     26565
Shell pairs after pre-screening             ...     19851
Total number of primitive shell pairs       ...     78180
Primitive shell pairs kept                  ...     40698
          la=0 lb=0:   6014 shell pairs
          la=1 lb=0:   5889 shell pairs
          la=1 lb=1:   1488 shell pairs
          la=2 lb=0:   2623 shell pairs
          la=2 lb=1:   1305 shell pairs
          la=2 lb=2:    309 shell pairs
          la=3 lb=0:   1248 shell pairs
          la=3 lb=1:    626 shell pairs
          la=3 lb=2:    276 shell pairs
          la=3 lb=3:     73 shell pairs

Calculating one electron integrals          ... done (  0.0 sec)
Calculating RI/J V-Matrix + Cholesky decomp.... done (  0.0 sec)
Calculating Nuclear repulsion               ... done (  0.0 sec) ENN=    930.753911453611 Eh

SHARK setup successfully completed in   0.4 seconds

Maximum memory used throughout the entire GTOINT-calculation: 31.4 MB


           ************************************************************
           *        Program running with 16 parallel MPI-processes    *
           *              working on a common directory               *
           ************************************************************
-------------------------------------------------------------------------------
                                 ORCA SCF
-------------------------------------------------------------------------------

------------
SCF SETTINGS
------------
Hamiltonian:
 Density Functional     Method          .... DFT(GTOs)
 Exchange Functional    Exchange        .... M062X
 Correlation Functional Correlation     .... M062X
 Gradients option       PostSCFGGA      .... off
 Hybrid DFT is turned on
   Fraction HF Exchange ScalHFX         ....  0.540000
   Scaling of DF-GGA-X  ScalDFX         ....  0.460000
   Scaling of DF-GGA-C  ScalDFC         ....  1.000000
   Scaling of DF-LDA-C  ScalLDAC        ....  1.000000
   Perturbative correction              ....  0.000000
   Density functional embedding theory  .... OFF
 RI-approximation to the Coulomb term is turned on
   Number of AuxJ basis functions       .... 895
   RIJ-COSX (HFX calculated with COS-X)).... on


General Settings:
 Integral files         IntName         .... freq
 Hartree-Fock type      HFTyp           .... UHF
 Total Charge           Charge          ....    1
 Multiplicity           Mult            ....    2
 Number of Electrons    NEL             ....  109
 Basis Dimension        Dim             ....  548
 Nuclear Repulsion      ENuc            ....    930.7539114536 Eh

Convergence Acceleration:
 DIIS                   CNVDIIS         .... on
   Start iteration      DIISMaxIt       ....    12
   Startup error        DIISStart       ....  0.200000
   # of expansion vecs  DIISMaxEq       ....     5
   Bias factor          DIISBfac        ....   1.050
   Max. coefficient     DIISMaxC        ....  10.000
 Trust-Rad. Augm. Hess. CNVTRAH         .... auto
   Auto Start mean grad. ratio tolernc. ....  1.125000
   Auto Start start iteration           ....    20
   Auto Start num. interpolation iter.  ....    10
   Max. Number of Micro iterations      ....    16
   Max. Number of Macro iterations      .... Maxiter - #DIIS iter
   Number of Davidson start vectors     ....     2
   Converg. threshold I  (grad. norm)   ....   1.000e-05
   Converg. threshold II (energy diff.) ....   1.000e-08
   Grad. Scal. Fac. for Micro threshold ....   0.100
   Minimum threshold for Micro iter.    ....   0.010
   NR start threshold (gradient norm)   ....   0.001
   Initial trust radius                 ....   0.400
   Minimum AH scaling param. (alpha)    ....   1.000
   Maximum AH scaling param. (alpha)    .... 1000.000
   Orbital update algorithm             .... Taylor
   White noise on init. David. guess    .... on
   Maximum white noise                  ....   0.010
   Quad. conv. algorithm                .... NR
 SOSCF                  CNVSOSCF        .... off
 Level Shifting         CNVShift        .... on
   Level shift para.    LevelShift      ....    0.2500
   Turn off err/grad.   ShiftErr        ....    0.0010
 Zerner damping         CNVZerner       .... off
 Static damping         CNVDamp         .... on
   Fraction old density DampFac         ....    0.7000
   Max. Damping (<1)    DampMax         ....    0.9800
   Min. Damping (>=0)   DampMin         ....    0.0000
   Turn off err/grad.   DampErr         ....    0.1000
 Fernandez-Rico         CNVRico         .... off

SCF Procedure:
 Maximum # iterations   MaxIter         ....   125
 SCF integral mode      SCFMode         .... Direct
   Integral package                     .... SHARK and LIBINT hybrid scheme
 Reset frequency        DirectResetFreq ....    20
 Integral Threshold     Thresh          ....  2.500e-11 Eh
 Primitive CutOff       TCut            ....  2.500e-12 Eh

Convergence Tolerance:
 Convergence Check Mode ConvCheckMode   .... Total+1el-Energy
 Convergence forced     ConvForced      .... 0
 Energy Change          TolE            ....  1.000e-08 Eh
 1-El. energy change                    ....  1.000e-05 Eh
 DIIS Error             TolErr          ....  5.000e-07


Diagonalization of the overlap matrix:
Smallest eigenvalue                        ... 6.176e-05
Time for diagonalization                   ...    0.035 sec
Threshold for overlap eigenvalues          ... 1.000e-08
Number of eigenvalues below threshold      ... 0
Time for construction of square roots      ...    0.021 sec
Total time needed                          ...    0.058 sec

Time for model grid setup =    0.126 sec

------------------------------
INITIAL GUESS: MODEL POTENTIAL
------------------------------
Loading Hartree-Fock densities                     ... done
Calculating cut-offs                               ... done
Initializing the effective Hamiltonian             ... done
Setting up the integral package (SHARK)            ... done
Starting the Coulomb interaction                   ... done (   0.1 sec)
Reading the grid                                   ... done
Mapping shells                                     ... done
Starting the XC term evaluation                    ... done (   0.1 sec)
  promolecular density results
     # of electrons  =    109.998435741
     EX              =    -87.568954582
     EC              =     -3.647314856
     EX+EC           =    -91.216269438
Transforming the Hamiltonian                       ... done (   0.0 sec)
Diagonalizing the Hamiltonian                      ... done (   0.0 sec)
Back transforming the eigenvectors                 ... done (   0.0 sec)
Now organizing SCF variables                       ... done
                      ------------------
                      INITIAL GUESS DONE (   0.4 sec)
                      ------------------
-------------------
DFT GRID GENERATION
-------------------

General Integration Accuracy     IntAcc      ... 4.388
Radial Grid Type                 RadialGrid  ... OptM3 with GC (2021)
Angular Grid (max. ang.)         AngularGrid ... 4 (Lebedev-302)
Angular grid pruning method      GridPruning ... 4 (adaptive)
Weight generation scheme         WeightScheme... Becke
Basis function cutoff            BFCut       ... 1.0000e-11
Integration weight cutoff        WCut        ... 1.0000e-14
Angular grids for H and He will be reduced by one unit
Partially contracted basis set               ... off
Rotationally invariant grid construction     ... off

Total number of grid points                  ...   144790
Total number of batches                      ...     2278
Average number of points per batch           ...       63
Average number of grid points per atom       ...     4388
Time for grid setup =    0.630 sec

--------------------
COSX GRID GENERATION
--------------------

GRIDX 1
-------
General Integration Accuracy     IntAcc      ... 3.816
Radial Grid Type                 RadialGrid  ... OptM3 with GC (2021)
Angular Grid (max. ang.)         AngularGrid ... 1 (Lebedev-50)
Angular grid pruning method      GridPruning ... 4 (adaptive)
Weight generation scheme         WeightScheme... Becke
Basis function cutoff            BFCut       ... 1.0000e-11
Integration weight cutoff        WCut        ... 1.0000e-14
Angular grids for H and He will be reduced by one unit
Partially contracted basis set               ... on
Rotationally invariant grid construction     ... off

Total number of grid points                  ...    18486
Total number of batches                      ...      309
Average number of points per batch           ...       59
Average number of grid points per atom       ...      560
UseSFitting                                  ... on

GRIDX 2
-------
General Integration Accuracy     IntAcc      ... 4.020
Radial Grid Type                 RadialGrid  ... OptM3 with GC (2021)
Angular Grid (max. ang.)         AngularGrid ... 2 (Lebedev-110)
Angular grid pruning method      GridPruning ... 4 (adaptive)
Weight generation scheme         WeightScheme... Becke
Basis function cutoff            BFCut       ... 1.0000e-11
Integration weight cutoff        WCut        ... 1.0000e-14
Angular grids for H and He will be reduced by one unit
Partially contracted basis set               ... on
Rotationally invariant grid construction     ... off

Total number of grid points                  ...    39028
Total number of batches                      ...      626
Average number of points per batch           ...       62
Average number of grid points per atom       ...     1183
UseSFitting                                  ... on

GRIDX 3
-------
General Integration Accuracy     IntAcc      ... 4.338
Radial Grid Type                 RadialGrid  ... OptM3 with GC (2021)
Angular Grid (max. ang.)         AngularGrid ... 3 (Lebedev-194)
Angular grid pruning method      GridPruning ... 4 (adaptive)
Weight generation scheme         WeightScheme... Becke
Basis function cutoff            BFCut       ... 1.0000e-11
Integration weight cutoff        WCut        ... 1.0000e-14
Angular grids for H and He will be reduced by one unit
Partially contracted basis set               ... on
Rotationally invariant grid construction     ... off

Total number of grid points                  ...    85087
Total number of batches                      ...     1346
Average number of points per batch           ...       63
Average number of grid points per atom       ...     2578
UseSFitting                                  ... on

Time for X-Grid setup             =    0.932 sec

--------------
SCF ITERATIONS
--------------
ITER       Energy         Delta-E        Max-DP      RMS-DP      [F,P]     Damp
               ***  Starting incremental Fock matrix formation  ***
  0   -668.3314647753   0.000000000000 0.03269198  0.00040217  0.1515624 0.7000
  1   -668.5329416976  -0.201476922265 0.03465838  0.00032512  0.0724498 0.7000
                               ***Turning on DIIS***
  2   -668.6231215955  -0.090179897912 0.07398752  0.00064619  0.0260934 0.0000
  3   -668.7686771036  -0.145555508088 0.01829895  0.00022759  0.0348714 0.0000
  4   -668.7948040950  -0.026126991426 0.00546817  0.00007155  0.0051888 0.0000
  5   -668.7957933625  -0.000989267495 0.00273501  0.00003110  0.0034231 0.0000
  6   -668.7960163782  -0.000223015633 0.00116981  0.00001514  0.0010137 0.0000
  7   -668.7960555326  -0.000039154460 0.00098024  0.00001178  0.0004855 0.0000
               *** Restarting incremental Fock matrix formation ***
                                   *** Resetting DIIS ***
  8   -668.7960628408  -0.000007308208 0.00039479  0.00000497  0.0002106 0.0000
  9   -668.7960638990  -0.000001058154 0.00010662  0.00000124  0.0002639 0.0000
 10   -668.7960649134  -0.000001014380 0.00011672  0.00000090  0.0000756 0.0000
 11   -668.7960650757  -0.000000162367 0.00003751  0.00000039  0.0000652 0.0000
 12   -668.7960651247  -0.000000048967 0.00001335  0.00000014  0.0000266 0.0000
 13   -668.7960651260  -0.000000001272 0.00000297  0.00000004  0.0000056 0.0000
 14   -668.7960651469  -0.000000020964 0.00000253  0.00000002  0.0000016 0.0000
 15   -668.7960651448   0.000000002124 0.00000142  0.00000002  0.0000012 0.0000
                            ***DIIS convergence achieved***

               *****************************************************
               *                     SUCCESS                       *
               *           SCF CONVERGED AFTER  16 CYCLES          *
               *****************************************************

Old exchange energy                            =    -48.306614620 Eh
New exchange energy                            =    -48.306653137 Eh
Exchange energy change after final integration =     -0.000038517 Eh
Total energy after final integration           =   -668.796103692 Eh
Final COS-X integration done in                =     4.846 sec

----------------
TOTAL SCF ENERGY
----------------

Total Energy       :         -668.79610369 Eh          -18198.86719 eV

Components:
Nuclear Repulsion  :          930.75391145 Eh           25327.10154 eV
Electronic Energy  :        -1599.55001515 Eh          -43525.96873 eV
One Electron Energy:        -2742.01611896 Eh          -74614.05190 eV
Two Electron Energy:         1142.46610381 Eh           31088.08317 eV
Max COSX asymmetry :            0.00000207 Eh               0.00006 eV

Virial components:
Potential Energy   :        -1333.91871940 Eh          -36297.77370 eV
Kinetic Energy     :          665.12261570 Eh           18098.90650 eV
Virial Ratio       :            2.00552302


DFT components:
N(Alpha)           :       55.000057485132 electrons
N(Beta)            :       54.000053528900 electrons
N(Total)           :      109.000111014031 electrons
E(XC)              :      -45.044040800286 Eh       
DFET-embed. en.    :        0.000000000000 Eh       

---------------
SCF CONVERGENCE
---------------

  Last Energy change         ...   -3.0384e-08  Tolerance :   1.0000e-08
  Last MAX-Density change    ...    0.0000e+00  Tolerance :   1.0000e-07
  Last RMS-Density change    ...    0.0000e+00  Tolerance :   5.0000e-09
  Last DIIS Error            ...    7.1046e-07  Tolerance :   5.0000e-07

             **** THE GBW FILE WAS UPDATED (freq.gbw) ****
             **** DENSITY freq.scfp WAS UPDATED ****
             **** ENERGY FILE WAS UPDATED (freq.en.tmp) ****
----------------------
UHF SPIN CONTAMINATION
----------------------

Warning: in a DFT calculation there is little theoretical justification to 
         calculate <S**2> as in Hartree-Fock theory. We will do it anyways
         but you should keep in mind that the values have only limited relevance

Expectation value of <S**2>     :     0.755389
Ideal value S*(S+1) for S=0.5   :     0.750000
Deviation                       :     0.005389

             **** THE GBW FILE WAS UPDATED (freq.gbw) ****
             **** DENSITY freq.scfp WAS UPDATED ****
----------------
ORBITAL ENERGIES
----------------
                 SPIN UP ORBITALS
  NO   OCC          E(Eh)            E(eV) 
   0   1.0000     -19.691283      -535.8271 
   1   1.0000     -19.671214      -535.2809 
   2   1.0000     -15.076798      -410.2605 
   3   1.0000     -14.872730      -404.7076 
   4   1.0000     -14.857363      -404.2894 
   5   1.0000     -10.792499      -293.6788 
   6   1.0000     -10.743298      -292.3400 
   7   1.0000     -10.727654      -291.9143 
   8   1.0000     -10.711788      -291.4826 
   9   1.0000     -10.688187      -290.8404 
  10   1.0000     -10.668352      -290.3006 
  11   1.0000     -10.653974      -289.9094 
  12   1.0000     -10.651325      -289.8373 
  13   1.0000     -10.617654      -288.9211 
  14   1.0000      -1.315920       -35.8080 
  15   1.0000      -1.254756       -34.1437 
  16   1.0000      -1.234248       -33.5856 
  17   1.0000      -1.125373       -30.6230 
  18   1.0000      -1.117375       -30.4053 
  19   1.0000      -1.064480       -28.9660 
  20   1.0000      -0.991674       -26.9848 
  21   1.0000      -0.942280       -25.6407 
  22   1.0000      -0.904582       -24.6149 
  23   1.0000      -0.896115       -24.3845 
  24   1.0000      -0.868130       -23.6230 
  25   1.0000      -0.859410       -23.3857 
  26   1.0000      -0.835822       -22.7439 
  27   1.0000      -0.804071       -21.8799 
  28   1.0000      -0.762922       -20.7602 
  29   1.0000      -0.757442       -20.6110 
  30   1.0000      -0.737542       -20.0695 
  31   1.0000      -0.705402       -19.1950 
  32   1.0000      -0.685906       -18.6644 
  33   1.0000      -0.665724       -18.1153 
  34   1.0000      -0.652305       -17.7501 
  35   1.0000      -0.631676       -17.1888 
  36   1.0000      -0.628090       -17.0912 
  37   1.0000      -0.619678       -16.8623 
  38   1.0000      -0.605764       -16.4837 
  39   1.0000      -0.600700       -16.3459 
  40   1.0000      -0.588595       -16.0165 
  41   1.0000      -0.569119       -15.4865 
  42   1.0000      -0.557625       -15.1738 
  43   1.0000      -0.554808       -15.0971 
  44   1.0000      -0.544763       -14.8238 
  45   1.0000      -0.540416       -14.7055 
  46   1.0000      -0.529142       -14.3987 
  47   1.0000      -0.527271       -14.3478 
  48   1.0000      -0.521416       -14.1885 
  49   1.0000      -0.497373       -13.5342 
  50   1.0000      -0.469284       -12.7699 
  51   1.0000      -0.433810       -11.8046 
  52   1.0000      -0.418925       -11.3995 
  53   1.0000      -0.411751       -11.2043 
  54   1.0000      -0.403597       -10.9824 
  55   0.0000      -0.151974        -4.1354 
  56   0.0000      -0.093655        -2.5485 
  57   0.0000      -0.082871        -2.2550 
  58   0.0000      -0.056465        -1.5365 
  59   0.0000      -0.047701        -1.2980 
  60   0.0000      -0.036111        -0.9826 
  61   0.0000      -0.029423        -0.8006 
  62   0.0000      -0.021161        -0.5758 
  63   0.0000      -0.016291        -0.4433 
  64   0.0000      -0.008959        -0.2438 
  65   0.0000       0.002729         0.0743 
  66   0.0000       0.015136         0.4119 
  67   0.0000       0.021061         0.5731 
  68   0.0000       0.027427         0.7463 
  69   0.0000       0.032327         0.8796 
  70   0.0000       0.034438         0.9371 
  71   0.0000       0.039944         1.0869 
  72   0.0000       0.050965         1.3868 
  73   0.0000       0.059256         1.6124 
  74   0.0000       0.068372         1.8605 
  75   0.0000       0.075676         2.0593 
  76   0.0000       0.079271         2.1571 
  77   0.0000       0.079878         2.1736 
  78   0.0000       0.086107         2.3431 
  79   0.0000       0.089393         2.4325 
  80   0.0000       0.090753         2.4695 
  81   0.0000       0.098034         2.6677 
  82   0.0000       0.109737         2.9861 
  83   0.0000       0.117314         3.1923 
  84   0.0000       0.122180         3.3247 
  85   0.0000       0.129200         3.5157 
  86   0.0000       0.134911         3.6711 
  87   0.0000       0.147736         4.0201 
  88   0.0000       0.150203         4.0872 
  89   0.0000       0.158271         4.3068 
  90   0.0000       0.161993         4.4081 
  91   0.0000       0.168635         4.5888 
  92   0.0000       0.173370         4.7176 
  93   0.0000       0.177074         4.8184 
  94   0.0000       0.189554         5.1580 
  95   0.0000       0.191230         5.2036 
  96   0.0000       0.200558         5.4575 
  97   0.0000       0.202716         5.5162 
  98   0.0000       0.218545         5.9469 
  99   0.0000       0.224720         6.1149 
 100   0.0000       0.240799         6.5525 
 101   0.0000       0.248092         6.7509 
 102   0.0000       0.255137         6.9426 
 103   0.0000       0.259385         7.0582 
 104   0.0000       0.263019         7.1571 
 105   0.0000       0.277829         7.5601 
 106   0.0000       0.282042         7.6747 
 107   0.0000       0.290998         7.9185 
 108   0.0000       0.297365         8.0917 
 109   0.0000       0.300436         8.1753 
 110   0.0000       0.307644         8.3714 
 111   0.0000       0.310446         8.4477 
 112   0.0000       0.317887         8.6501 
 113   0.0000       0.323359         8.7990 
 114   0.0000       0.329739         8.9726 
 115   0.0000       0.335484         9.1290 
 116   0.0000       0.341737         9.2991 
 117   0.0000       0.348014         9.4699 
 118   0.0000       0.350125         9.5274 
 119   0.0000       0.356623         9.7042 
 120   0.0000       0.362485         9.8637 
 121   0.0000       0.365510         9.9460 
 122   0.0000       0.370914        10.0931 
 123   0.0000       0.377188        10.2638 
 124   0.0000       0.380336        10.3495 
 125   0.0000       0.381977        10.3941 
 126   0.0000       0.390805        10.6344 
 127   0.0000       0.396058        10.7773 
 128   0.0000       0.406685        11.0665 
 129   0.0000       0.414126        11.2689 
 130   0.0000       0.417724        11.3669 
 131   0.0000       0.423561        11.5257 
 132   0.0000       0.429493        11.6871 
 133   0.0000       0.431251        11.7349 
 134   0.0000       0.438352        11.9282 
 135   0.0000       0.444720        12.1014 
 136   0.0000       0.451659        12.2903 
 137   0.0000       0.452677        12.3180 
 138   0.0000       0.470794        12.8109 
 139   0.0000       0.483717        13.1626 
 140   0.0000       0.492045        13.3892 
 141   0.0000       0.497195        13.5294 
 142   0.0000       0.503871        13.7110 
 143   0.0000       0.508464        13.8360 
 144   0.0000       0.510251        13.8846 
 145   0.0000       0.520325        14.1588 
 146   0.0000       0.529563        14.4101 
 147   0.0000       0.533871        14.5274 
 148   0.0000       0.543921        14.8008 
 149   0.0000       0.548485        14.9250 
 150   0.0000       0.559673        15.2295 
 151   0.0000       0.565863        15.3979 
 152   0.0000       0.594541        16.1783 
 153   0.0000       0.596857        16.2413 
 154   0.0000       0.607544        16.5321 
 155   0.0000       0.609692        16.5906 
 156   0.0000       0.633781        17.2460 
 157   0.0000       0.640490        17.4286 
 158   0.0000       0.647543        17.6205 
 159   0.0000       0.662118        18.0172 
 160   0.0000       0.687413        18.7055 
 161   0.0000       0.700142        19.0518 
 162   0.0000       0.713577        19.4174 
 163   0.0000       0.718835        19.5605 
 164   0.0000       0.732607        19.9353 
 165   0.0000       0.738106        20.0849 
 166   0.0000       0.739826        20.1317 
 167   0.0000       0.745114        20.2756 
 168   0.0000       0.756709        20.5911 
 169   0.0000       0.782590        21.2953 
 170   0.0000       0.794804        21.6277 
 171   0.0000       0.800132        21.7727 
 172   0.0000       0.812485        22.1089 
 173   0.0000       0.828314        22.5396 
 174   0.0000       0.837187        22.7810 
 175   0.0000       0.843775        22.9603 
 176   0.0000       0.850451        23.1419 
 177   0.0000       0.885839        24.1049 
 178   0.0000       0.889584        24.2068 
 179   0.0000       0.903358        24.5816 
 180   0.0000       0.912163        24.8212 
 181   0.0000       0.922026        25.0896 
 182   0.0000       0.938263        25.5314 
 183   0.0000       0.943324        25.6692 
 184   0.0000       0.946534        25.7565 
 185   0.0000       0.962489        26.1907 
 186   0.0000       0.968865        26.3642 
 187   0.0000       0.984389        26.7866 
 188   0.0000       0.993701        27.0400 
 189   0.0000       1.006353        27.3843 
 190   0.0000       1.010103        27.4863 
 191   0.0000       1.019372        27.7385 
 192   0.0000       1.027122        27.9494 
 193   0.0000       1.042248        28.3610 
 194   0.0000       1.070926        29.1414 
 195   0.0000       1.072027        29.1713 
 196   0.0000       1.076912        29.3043 
 197   0.0000       1.093834        29.7647 
 198   0.0000       1.101689        29.9785 
 199   0.0000       1.119751        30.4700 
 200   0.0000       1.132139        30.8071 
 201   0.0000       1.142051        31.0768 
 202   0.0000       1.147566        31.2269 
 203   0.0000       1.161274        31.5999 
 204   0.0000       1.187573        32.3155 
 205   0.0000       1.202772        32.7291 
 206   0.0000       1.212476        32.9932 
 207   0.0000       1.220104        33.2007 
 208   0.0000       1.229098        33.4455 
 209   0.0000       1.240982        33.7688 
 210   0.0000       1.250941        34.0398 
 211   0.0000       1.260282        34.2940 
 212   0.0000       1.299432        35.3593 
 213   0.0000       1.307402        35.5762 
 214   0.0000       1.330747        36.2115 
 215   0.0000       1.334818        36.3222 
 216   0.0000       1.346984        36.6533 
 217   0.0000       1.353599        36.8333 
 218   0.0000       1.362449        37.0741 
 219   0.0000       1.369639        37.2698 
 220   0.0000       1.376350        37.4524 
 221   0.0000       1.398148        38.0455 
 222   0.0000       1.415606        38.5206 
 223   0.0000       1.438027        39.1307 
 224   0.0000       1.446073        39.3497 
 225   0.0000       1.453354        39.5478 
 226   0.0000       1.462016        39.7835 
 227   0.0000       1.470825        40.0232 
 228   0.0000       1.478190        40.2236 
 229   0.0000       1.479233        40.2520 
 230   0.0000       1.488026        40.4912 
 231   0.0000       1.490655        40.5628 
 232   0.0000       1.500771        40.8381 
 233   0.0000       1.507346        41.0170 
 234   0.0000       1.511038        41.1174 
 235   0.0000       1.512530        41.1580 
 236   0.0000       1.534905        41.7669 
 237   0.0000       1.545354        42.0512 
 238   0.0000       1.553755        42.2798 
 239   0.0000       1.563613        42.5481 
 240   0.0000       1.572969        42.8027 
 241   0.0000       1.579338        42.9760 
 242   0.0000       1.585457        43.1425 
 243   0.0000       1.589776        43.2600 
 244   0.0000       1.599134        43.5147 
 245   0.0000       1.605762        43.6950 
 246   0.0000       1.611690        43.8563 
 247   0.0000       1.640769        44.6476 
 248   0.0000       1.650074        44.9008 
 249   0.0000       1.660491        45.1842 
 250   0.0000       1.667456        45.3738 
 251   0.0000       1.684446        45.8361 
 252   0.0000       1.689288        45.9679 
 253   0.0000       1.709690        46.5230 
 254   0.0000       1.716468        46.7075 
 255   0.0000       1.730300        47.0839 
 256   0.0000       1.744238        47.4631 
 257   0.0000       1.746497        47.5246 
 258   0.0000       1.770382        48.1746 
 259   0.0000       1.782809        48.5127 
 260   0.0000       1.791803        48.7574 
 261   0.0000       1.798048        48.9274 
 262   0.0000       1.815469        49.4014 
 263   0.0000       1.822585        49.5951 
 264   0.0000       1.832954        49.8772 
 265   0.0000       1.837099        49.9900 
 266   0.0000       1.841085        50.0985 
 267   0.0000       1.846653        50.2500 
 268   0.0000       1.869501        50.8717 
 269   0.0000       1.883060        51.2407 
 270   0.0000       1.890924        51.4547 
 271   0.0000       1.907847        51.9151 
 272   0.0000       1.917046        52.1655 
 273   0.0000       1.925503        52.3956 
 274   0.0000       1.941025        52.8180 
 275   0.0000       1.945983        52.9529 
 276   0.0000       1.954457        53.1835 
 277   0.0000       1.968915        53.5769 
 278   0.0000       1.982288        53.9408 
 279   0.0000       1.988730        54.1161 
 280   0.0000       1.994142        54.2634 
 281   0.0000       2.002985        54.5040 
 282   0.0000       2.027645        55.1750 
 283   0.0000       2.052120        55.8410 
 284   0.0000       2.063030        56.1379 
 285   0.0000       2.080511        56.6136 
 286   0.0000       2.090508        56.8856 
 287   0.0000       2.096054        57.0365 
 288   0.0000       2.114271        57.5322 
 289   0.0000       2.122962        57.7687 
 290   0.0000       2.133858        58.0652 
 291   0.0000       2.144247        58.3479 
 292   0.0000       2.162867        58.8546 
 293   0.0000       2.168599        59.0106 
 294   0.0000       2.185659        59.4748 
 295   0.0000       2.197354        59.7930 
 296   0.0000       2.211851        60.1875 
 297   0.0000       2.219819        60.4043 
 298   0.0000       2.227234        60.6061 
 299   0.0000       2.237838        60.8947 
 300   0.0000       2.242091        61.0104 
 301   0.0000       2.258577        61.4590 
 302   0.0000       2.268184        61.7204 
 303   0.0000       2.272101        61.8270 
 304   0.0000       2.288058        62.2612 
 305   0.0000       2.292956        62.3945 
 306   0.0000       2.296236        62.4837 
 307   0.0000       2.298019        62.5323 
 308   0.0000       2.305224        62.7283 
 309   0.0000       2.329967        63.4016 
 310   0.0000       2.344689        63.8022 
 311   0.0000       2.353593        64.0445 
 312   0.0000       2.374498        64.6134 
 313   0.0000       2.381810        64.8123 
 314   0.0000       2.390131        65.0388 
 315   0.0000       2.395425        65.1828 
 316   0.0000       2.412657        65.6517 
 317   0.0000       2.418420        65.8085 
 318   0.0000       2.438230        66.3476 
 319   0.0000       2.442714        66.4696 
 320   0.0000       2.451674        66.7135 
 321   0.0000       2.467908        67.1552 
 322   0.0000       2.474476        67.3339 
 323   0.0000       2.483677        67.5843 
 324   0.0000       2.490033        67.7572 
 325   0.0000       2.501611        68.0723 
 326   0.0000       2.504128        68.1408 
 327   0.0000       2.510577        68.3163 
 328   0.0000       2.532224        68.9053 
 329   0.0000       2.535288        68.9887 
 330   0.0000       2.546101        69.2829 
 331   0.0000       2.548689        69.3534 
 332   0.0000       2.560741        69.6813 
 333   0.0000       2.570156        69.9375 
 334   0.0000       2.590021        70.4781 
 335   0.0000       2.599121        70.7257 
 336   0.0000       2.605744        70.9059 
 337   0.0000       2.618345        71.2488 
 338   0.0000       2.623188        71.3806 
 339   0.0000       2.632355        71.6300 
 340   0.0000       2.641497        71.8788 
 341   0.0000       2.653691        72.2106 
 342   0.0000       2.667409        72.5839 
 343   0.0000       2.679995        72.9264 
 344   0.0000       2.701243        73.5046 
 345   0.0000       2.713791        73.8460 
 346   0.0000       2.734545        74.4107 
 347   0.0000       2.739385        74.5424 
 348   0.0000       2.763952        75.2110 
 349   0.0000       2.775645        75.5291 
 350   0.0000       2.780197        75.6530 
 351   0.0000       2.796071        76.0850 
 352   0.0000       2.803037        76.2745 
 353   0.0000       2.813465        76.5583 
 354   0.0000       2.829794        77.0026 
 355   0.0000       2.852312        77.6154 
 356   0.0000       2.857126        77.7463 
 357   0.0000       2.876393        78.2706 
 358   0.0000       2.880024        78.3694 
 359   0.0000       2.890018        78.6414 
 360   0.0000       2.910913        79.2100 
 361   0.0000       2.913469        79.2795 
 362   0.0000       2.918603        79.4192 
 363   0.0000       2.934778        79.8594 
 364   0.0000       2.942544        80.0707 
 365   0.0000       2.963581        80.6431 
 366   0.0000       2.974551        80.9416 
 367   0.0000       2.984862        81.2222 
 368   0.0000       2.991384        81.3997 
 369   0.0000       3.000479        81.6472 
 370   0.0000       3.014188        82.0202 
 371   0.0000       3.022434        82.2446 
 372   0.0000       3.044718        82.8510 
 373   0.0000       3.048573        82.9559 
 374   0.0000       3.054598        83.1198 
 375   0.0000       3.066485        83.4433 
 376   0.0000       3.083311        83.9012 
 377   0.0000       3.085080        83.9493 
 378   0.0000       3.090383        84.0936 
 379   0.0000       3.095673        84.2375 
 380   0.0000       3.110592        84.6435 
 381   0.0000       3.113752        84.7295 
 382   0.0000       3.120404        84.9105 
 383   0.0000       3.136532        85.3494 
 384   0.0000       3.143050        85.5267 
 385   0.0000       3.166234        86.1576 
 386   0.0000       3.169176        86.2377 
 387   0.0000       3.177206        86.4562 
 388   0.0000       3.179334        86.5141 
 389   0.0000       3.195991        86.9673 
 390   0.0000       3.203339        87.1673 
 391   0.0000       3.213491        87.4435 
 392   0.0000       3.218786        87.5876 
 393   0.0000       3.236476        88.0690 
 394   0.0000       3.242947        88.2451 
 395   0.0000       3.253379        88.5289 
 396   0.0000       3.259502        88.6956 
 397   0.0000       3.265052        88.8466 
 398   0.0000       3.278269        89.2062 
 399   0.0000       3.292430        89.5916 
 400   0.0000       3.296905        89.7133 
 401   0.0000       3.306421        89.9723 
 402   0.0000       3.317804        90.2820 
 403   0.0000       3.335388        90.7605 
 404   0.0000       3.337171        90.8090 
 405   0.0000       3.347867        91.1001 
 406   0.0000       3.353752        91.2602 
 407   0.0000       3.365243        91.5729 
 408   0.0000       3.382659        92.0468 
 409   0.0000       3.391708        92.2931 
 410   0.0000       3.402848        92.5962 
 411   0.0000       3.425788        93.2204 
 412   0.0000       3.434959        93.4700 
 413   0.0000       3.442781        93.6828 
 414   0.0000       3.449339        93.8613 
 415   0.0000       3.465060        94.2891 
 416   0.0000       3.480923        94.7207 
 417   0.0000       3.484395        94.8152 
 418   0.0000       3.491443        95.0070 
 419   0.0000       3.514295        95.6288 
 420   0.0000       3.529072        96.0309 
 421   0.0000       3.547616        96.5355 
 422   0.0000       3.600604        97.9774 
 423   0.0000       3.625730        98.6611 
 424   0.0000       3.638362        99.0049 
 425   0.0000       3.649931        99.3197 
 426   0.0000       3.660239        99.6002 
 427   0.0000       3.676398       100.0399 
 428   0.0000       3.691765       100.4580 
 429   0.0000       3.697596       100.6167 
 430   0.0000       3.708375       100.9100 
 431   0.0000       3.728034       101.4450 
 432   0.0000       3.749375       102.0257 
 433   0.0000       3.757081       102.2354 
 434   0.0000       3.768800       102.5543 
 435   0.0000       3.788891       103.1010 
 436   0.0000       3.797841       103.3445 
 437   0.0000       3.828223       104.1712 
 438   0.0000       3.833709       104.3205 
 439   0.0000       3.854161       104.8771 
 440   0.0000       3.879943       105.5786 
 441   0.0000       3.901260       106.1587 
 442   0.0000       3.915779       106.5538 
 443   0.0000       3.953003       107.5667 
 444   0.0000       3.970971       108.0556 
 445   0.0000       3.994404       108.6933 
 446   0.0000       4.016854       109.3042 
 447   0.0000       4.043111       110.0186 
 448   0.0000       4.069531       110.7376 
 449   0.0000       4.077348       110.9503 
 450   0.0000       4.099309       111.5479 
 451   0.0000       4.127155       112.3056 
 452   0.0000       4.146699       112.8374 
 453   0.0000       4.159817       113.1944 
 454   0.0000       4.206366       114.4610 
 455   0.0000       4.217697       114.7694 
 456   0.0000       4.233581       115.2016 
 457   0.0000       4.271632       116.2370 
 458   0.0000       4.287530       116.6696 
 459   0.0000       4.298149       116.9586 
 460   0.0000       4.319962       117.5521 
 461   0.0000       4.323235       117.6412 
 462   0.0000       4.347661       118.3059 
 463   0.0000       4.352485       118.4371 
 464   0.0000       4.367699       118.8511 
 465   0.0000       4.404375       119.8491 
 466   0.0000       4.417810       120.2147 
 467   0.0000       4.439333       120.8004 
 468   0.0000       4.449784       121.0848 
 469   0.0000       4.460135       121.3664 
 470   0.0000       4.493258       122.2678 
 471   0.0000       4.516963       122.9128 
 472   0.0000       4.529406       123.2514 
 473   0.0000       4.541365       123.5768 
 474   0.0000       4.559590       124.0727 
 475   0.0000       4.575194       124.4974 
 476   0.0000       4.608492       125.4035 
 477   0.0000       4.627707       125.9263 
 478   0.0000       4.638668       126.2246 
 479   0.0000       4.671968       127.1307 
 480   0.0000       4.688741       127.5871 
 481   0.0000       4.703011       127.9754 
 482   0.0000       4.718240       128.3898 
 483   0.0000       4.739159       128.9591 
 484   0.0000       4.782697       130.1438 
 485   0.0000       4.828373       131.3867 
 486   0.0000       4.867443       132.4499 
 487   0.0000       4.890676       133.0820 
 488   0.0000       4.922016       133.9349 
 489   0.0000       4.933924       134.2589 
 490   0.0000       4.939623       134.4140 
 491   0.0000       4.952916       134.7757 
 492   0.0000       4.966696       135.1507 
 493   0.0000       5.006351       136.2297 
 494   0.0000       5.022878       136.6795 
 495   0.0000       5.096815       138.6914 
 496   0.0000       5.109635       139.0402 
 497   0.0000       5.126339       139.4948 
 498   0.0000       5.132846       139.6718 
 499   0.0000       5.143284       139.9559 
 500   0.0000       5.188956       141.1987 
 501   0.0000       5.199655       141.4898 
 502   0.0000       5.208106       141.7198 
 503   0.0000       5.221129       142.0742 
 504   0.0000       5.225027       142.1802 
 505   0.0000       5.266317       143.3038 
 506   0.0000       5.321118       144.7950 
 507   0.0000       5.348586       145.5424 
 508   0.0000       5.391264       146.7038 
 509   0.0000       5.429456       147.7430 
 510   0.0000       5.486396       149.2924 
 511   0.0000       5.497861       149.6044 
 512   0.0000       5.566731       151.4784 
 513   0.0000       5.586507       152.0166 
 514   0.0000       5.639271       153.4524 
 515   0.0000       5.682945       154.6408 
 516   0.0000       5.791345       157.5905 
 517   0.0000       5.816614       158.2781 
 518   0.0000       6.002917       163.3477 
 519   0.0000       6.023324       163.9030 
 520   0.0000       6.212750       169.0575 
 521   0.0000       6.217968       169.1995 
 522   0.0000       6.353572       172.8895 
 523   0.0000       6.363111       173.1490 
 524   0.0000       6.468081       176.0054 
 525   0.0000       6.473358       176.1490 
 526   0.0000       6.564482       178.6286 
 527   0.0000       6.574803       178.9095 
 528   0.0000       6.750426       183.6884 
 529   0.0000       6.753774       183.7795 
 530   0.0000       6.966321       189.5632 
 531   0.0000       6.987227       190.1321 
 532   0.0000       6.995329       190.3526 
 533   0.0000       7.003109       190.5643 
 534   0.0000      22.093837       601.2039 
 535   0.0000      22.326427       607.5330 
 536   0.0000      22.361690       608.4925 
 537   0.0000      22.392160       609.3216 
 538   0.0000      22.464782       611.2978 
 539   0.0000      22.544229       613.4597 
 540   0.0000      22.694197       617.5405 
 541   0.0000      23.271206       633.2417 
 542   0.0000      23.298760       633.9915 
 543   0.0000      31.716198       863.0416 
 544   0.0000      32.400774       881.6699 
 545   0.0000      32.575538       886.4255 
 546   0.0000      43.984717      1196.8850 
 547   0.0000      44.057631      1198.8691 

                 SPIN DOWN ORBITALS
  NO   OCC          E(Eh)            E(eV) 
   0   1.0000     -19.691283      -535.8271 
   1   1.0000     -19.671213      -535.2809 
   2   1.0000     -15.077532      -410.2805 
   3   1.0000     -14.872730      -404.7076 
   4   1.0000     -14.857363      -404.2894 
   5   1.0000     -10.784139      -293.4513 
   6   1.0000     -10.743296      -292.3400 
   7   1.0000     -10.727654      -291.9143 
   8   1.0000     -10.712294      -291.4963 
   9   1.0000     -10.688193      -290.8405 
  10   1.0000     -10.668311      -290.2995 
  11   1.0000     -10.653974      -289.9094 
  12   1.0000     -10.651333      -289.8375 
  13   1.0000     -10.617654      -288.9211 
  14   1.0000      -1.310683       -35.6655 
  15   1.0000      -1.254755       -34.1436 
  16   1.0000      -1.234246       -33.5856 
  17   1.0000      -1.125373       -30.6230 
  18   1.0000      -1.117355       -30.4048 
  19   1.0000      -1.051706       -28.6184 
[...]
     47       0.000037  -0.022336  -0.694827
     48       0.000009  -0.000477  -0.000011
     49      -0.000007   0.000381   0.000013
     50      -0.000002   0.001550   0.000014
     51      -0.486705   0.000094   0.000358
     52       0.061024   0.000052  -0.000011
     53       0.127909  -0.000013  -0.000112
     54      -0.000001  -0.000035  -0.000893
     55      -0.000004  -0.000018   0.000684
     56       0.000017  -0.000086  -0.000785
     57      -0.000010  -0.000006   0.000121
     58       0.000078   0.000000  -0.000246
     59      -0.000032   0.000231   0.000275
     60      -0.000046   0.000359   0.002013
     61      -0.000018   0.000064  -0.000036
     62       0.000005   0.000037   0.001343
     63       0.000008  -0.000249   0.006255
     64       0.000007   0.000001  -0.007103
     65       0.000009  -0.000266  -0.010013
     66       0.000002   0.000068   0.000005
     67       0.000005  -0.000129   0.000011
     68       0.000009  -0.000217   0.000017
     69      -0.000015   0.000266   0.000015
     70      -0.000000  -0.000072  -0.000019
     71      -0.000011   0.000201   0.000032
     72      -0.000008   0.000062   0.000037
     73      -0.000010   0.000168  -0.000018
     74       0.000002   0.000077   0.000005
     75       0.000017  -0.000384  -0.000060
     76      -0.000013   0.001252  -0.000015
     77      -0.000056   0.004706  -0.000088
     78      -0.000018  -0.005455   0.002485
     79       0.000050   0.005685  -0.002334
     80       0.000034   0.000557  -0.001023
     81       0.000249  -0.001707   0.000060
     82      -0.000099  -0.000492  -0.000347
     83       0.000054  -0.000038  -0.000354
     84      -0.000116   0.000626   0.000153
     85      -0.000043   0.000872  -0.000313
     86      -0.000257  -0.000493   0.000518
     87      -0.000035  -0.000681   0.000106
     88      -0.000084  -0.000372   0.000295
     89       0.000122  -0.000574   0.000127
     90       0.000181  -0.000361   0.000040
     91      -0.000092   0.000799   0.000062
     92      -0.000057   0.000452  -0.000012
     93       0.003774  -0.000169  -0.000079
     94       0.000803  -0.000088  -0.000034
     95       0.000069   0.000077  -0.000029
     96      -0.000184   0.000081   0.000037
     97       0.000051   0.000119  -0.000030
     98      -0.000658  -0.000069   0.000087


-----------
IR SPECTRUM
-----------

 Mode   freq       eps      Int      T**2         TX        TY        TZ
       cm**-1   L/(mol*cm) km/mol    a.u.
----------------------------------------------------------------------------
  6:     26.23   0.002610   13.19  0.031062  ( 0.138689  0.069870  0.083339)
  7:     36.60   0.000217    1.10  0.001852  ( 0.020215 -0.010829 -0.036418)
  8:     59.60   0.001539    7.78  0.008058  (-0.026910 -0.062697  0.058333)
  9:     66.22   0.000994    5.02  0.004683  ( 0.042288 -0.042474  0.033023)
 10:     74.80   0.000970    4.90  0.004049  ( 0.038868 -0.033040 -0.038033)
 11:     88.43   0.002345   11.85  0.008274  ( 0.006217  0.079169 -0.044361)
 12:    103.00   0.000536    2.71  0.001623  (-0.007687 -0.032556  0.022457)
 13:    110.38   0.001461    7.38  0.004129  ( 0.030799  0.031001  0.047114)
 14:    115.51   0.000670    3.39  0.001810  ( 0.014505  0.028345  0.028219)
 15:    129.10   0.000918    4.64  0.002219  (-0.019941 -0.037056 -0.021169)
 16:    146.36   0.000504    2.55  0.001075  ( 0.031048  0.008730  0.005889)
 17:    168.37   0.001691    8.55  0.003134  (-0.048128 -0.024867 -0.014137)
 18:    184.11   0.001251    6.32  0.002121  ( 0.011684  0.044543  0.000357)
 19:    216.55   0.002150   10.86  0.003098  ( 0.002834  0.055324 -0.005416)
 20:    251.18   0.001355    6.85  0.001684  ( 0.031705  0.018001  0.018832)
 21:    294.13   0.000867    4.38  0.000920  (-0.027796 -0.000009 -0.012128)
 22:    314.95   0.000322    1.63  0.000319  ( 0.014555 -0.009001 -0.005125)
 23:    347.34   0.000225    1.14  0.000202  ( 0.003970 -0.002806 -0.013368)
 24:    383.78   0.004486   22.67  0.003647  ( 0.042378  0.001013  0.043017)
 25:    410.45   0.000609    3.08  0.000463  ( 0.012361 -0.001912 -0.017502)
 26:    468.16   0.009363   47.31  0.006241  (-0.062554 -0.039969 -0.027026)
 27:    487.94   0.005665   28.63  0.003623  ( 0.022651  0.039761 -0.039100)
 28:    512.76   0.005055   25.54  0.003076  ( 0.020954  0.046581 -0.021619)
 29:    548.26   0.016777   84.79  0.009549  ( 0.034398  0.091397 -0.003580)
 30:    573.41   0.004395   22.21  0.002392  ( 0.029858 -0.034106  0.018359)
 31:    657.30   0.003399   17.18  0.001614  ( 0.017272  0.033589  0.013682)
 32:    670.70   0.000542    2.74  0.000252  (-0.010156 -0.005214 -0.011033)
 33:    706.19   0.000079    0.40  0.000035  (-0.004877  0.003021  0.001412)
 34:    747.91   0.000632    3.19  0.000264  ( 0.013440  0.007745  0.004797)
 35:    813.27   0.000105    0.53  0.000040  ( 0.000481  0.006211 -0.001213)
 36:    847.29   0.001545    7.81  0.000569  (-0.011864 -0.000030 -0.020697)
 37:    894.06   0.000505    2.55  0.000176  (-0.008872  0.009753 -0.001514)
 38:    914.40   0.001195    6.04  0.000408  ( 0.001284  0.019875 -0.003336)
 39:    948.30   0.002895   14.63  0.000953  ( 0.018579 -0.023856 -0.006190)
 40:   1008.65   0.000459    2.32  0.000142  (-0.007559 -0.008378 -0.003823)
 41:   1014.91   0.000405    2.05  0.000125  (-0.000629  0.001668  0.011018)
 42:   1025.84   0.002375   12.00  0.000722  ( 0.010508  0.004164  0.024386)
 43:   1030.85   0.001739    8.79  0.000526  ( 0.022837 -0.001147  0.001883)
 44:   1065.00   0.001486    7.51  0.000435  (-0.001964 -0.020593  0.002714)
 45:   1068.33   0.000580    2.93  0.000170  ( 0.012907  0.001008  0.001376)
 46:   1073.35   0.001854    9.37  0.000539  ( 0.015780 -0.013682  0.010135)
 47:   1085.60   0.001690    8.54  0.000486  ( 0.010070  0.010913 -0.016291)
 48:   1113.23   0.000249    1.26  0.000070  (-0.000320 -0.008184 -0.001641)
 49:   1158.87   0.001875    9.48  0.000505  (-0.012573  0.016198 -0.009187)
 50:   1163.12   0.001403    7.09  0.000376  (-0.018477  0.001002 -0.005824)
 51:   1175.06   0.003496   17.67  0.000928  ( 0.006541  0.024481  0.016918)
 52:   1183.16   0.005564   28.12  0.001467  (-0.028962  0.020237 -0.014801)
 53:   1218.00   0.000908    4.59  0.000233  (-0.014519 -0.003770 -0.002781)
 54:   1241.41   0.006805   34.39  0.001711  (-0.025084  0.005429 -0.032433)
 55:   1274.03   0.005250   26.53  0.001286  ( 0.029818  0.001778  0.019845)
 56:   1280.46   0.004246   21.46  0.001035  ( 0.010190  0.028279 -0.011452)
 57:   1297.60   0.004061   20.52  0.000977  (-0.020749  0.000733 -0.023357)
 58:   1327.41   0.006161   31.13  0.001448  ( 0.015499  0.013615  0.031981)
 59:   1342.97   0.000936    4.73  0.000217  (-0.012425 -0.001961 -0.007694)
 60:   1372.75   0.001976    9.99  0.000449  ( 0.017104 -0.003485  0.012021)
 61:   1392.20   0.001399    7.07  0.000314  ( 0.000916  0.007150 -0.016178)
 62:   1411.87   0.010130   51.19  0.002239  ( 0.037020  0.007825  0.028413)
 63:   1414.23   0.002653   13.41  0.000585  (-0.005837  0.023449  0.001186)
 64:   1420.90   0.003689   18.64  0.000810  (-0.003873 -0.022736  0.016684)
 65:   1451.42   0.003858   19.50  0.000830  ( 0.016832 -0.019981 -0.012125)
 66:   1460.30   0.001459    7.37  0.000312  ( 0.005275 -0.016112 -0.004935)
 67:   1473.31   0.003205   16.20  0.000679  (-0.005231  0.012316 -0.022357)
 68:   1487.83   0.005797   29.30  0.001216  (-0.005670 -0.001736 -0.034362)
 69:   1490.13   0.006552   33.11  0.001372  (-0.021924 -0.016731 -0.024728)
 70:   1501.26   0.004152   20.98  0.000863  ( 0.017737  0.013741  0.018962)
 71:   1502.52   0.002271   11.48  0.000472  (-0.019579  0.005616  0.007534)
 72:   1509.63   0.012894   65.16  0.002665  ( 0.026690 -0.011964  0.042543)
 73:   1514.46   0.027586  139.41  0.005684  (-0.029520 -0.057781  0.038397)
 74:   1542.82   0.087290  441.13  0.017656  (-0.105421 -0.016164 -0.079254)
 75:   1593.73   0.032430  163.89  0.006350  (-0.055738  0.040786 -0.039747)
 76:   1640.96   0.010246   51.78  0.001948  (-0.031051 -0.016470 -0.026702)
 77:   1645.71   0.007893   39.89  0.001497  (-0.030194  0.020877  0.012216)
 78:   1777.33   0.080560  407.12  0.014145  ( 0.066486 -0.040440 -0.089939)
 79:   1792.32   0.019134   96.69  0.003331  ( 0.051868 -0.021956  0.012613)
 80:   2985.58   0.001797    9.08  0.000188  (-0.002695 -0.010981  0.007744)
 81:   3042.35   0.000822    4.15  0.000084  (-0.007153 -0.005356  0.002108)
 82:   3071.54   0.000929    4.70  0.000094  ( 0.002792  0.009297 -0.000418)
 83:   3077.70   0.001677    8.48  0.000170  (-0.004660  0.002354 -0.011951)
 84:   3083.59   0.005168   26.11  0.000523  (-0.021525  0.007641 -0.001116)
 85:   3086.47   0.004538   22.93  0.000459  (-0.011664  0.006609 -0.016705)
 86:   3089.88   0.000373    1.89  0.000038  ( 0.003211 -0.003181 -0.004154)
 87:   3120.37   0.000151    0.77  0.000015  (-0.002744 -0.002346 -0.001455)
 88:   3138.99   0.001898    9.59  0.000189  ( 0.009961 -0.007088  0.006263)
 89:   3158.21   0.001638    8.28  0.000162  (-0.008761 -0.009117  0.001412)
 90:   3170.92   0.000325    1.64  0.000032  ( 0.004304 -0.002358 -0.002814)
 91:   3185.44   0.000916    4.63  0.000090  (-0.003412  0.001370  0.008732)
 92:   3197.21   0.000014    0.07  0.000001  (-0.000955  0.000474 -0.000439)
 93:   3246.86   0.000472    2.39  0.000045  (-0.005755 -0.002361  0.002587)
 94:   3351.33   0.010428   52.70  0.000971  ( 0.005940 -0.018920  0.024036)
 95:   3431.43   0.021481  108.56  0.001954  (-0.038752 -0.015632 -0.014404)
 96:   3477.61   0.026180  132.30  0.002349  (-0.018450  0.036339  0.026236)
 97:   3616.94   0.018891   95.47  0.001630  (-0.004191  0.003269  0.040021)
 98:   3646.38   0.009737   49.21  0.000833  ( 0.021273 -0.016257 -0.010794)

* The epsilon (eps) is given for a Dirac delta lineshape.
** The dipole moment derivative (T) already includes vibrational overlap.

The first frequency considered to be a vibration is 6
The total number of vibrations considered is 93


--------------------------
THERMOCHEMISTRY AT 298.15K
--------------------------

Temperature         ... 298.15 K
Pressure            ... 1.00 atm
Total Mass          ... 201.27 AMU

Throughout the following assumptions are being made:
  (1) The electronic state is orbitally nondegenerate
      but the spin degeneracy is treated
  (2) There are no thermally accessible electronically excited states
  (3) Hindered rotations indicated by low frequency modes are not
      treated as such but are treated as vibrations and this may
      cause some error
  (4) All equations used are the standard statistical mechanics
      equations for an ideal gas
  (5) All vibrations are strictly harmonic

freq.      26.23  E(vib)   ...       0.56 
freq.      36.60  E(vib)   ...       0.54 
freq.      59.60  E(vib)   ...       0.51 
freq.      66.22  E(vib)   ...       0.50 
freq.      74.80  E(vib)   ...       0.49 
freq.      88.43  E(vib)   ...       0.48 
freq.     103.00  E(vib)   ...       0.46 
freq.     110.38  E(vib)   ...       0.45 
freq.     115.51  E(vib)   ...       0.44 
freq.     129.10  E(vib)   ...       0.43 
freq.     146.36  E(vib)   ...       0.41 
freq.     168.37  E(vib)   ...       0.38 
freq.     184.11  E(vib)   ...       0.37 
freq.     216.55  E(vib)   ...       0.34 
freq.     251.18  E(vib)   ...       0.30 
freq.     294.13  E(vib)   ...       0.27 
freq.     314.95  E(vib)   ...       0.25 
freq.     347.34  E(vib)   ...       0.23 
freq.     383.78  E(vib)   ...       0.20 
freq.     410.45  E(vib)   ...       0.19 
freq.     468.16  E(vib)   ...       0.16 
freq.     487.94  E(vib)   ...       0.15 
freq.     512.76  E(vib)   ...       0.13 
freq.     548.26  E(vib)   ...       0.12 
freq.     573.41  E(vib)   ...       0.11 
freq.     657.30  E(vib)   ...       0.08 
freq.     670.70  E(vib)   ...       0.08 
freq.     706.19  E(vib)   ...       0.07 
freq.     747.91  E(vib)   ...       0.06 
freq.     813.27  E(vib)   ...       0.05 
freq.     847.29  E(vib)   ...       0.04 
freq.     894.06  E(vib)   ...       0.03 
freq.     914.40  E(vib)   ...       0.03 
freq.     948.30  E(vib)   ...       0.03 
freq.    1008.65  E(vib)   ...       0.02 
freq.    1014.91  E(vib)   ...       0.02 
freq.    1025.84  E(vib)   ...       0.02 
freq.    1030.85  E(vib)   ...       0.02 
freq.    1065.00  E(vib)   ...       0.02 
freq.    1068.33  E(vib)   ...       0.02 
freq.    1073.35  E(vib)   ...       0.02 
freq.    1085.60  E(vib)   ...       0.02 
freq.    1113.23  E(vib)   ...       0.01 
freq.    1158.87  E(vib)   ...       0.01 
freq.    1163.12  E(vib)   ...       0.01 
freq.    1175.06  E(vib)   ...       0.01 
freq.    1183.16  E(vib)   ...       0.01 
freq.    1218.00  E(vib)   ...       0.01 
freq.    1241.41  E(vib)   ...       0.01 
freq.    1274.03  E(vib)   ...       0.01 
freq.    1280.46  E(vib)   ...       0.01 
freq.    1297.60  E(vib)   ...       0.01 
freq.    1327.41  E(vib)   ...       0.01 
freq.    1342.97  E(vib)   ...       0.01 
freq.    1372.75  E(vib)   ...       0.01 
freq.    1392.20  E(vib)   ...       0.00 
freq.    1411.87  E(vib)   ...       0.00 
freq.    1414.23  E(vib)   ...       0.00 
freq.    1420.90  E(vib)   ...       0.00 
freq.    1451.42  E(vib)   ...       0.00 
freq.    1460.30  E(vib)   ...       0.00 
freq.    1473.31  E(vib)   ...       0.00 
freq.    1487.83  E(vib)   ...       0.00 
freq.    1490.13  E(vib)   ...       0.00 
freq.    1501.26  E(vib)   ...       0.00 
freq.    1502.52  E(vib)   ...       0.00 
freq.    1509.63  E(vib)   ...       0.00 
freq.    1514.46  E(vib)   ...       0.00 
freq.    1542.82  E(vib)   ...       0.00 
freq.    1593.73  E(vib)   ...       0.00 
freq.    1640.96  E(vib)   ...       0.00 
freq.    1645.71  E(vib)   ...       0.00 
freq.    1777.33  E(vib)   ...       0.00 
freq.    1792.32  E(vib)   ...       0.00 
freq.    2985.58  E(vib)   ...       0.00 
freq.    3042.35  E(vib)   ...       0.00 
freq.    3071.54  E(vib)   ...       0.00 
freq.    3077.70  E(vib)   ...       0.00 
freq.    3083.59  E(vib)   ...       0.00 
freq.    3086.47  E(vib)   ...       0.00 
freq.    3089.88  E(vib)   ...       0.00 
freq.    3120.37  E(vib)   ...       0.00 
freq.    3138.99  E(vib)   ...       0.00 
freq.    3158.21  E(vib)   ...       0.00 
freq.    3170.92  E(vib)   ...       0.00 
freq.    3185.44  E(vib)   ...       0.00 
freq.    3197.21  E(vib)   ...       0.00 
freq.    3246.86  E(vib)   ...       0.00 
freq.    3351.33  E(vib)   ...       0.00 
freq.    3431.43  E(vib)   ...       0.00 
freq.    3477.61  E(vib)   ...       0.00 
freq.    3616.94  E(vib)   ...       0.00 
freq.    3646.38  E(vib)   ...       0.00 

------------
INNER ENERGY
------------

The inner energy is: U= E(el) + E(ZPE) + E(vib) + E(rot) + E(trans)
    E(el)   - is the total energy from the electronic structure calculation
              = E(kin-el) + E(nuc-el) + E(el-el) + E(nuc-nuc)
    E(ZPE)  - the the zero temperature vibrational energy from the frequency calculation
    E(vib)  - the the finite temperature correction to E(ZPE) due to population
              of excited vibrational states
    E(rot)  - is the rotational thermal energy
    E(trans)- is the translational thermal energy

Summary of contributions to the inner energy U:
Electronic energy                ...   -668.79899593 Eh
Zero point energy                ...      0.29169516 Eh     183.04 kcal/mol
Thermal vibrational correction   ...      0.01476934 Eh       9.27 kcal/mol
Thermal rotational correction    ...      0.00141627 Eh       0.89 kcal/mol
Thermal translational correction ...      0.00141627 Eh       0.89 kcal/mol
-----------------------------------------------------------------------
Total thermal energy                   -668.48969889 Eh


Summary of corrections to the electronic energy:
(perhaps to be used in another calculation)
Total thermal correction                  0.01760189 Eh      11.05 kcal/mol
Non-thermal (ZPE) correction              0.29169516 Eh     183.04 kcal/mol
-----------------------------------------------------------------------
Total correction                          0.30929704 Eh     194.09 kcal/mol


--------
ENTHALPY
--------

The enthalpy is H = U + kB*T
                kB is Boltzmann's constant
Total free energy                 ...   -668.48969889 Eh 
Thermal Enthalpy correction       ...      0.00094421 Eh       0.59 kcal/mol
-----------------------------------------------------------------------
Total Enthalpy                    ...   -668.48875468 Eh


Note: Only C1 symmetry has been detected, increase convergence thresholds 
      if your molecule has a higher symmetry. Symmetry factor of 1.0 is   
      used for the rotational entropy correction. 
 

Note: Rotational entropy computed according to Herzberg 
Infrared and Raman Spectra, Chapter V,1, Van Nostrand Reinhold, 1945 
Point Group:  C1, Symmetry Number:   1  
Rotational constants in cm-1:     0.019743     0.013782     0.009234 

Vibrational entropy computed according to the QRRHO of S. Grimme
Chem.Eur.J. 2012 18 9955


-------
ENTROPY
-------

The entropy contributions are T*S = T*(S(el)+S(vib)+S(rot)+S(trans))
     S(el)   - electronic entropy
     S(vib)  - vibrational entropy
     S(rot)  - rotational entropy
     S(trans)- translational entropy
The entropies will be listed as multiplied by the temperature to get
units of energy

Electronic entropy                ...      0.00065446 Eh      0.41 kcal/mol
Vibrational entropy               ...      0.02715334 Eh     17.04 kcal/mol
Rotational entropy                ...      0.01559808 Eh      9.79 kcal/mol
Translational entropy             ...      0.01986189 Eh     12.46 kcal/mol
-----------------------------------------------------------------------
Final entropy term                ...      0.06326778 Eh     39.70 kcal/mol

In case the symmetry of your molecule has not been determined correctly
or in case you have a reason to use a different symmetry number we print 
out the resulting rotational entropy values for sn=1,12 :
 --------------------------------------------------------
|  sn= 1 | S(rot)=       0.01559808 Eh      9.79 kcal/mol|
|  sn= 2 | S(rot)=       0.01494363 Eh      9.38 kcal/mol|
|  sn= 3 | S(rot)=       0.01456079 Eh      9.14 kcal/mol|
|  sn= 4 | S(rot)=       0.01428917 Eh      8.97 kcal/mol|
|  sn= 5 | S(rot)=       0.01407848 Eh      8.83 kcal/mol|
|  sn= 6 | S(rot)=       0.01390634 Eh      8.73 kcal/mol|
|  sn= 7 | S(rot)=       0.01376079 Eh      8.64 kcal/mol|
|  sn= 8 | S(rot)=       0.01363471 Eh      8.56 kcal/mol|
|  sn= 9 | S(rot)=       0.01352351 Eh      8.49 kcal/mol|
|  sn=10 | S(rot)=       0.01342403 Eh      8.42 kcal/mol|
|  sn=11 | S(rot)=       0.01333404 Eh      8.37 kcal/mol|
|  sn=12 | S(rot)=       0.01325188 Eh      8.32 kcal/mol|
 --------------------------------------------------------


-------------------
GIBBS FREE ENERGY
-------------------

The Gibbs free energy is G = H - T*S

Total enthalpy                    ...   -668.48875468 Eh 
Total entropy correction          ...     -0.06326778 Eh    -39.70 kcal/mol
-----------------------------------------------------------------------
Final Gibbs free energy         ...   -668.55202246 Eh

For completeness - the Gibbs free energy minus the electronic energy
G-E(el)                           ...      0.24697348 Eh    154.98 kcal/mol


Timings for individual modules:

Sum of individual times         ...     1546.360 sec (=  25.773 min)
GTO integral calculation        ...       36.687 sec (=   0.611 min)   2.4 %
SCF iterations                  ...      554.687 sec (=   9.245 min)  35.9 %
SCF Gradient evaluation         ...      158.905 sec (=   2.648 min)  10.3 %
Geometry relaxation             ...        0.588 sec (=   0.010 min)   0.0 %
Analytical frequency calculation...      795.492 sec (=  13.258 min)  51.4 %
                             ****ORCA TERMINATED NORMALLY****
TOTAL RUN TIME: 0 days 0 hours 26 minutes 17 seconds 454 msec
