33
Energy: -668.509609122
N      -7.840144000000000      0.901348000000000      0.071100000000000
C      -6.400419000000000      0.857304000000000      0.191631000000000
C      -6.067151000000000      0.887089000000000      1.691701000000000
O      -6.766300000000000      1.507328000000000      2.472955000000000
C      -5.702268000000000      2.035884000000000     -0.539919000000000
C      -6.173850000000000      3.415658000000000     -0.055952000000000
C      -5.545679000000000      4.541001000000000     -0.902301000000000
C      -6.046423000000000      5.878591000000000     -0.488800000000000
N      -5.510349000000000      7.059031000000000     -1.202028000000000
H      -6.993505000000000      6.068840000000000      0.009425000000000
H      -5.653773000000000      7.920591000000000     -0.664016000000000
H      -5.950339000000000      7.195621000000000     -2.123941000000000
H      -8.356477999999999      1.080152000000000      0.921427000000000
C      -8.467617000000001      0.627772000000000     -1.105738000000000
N      -4.940365000000000      0.244712000000000      2.058369000000000
H      -4.481657000000000     -0.354782000000000      1.390241000000000
O      -7.840733000000000      0.431000000000000     -2.129244000000000
H      -4.501820000000000      6.955140000000000     -1.363852000000000
C      -4.506100000000000      0.207256000000000      3.445922000000000
H      -5.185121000000000     -0.399532000000000      4.057683000000000
H      -3.499823000000000     -0.218316000000000      3.488991000000000
H      -4.490124000000000      1.222396000000000      3.855267000000000
C      -9.985226000000001      0.560392000000000     -1.050940000000000
H     -10.392423000000001      1.033958000000000     -1.949267000000000
H     -10.279375000000000     -0.496572000000000     -1.068267000000000
H     -10.405735000000000      1.027239000000000     -0.153974000000000
H      -6.034733000000000     -0.070374000000000     -0.267927000000000
H      -4.615761000000000      1.937052000000000     -0.404284000000000
H      -5.923499000000000      1.913265000000000     -1.607695000000000
H      -5.926604000000000      3.564223000000000      1.002723000000000
H      -7.267107000000000      3.471974000000000     -0.141901000000000
H      -4.444621000000000      4.513004000000000     -0.824003000000000
H      -5.778125000000000      4.366156000000000     -1.971602000000000
