
                                 *****************
                                 * O   R   C   A *
                                 *****************

                                            #,                                       
                                            ###                                      
                                            ####                                     
                                            #####                                    
                                            ######                                   
                                           ########,                                 
                                     ,,################,,,,,                         
                               ,,#################################,,                 
                          ,,##########################################,,             
                       ,#########################################, ''#####,          
                    ,#############################################,,   '####,        
                  ,##################################################,,,,####,       
                ,###########''''           ''''###############################       
              ,#####''   ,,,,##########,,,,          '''####'''          '####       
            ,##' ,,,,###########################,,,                        '##       
           ' ,,###''''                  '''############,,,                           
         ,,##''                                '''############,,,,        ,,,,,,###''
      ,#''                                            '''#######################'''  
     '                                                          ''''####''''         
             ,#######,   #######,   ,#######,      ##                                
            ,#'     '#,  ##    ##  ,#'     '#,    #''#        ######   ,####,        
            ##       ##  ##   ,#'  ##            #'  '#       #        #'  '#        
            ##       ##  #######   ##           ,######,      #####,   #    #        
            '#,     ,#'  ##    ##  '#,     ,#' ,#      #,         ##   #,  ,#        
             '#######'   ##     ##  '#######'  #'      '#     #####' # '####'        



                  #######################################################
                  #                        -***-                        #
                  #          Department of theory and spectroscopy      #
                  #    Directorship and core code : Frank Neese         #
                  #        Max Planck Institute fuer Kohlenforschung    #
                  #                Kaiser Wilhelm Platz 1               #
                  #                 D-45470 Muelheim/Ruhr               #
                  #                      Germany                        #
                  #                                                     #
                  #                  All rights reserved                #
                  #                        -***-                        #
                  #######################################################


                         Program Version 5.0.4 -  RELEASE  -


 With contributions from (in alphabetic order):
   Daniel Aravena         : Magnetic Suceptibility
   Michael Atanasov       : Ab Initio Ligand Field Theory (pilot matlab implementation)
   Alexander A. Auer      : GIAO ZORA, VPT2 properties, NMR spectrum
   Ute Becker             : Parallelization
   Giovanni Bistoni       : ED, misc. LED, open-shell LED, HFLD
   Martin Brehm           : Molecular dynamics
   Dmytro Bykov           : SCF Hessian
   Vijay G. Chilkuri      : MRCI spin determinant printing, contributions to CSF-ICE
   Dipayan Datta          : RHF DLPNO-CCSD density
   Achintya Kumar Dutta   : EOM-CC, STEOM-CC
   Dmitry Ganyushin       : Spin-Orbit,Spin-Spin,Magnetic field MRCI
   Miquel Garcia          : C-PCM and meta-GGA Hessian, CC/C-PCM, Gaussian charge scheme
   Yang Guo               : DLPNO-NEVPT2, F12-NEVPT2, CIM, IAO-localization
   Andreas Hansen         : Spin unrestricted coupled pair/coupled cluster methods
   Benjamin Helmich-Paris : MC-RPA, TRAH-SCF, COSX integrals
   Lee Huntington         : MR-EOM, pCC
   Robert Izsak           : Overlap fitted RIJCOSX, COSX-SCS-MP3, EOM
   Marcus Kettner         : VPT2
   Christian Kollmar      : KDIIS, OOCD, Brueckner-CCSD(T), CCSD density, CASPT2, CASPT2-K
   Simone Kossmann        : Meta GGA functionals, TD-DFT gradient, OOMP2, MP2 Hessian
   Martin Krupicka        : Initial AUTO-CI
   Lucas Lang             : DCDCAS
   Marvin Lechner         : AUTO-CI (C++ implementation), FIC-MRCC
   Dagmar Lenk            : GEPOL surface, SMD
   Dimitrios Liakos       : Extrapolation schemes; Compound Job, initial MDCI parallelization
   Dimitrios Manganas     : Further ROCIS development; embedding schemes
   Dimitrios Pantazis     : SARC Basis sets
   Anastasios Papadopoulos: AUTO-CI, single reference methods and gradients
   Taras Petrenko         : DFT Hessian,TD-DFT gradient, ASA, ECA, R-Raman, ABS, FL, XAS/XES, NRVS
   Peter Pinski           : DLPNO-MP2, DLPNO-MP2 Gradient
   Christoph Reimann      : Effective Core Potentials
   Marius Retegan         : Local ZFS, SOC
   Christoph Riplinger    : Optimizer, TS searches, QM/MM, DLPNO-CCSD(T), (RO)-DLPNO pert. Triples
   Tobias Risthaus        : Range-separated hybrids, TD-DFT gradient, RPA, STAB
   Michael Roemelt        : Original ROCIS implementation
   Masaaki Saitow         : Open-shell DLPNO-CCSD energy and density
   Barbara Sandhoefer     : DKH picture change effects
   Avijit Sen             : IP-ROCIS
   Kantharuban Sivalingam : CASSCF convergence, NEVPT2, FIC-MRCI
   Bernardo de Souza      : ESD, SOC TD-DFT
   Georgi Stoychev        : AutoAux, RI-MP2 NMR, DLPNO-MP2 response
   Willem Van den Heuvel  : Paramagnetic NMR
   Boris Wezisla          : Elementary symmetry handling
   Frank Wennmohs         : Technical directorship


 We gratefully acknowledge several colleagues who have allowed us to
 interface, adapt or use parts of their codes:
   Stefan Grimme, W. Hujo, H. Kruse, P. Pracht,  : VdW corrections, initial TS optimization,
                  C. Bannwarth, S. Ehlert          DFT functionals, gCP, sTDA/sTD-DF
   Ed Valeev, F. Pavosevic, A. Kumar             : LibInt (2-el integral package), F12 methods
   Garnet Chan, S. Sharma, J. Yang, R. Olivares  : DMRG
   Ulf Ekstrom                                   : XCFun DFT Library
   Mihaly Kallay                                 : mrcc  (arbitrary order and MRCC methods)
   Jiri Pittner, Ondrej Demel                    : Mk-CCSD
   Frank Weinhold                                : gennbo (NPA and NBO analysis)
   Christopher J. Cramer and Donald G. Truhlar   : smd solvation model
   Lars Goerigk                                  : TD-DFT with DH, B97 family of functionals
   V. Asgeirsson, H. Jonsson                     : NEB implementation
   FAccTs GmbH                                   : IRC, NEB, NEB-TS, DLPNO-Multilevel, CI-OPT
                                                   MM, QMMM, 2- and 3-layer-ONIOM, Crystal-QMMM,
                                                   LR-CPCM, SF, NACMEs, symmetry and pop. for TD-DFT,
                                                   nearIR, NL-DFT gradient (VV10), updates on ESD,
                                                   ML-optimized integration grids
   S Lehtola, MJT Oliveira, MAL Marques          : LibXC Library
   Liviu Ungur et al                             : ANISO software


 Your calculation uses the libint2 library for the computation of 2-el integrals
 For citations please refer to: http://libint.valeyev.net

 Your ORCA version has been built with support for libXC version: 5.1.0
 For citations please refer to: https://tddft.org/programs/libxc/

 This ORCA versions uses:
   CBLAS   interface :  Fast vector & matrix operations
   LAPACKE interface :  Fast linear algebra routines
   SCALAPACK package :  Parallel linear algebra routines
   Shared memory     :  Shared parallel matrices
   BLAS/LAPACK       :  OpenBLAS 0.3.15  USE64BITINT DYNAMIC_ARCH NO_AFFINITY Zen SINGLE_THREADED
        Core in use  :  Zen
   Copyright (c) 2011-2014, The OpenBLAS Project




***************************************
The coordinates will be read from file: model.xyz
***************************************


================================================================================

----- Orbital basis set information -----
Your calculation utilizes the basis: EPR-II
   V. Barone, in Recent Advances in Density Functional Methods, Part 1 (ed. D. P. Chong), World Scientific, Singapore, 1995, p. 287.

----- AuxJ basis set information -----
Your calculation utilizes the auxiliary basis: def2/J
   F. Weigend, Phys. Chem. Chem. Phys. 8, 1057 (2006).

================================================================================
                                        WARNINGS
                       Please study these warnings very carefully!
================================================================================


WARNING: your system is open-shell and RHF/RKS was chosen
  ===> : WILL SWITCH to UHF/UKS


WARNING: Geometry Optimization
  ===> : Switching off AutoStart
         For restart on a previous wavefunction, please use MOREAD

INFO   : the flag for use of the SHARK integral package has been found!

================================================================================
                                       INPUT FILE
================================================================================
NAME = opt.inp
|  1> ! B3LYP EPR-II OPT
|  2> %pal nprocs 16 end
|  3> *XYZFile 1 2 model.xyz
|  4> 
|  5>                          ****END OF INPUT****
================================================================================

                       *****************************
                       * Geometry Optimization Run *
                       *****************************

Geometry optimization settings:
Update method            Update   .... BFGS
Choice of coordinates    CoordSys .... Z-matrix Internals
Initial Hessian          InHess   .... Almoef's Model

Convergence Tolerances:
Energy Change            TolE     ....  5.0000e-06 Eh
Max. Gradient            TolMAXG  ....  3.0000e-04 Eh/bohr
RMS Gradient             TolRMSG  ....  1.0000e-04 Eh/bohr
Max. Displacement        TolMAXD  ....  4.0000e-03 bohr
RMS Displacement         TolRMSD  ....  2.0000e-03 bohr
Strict Convergence                ....  False
------------------------------------------------------------------------------
                        ORCA OPTIMIZATION COORDINATE SETUP
------------------------------------------------------------------------------

The optimization will be done in new redundant internal coordinates
Making redundant internal coordinates   ...  (new redundants) done
Evaluating the initial hessian          ...  (Almloef) done
Evaluating the coordinates              ...  done
Calculating the B-matrix                .... done
Calculating the G-matrix                .... done
Diagonalizing the G-matrix              .... done
Small eigenvalue found = 5.622e-03
Small eigenvalue found = 6.402e-03
Small eigenvalue found = 1.037e-02
Small eigenvalue found = 2.245e-02
Small eigenvalue found = 2.630e-02
The first mode is                       ....   67
The number of degrees of freedom        ....   93

    -----------------------------------------------------------------
                    Redundant Internal Coordinates


    -----------------------------------------------------------------
         Definition                    Initial Value    Approx d2E/dq
    -----------------------------------------------------------------
      1. B(C   1,N   0)                  1.4454         0.456495   
      2. B(C   2,C   1)                  1.5369         0.364179   
      3. B(O   3,C   2)                  1.2181         1.052127   
      4. B(C   4,C   1)                  1.5529         0.343379   
      5. B(C   5,C   4)                  1.5364         0.364953   
      6. B(C   6,C   5)                  1.5419         0.357661   
      7. B(C   7,C   6)                  1.4869         0.437662   
      8. B(N   8,C   7)                  1.4797         0.402501   
      9. B(H   9,C   7)                  1.0869         0.364202   
     10. B(H  10,N   8)                  1.0258         0.408273   
     11. B(H  11,N   8)                  1.0306         0.401145   
     12. B(H  12,N   0)                  1.0108         0.431508   
     13. B(C  13,N   0)                  1.3614         0.621504   
     14. B(N  14,C   2)                  1.3479         0.653279   
     15. B(H  15,N  14)                  1.0081         0.435790   
     16. B(O  16,C  13)                  1.2163         1.059450   
     17. B(H  17,N   8)                  1.0267         0.406961   
     18. B(C  18,N  14)                  1.4544         0.441695   
     19. B(H  19,C  18)                  1.0970         0.350897   
     20. B(H  20,C  18)                  1.0934         0.355609   
     21. B(H  21,C  18)                  1.0947         0.353960   
     22. B(C  22,C  13)                  1.5201         0.387423   
     23. B(H  23,C  22)                  1.0941         0.354710   
     24. B(H  24,C  22)                  1.0973         0.350613   
     25. B(H  25,C  22)                  1.0951         0.353370   
     26. B(H  26,C   1)                  1.0980         0.349728   
     27. B(H  27,C   4)                  1.0994         0.347888   
     28. B(H  28,C   4)                  1.0973         0.350538   
     29. B(H  29,C   5)                  1.0973         0.350614   
     30. B(H  30,C   5)                  1.0981         0.349574   
     31. B(H  31,C   6)                  1.1042         0.341805   
     32. B(H  32,C   6)                  1.1082         0.336867   
     33. A(C   1,N   0,C  13)          121.6701         0.405862   
     34. A(C   1,N   0,H  12)          116.3632         0.340457   
     35. A(H  12,N   0,C  13)          121.8242         0.358647   
     36. A(C   2,C   1,H  26)          110.6508         0.321424   
     37. A(N   0,C   1,C   4)          112.6676         0.368344   
     38. A(N   0,C   1,C   2)          107.2643         0.372087   
     39. A(C   4,C   1,H  26)          107.1173         0.318350   
     40. A(C   2,C   1,C   4)          110.3396         0.356620   
     41. A(N   0,C   1,H  26)          108.8195         0.331605   
     42. A(O   3,C   2,N  14)          123.2301         0.476123   
     43. A(C   1,C   2,N  14)          115.9476         0.396010   
     44. A(C   1,C   2,O   3)          120.7558         0.430977   
     45. A(C   5,C   4,H  27)          110.1954         0.321258   
     46. A(H  27,C   4,H  28)          108.0141         0.288053   
     47. A(C   1,C   4,C   5)          113.2783         0.356749   
     48. A(C   1,C   4,H  28)          106.4361         0.318470   
     49. A(C   5,C   4,H  28)          110.1817         0.321657   
     50. A(C   1,C   4,H  27)          108.5392         0.318076   
     51. A(C   6,C   5,H  29)          109.8153         0.320608   
     52. A(C   6,C   5,H  30)          108.9794         0.320452   
     53. A(H  29,C   5,H  30)          107.0326         0.288281   
     54. A(C   4,C   5,H  29)          110.8770         0.321668   
     55. A(C   4,C   5,H  30)          109.0870         0.321512   
     56. A(C   4,C   5,C   6)          110.9473         0.359230   
     57. A(C   5,C   6,C   7)          111.5133         0.370573   
     58. A(C   7,C   6,H  32)          109.8550         0.329250   
     59. A(C   7,C   6,H  31)          109.8101         0.330043   
     60. A(C   5,C   6,H  31)          110.4156         0.319278   
     61. A(H  31,C   6,H  32)          105.8778         0.285483   
     62. A(C   5,C   6,H  32)          109.2114         0.318521   
     63. A(N   8,C   7,H   9)          113.3899         0.326965   
     64. A(C   6,C   7,H   9)          125.3365         0.333531   
     65. A(C   6,C   7,N   8)          117.4902         0.375822   
     66. A(H  10,N   8,H  11)          107.3466         0.296863   
     67. A(C   7,N   8,H  11)          112.4719         0.329391   
     68. A(H  11,N   8,H  17)          106.9647         0.296711   
     69. A(H  10,N   8,H  17)          107.7576         0.297541   
     70. A(C   7,N   8,H  10)          111.5038         0.330352   
     71. A(C   7,N   8,H  17)          110.5560         0.330176   
     72. A(N   0,C  13,O  16)          121.4919         0.472380   
     73. A(O  16,C  13,C  22)          122.5303         0.436344   
     74. A(N   0,C  13,C  22)          115.9689         0.396845   
     75. A(H  15,N  14,C  18)          118.7594         0.339147   
     76. A(C   2,N  14,C  18)          121.4274         0.407077   
     77. A(C   2,N  14,H  15)          118.9159         0.362318   
     78. A(H  20,C  18,H  21)          109.4371         0.289485   
     79. A(H  19,C  18,H  21)          108.2660         0.288881   
     80. A(N  14,C  18,H  21)          109.7080         0.330459   
     81. A(H  19,C  18,H  20)          109.4135         0.289091   
     82. A(N  14,C  18,H  20)          108.8077         0.330713   
     83. A(N  14,C  18,H  19)          111.1890         0.329984   
     84. A(H  24,C  22,H  25)          108.7012         0.288769   
     85. A(H  23,C  22,H  25)          110.1858         0.289295   
     86. A(C  13,C  22,H  25)          113.2025         0.325254   
     87. A(H  23,C  22,H  24)          107.7101         0.288940   
     88. A(C  13,C  22,H  24)          108.0451         0.324836   
     89. A(C  13,C  22,H  23)          108.8312         0.325457   
     90. D(C   4,C   1,N   0,H  12)   -112.8133         0.017784   
     91. D(H  26,C   1,N   0,C  13)    -47.1900         0.017784   
     92. D(C   2,C   1,N   0,H  12)      8.8043         0.017784   
     93. D(C   4,C   1,N   0,C  13)     71.4509         0.017784   
     94. D(C   2,C   1,N   0,C  13)   -166.9315         0.017784   
     95. D(H  26,C   1,N   0,H  12)    128.5457         0.017784   
     96. D(N  14,C   2,C   1,C   4)    -87.4124         0.009955   
     97. D(N  14,C   2,C   1,H  26)     30.9577         0.009955   
     98. D(O   3,C   2,C   1,N   0)    -33.3522         0.009955   
     99. D(O   3,C   2,C   1,H  26)   -151.9158         0.009955   
    100. D(O   3,C   2,C   1,C   4)     89.7140         0.009955   
    101. D(N  14,C   2,C   1,N   0)    149.5214         0.009955   
    102. D(C   5,C   4,C   1,C   2)    -62.6536         0.009530   
    103. D(C   5,C   4,C   1,H  26)    176.8343         0.009530   
    104. D(C   5,C   4,C   1,N   0)     57.2029         0.009530   
    105. D(H  28,C   4,C   1,H  26)     55.6035         0.009530   
    106. D(H  28,C   4,C   1,C   2)    176.1156         0.009530   
    107. D(H  27,C   4,C   1,H  26)    -60.4369         0.009530   
    108. D(H  27,C   4,C   1,C   2)     60.0752         0.009530   
    109. D(H  27,C   4,C   1,N   0)    179.9317         0.009530   
    110. D(H  28,C   4,C   1,N   0)    -64.0279         0.009530   
    111. D(H  30,C   5,C   4,H  28)     64.3489         0.010666   
    112. D(H  30,C   5,C   4,H  27)   -176.5556         0.010666   
    113. D(H  30,C   5,C   4,C   1)    -54.7489         0.010666   
    114. D(H  29,C   5,C   4,H  28)   -178.0243         0.010666   
    115. D(H  29,C   5,C   4,H  27)    -58.9287         0.010666   
    116. D(H  29,C   5,C   4,C   1)     62.8780         0.010666   
    117. D(C   6,C   5,C   4,H  28)    -55.7151         0.010666   
    118. D(C   6,C   5,C   4,H  27)     63.3805         0.010666   
    119. D(C   6,C   5,C   4,C   1)   -174.8128         0.010666   
    120. D(C   7,C   6,C   5,C   4)    177.1451         0.010272   
    121. D(H  32,C   6,C   5,H  29)    178.4713         0.010272   
    122. D(H  32,C   6,C   5,C   4)     55.5469         0.010272   
    123. D(H  31,C   6,C   5,H  30)    179.3891         0.010272   
    124. D(H  31,C   6,C   5,H  29)     62.4415         0.010272   
    125. D(H  31,C   6,C   5,C   4)    -60.4829         0.010272   
    126. D(C   7,C   6,C   5,H  30)     57.0171         0.010272   
    127. D(H  32,C   6,C   5,H  30)    -64.5811         0.010272   
    128. D(C   7,C   6,C   5,H  29)    -59.9305         0.010272   
    129. D(H   9,C   7,C   6,H  32)     96.7900         0.014137   
    130. D(H   9,C   7,C   6,H  31)   -147.1538         0.014137   
    131. D(H   9,C   7,C   6,C   5)    -24.4344         0.014137   
    132. D(N   8,C   7,C   6,H  32)    -59.7742         0.014137   
    133. D(N   8,C   7,C   6,H  31)     56.2820         0.014137   
    134. D(N   8,C   7,C   6,C   5)    179.0014         0.014137   
    135. D(H  17,N   8,C   7,H   9)    159.7939         0.013829   
    136. D(H  17,N   8,C   7,C   6)    -40.9075         0.013829   
    137. D(H  11,N   8,C   7,H   9)    -80.7112         0.013829   
    138. D(H  11,N   8,C   7,C   6)     78.5874         0.013829   
    139. D(H  10,N   8,C   7,H   9)     39.9365         0.013829   
    140. D(H  10,N   8,C   7,C   6)   -160.7649         0.013829   
    141. D(C  22,C  13,N   0,H  12)     -2.0473         0.031290   
    142. D(C  22,C  13,N   0,C   1)    173.4555         0.031290   
    143. D(O  16,C  13,N   0,H  12)    179.0109         0.031290   
    144. D(O  16,C  13,N   0,C   1)     -5.4863         0.031290   
    145. D(C  18,N  14,C   2,O   3)      2.4354         0.034860   
    146. D(C  18,N  14,C   2,C   1)    179.4832         0.034860   
    147. D(H  15,N  14,C   2,O   3)    171.4572         0.034860   
    148. D(H  15,N  14,C   2,C   1)    -11.4951         0.034860   
    149. D(H  20,C  18,N  14,H  15)     20.1109         0.016637   
    150. D(H  20,C  18,N  14,C   2)   -170.8506         0.016637   
    151. D(H  19,C  18,N  14,H  15)   -100.4608         0.016637   
    152. D(H  19,C  18,N  14,C   2)     68.5776         0.016637   
    153. D(H  21,C  18,N  14,H  15)    139.8080         0.016637   
    154. D(H  21,C  18,N  14,C   2)    -51.1536         0.016637   
    155. D(H  25,C  22,C  13,O  16)   -163.8315         0.011175   
    156. D(H  25,C  22,C  13,N   0)     17.2387         0.011175   
    157. D(H  24,C  22,C  13,O  16)     75.7346         0.011175   
    158. D(H  24,C  22,C  13,N   0)   -103.1952         0.011175   
    159. D(H  23,C  22,C  13,O  16)    -40.9537         0.011175   
    160. D(H  23,C  22,C  13,N   0)    140.1165         0.011175   
    -----------------------------------------------------------------

Number of atoms                         .... 33
Number of degrees of freedom            .... 160

         *************************************************************
         *                GEOMETRY OPTIMIZATION CYCLE   1            *
         *************************************************************
---------------------------------
CARTESIAN COORDINATES (ANGSTROEM)
---------------------------------
  N     -7.840144    0.901348    0.071100
  C     -6.400419    0.857304    0.191631
  C     -6.067151    0.887089    1.691701
  O     -6.766300    1.507328    2.472955
  C     -5.702268    2.035884   -0.539919
  C     -6.173850    3.415658   -0.055952
  C     -5.545679    4.541001   -0.902301
  C     -6.046423    5.878591   -0.488800
  N     -5.510349    7.059031   -1.202028
  H     -6.993505    6.068840    0.009425
  H     -5.653773    7.920591   -0.664016
  H     -5.950339    7.195621   -2.123941
  H     -8.356478    1.080152    0.921427
  C     -8.467617    0.627772   -1.105738
  N     -4.940365    0.244712    2.058369
  H     -4.481657   -0.354782    1.390241
  O     -7.840733    0.431000   -2.129244
  H     -4.501820    6.955140   -1.363852
  C     -4.506100    0.207256    3.445922
  H     -5.185121   -0.399532    4.057683
  H     -3.499823   -0.218316    3.488991
  H     -4.490124    1.222396    3.855267
  C     -9.985226    0.560392   -1.050940
  H    -10.392423    1.033958   -1.949267
  H    -10.279375   -0.496572   -1.068267
  H    -10.405735    1.027239   -0.153974
  H     -6.034733   -0.070374   -0.267927
  H     -4.615761    1.937052   -0.404284
  H     -5.923499    1.913265   -1.607695
  H     -5.926604    3.564223    1.002723
  H     -7.267107    3.471974   -0.141901
  H     -4.444621    4.513004   -0.824003
  H     -5.778125    4.366156   -1.971602

----------------------------
CARTESIAN COORDINATES (A.U.)
----------------------------
  NO LB      ZA    FRAG     MASS         X           Y           Z
   0 N     7.0000    0    14.007  -14.815725    1.703301    0.134360
   1 C     6.0000    0    12.011  -12.095039    1.620070    0.362130
   2 C     6.0000    0    12.011  -11.465254    1.676355    3.196852
   3 O     8.0000    0    15.999  -12.786454    2.848437    4.673208
   4 C     6.0000    0    12.011  -10.775725    3.847263   -1.020299
   5 C     6.0000    0    12.011  -11.666886    6.454658   -0.105734
   6 C     6.0000    0    12.011  -10.479815    8.581248   -1.705102
   7 C     6.0000    0    12.011  -11.426084   11.108927   -0.923698
   8 N     7.0000    0    14.007  -10.413051   13.339635   -2.271504
   9 H     1.0000    0     1.008  -13.215809   11.468446    0.017811
  10 H     1.0000    0     1.008  -10.684083   14.967748   -1.254808
  11 H     1.0000    0     1.008  -11.244511   13.597753   -4.013667
  12 H     1.0000    0     1.008  -15.791455    2.041191    1.741245
  13 C     6.0000    0    12.011  -16.001477    1.186317   -2.089542
  14 N     7.0000    0    14.007   -9.335937    0.462439    3.889754
  15 H     1.0000    0     1.008   -8.469104   -0.670441    2.627175
  16 O     8.0000    0    15.999  -14.816838    0.814472   -4.023688
  17 H     1.0000    0     1.008   -8.507207   13.143310   -2.577307
  18 C     6.0000    0    12.011   -8.515295    0.391657    6.511849
  19 H     1.0000    0     1.008   -9.798459   -0.755006    7.667910
  20 H     1.0000    0     1.008   -6.613707   -0.412557    6.593237
  21 H     1.0000    0     1.008   -8.485105    2.309994    7.285399
  22 C     6.0000    0    12.011  -18.869343    1.058987   -1.985989
  23 H     1.0000    0     1.008  -19.638833    1.953897   -3.683581
  24 H     1.0000    0     1.008  -19.425204   -0.938385   -2.018732
  25 H     1.0000    0     1.008  -19.663989    1.941200   -0.290969
  26 H     1.0000    0     1.008  -11.403993   -0.132988   -0.506309
  27 H     1.0000    0     1.008   -8.722524    3.660498   -0.763986
  28 H     1.0000    0     1.008  -11.193791    3.615547   -3.038103
  29 H     1.0000    0     1.008  -11.199658    6.735405    1.894872
  30 H     1.0000    0     1.008  -13.732842    6.561080   -0.268154
  31 H     1.0000    0     1.008   -8.399116    8.528342   -1.557140
  32 H     1.0000    0     1.008  -10.919074    8.250839   -3.725788

--------------------------------
INTERNAL COORDINATES (ANGSTROEM)
--------------------------------
 N      0   0   0     0.000000000000     0.00000000     0.00000000
 C      1   0   0     1.445432693529     0.00000000     0.00000000
 C      2   1   0     1.536933541487   107.26431823     0.00000000
 O      3   2   1     1.218139381942   120.75580363   326.64780270
 C      2   1   3     1.552942702646   112.66758467   238.38240997
 C      5   2   1     1.536356056026   113.27833198    57.20293635
 C      6   5   2     1.541850285433   110.94733208   185.18715921
 C      7   6   5     1.486901018440   111.51331283   177.14513622
 N      8   7   6     1.479698654139   117.49016731   179.00142169
 H      8   7   6     1.086916347908   125.33650678   335.56561429
 H      9   8   7     1.025823079054   111.50378376   199.23512646
 H      9   8   7     1.030617100464   112.47194231    78.58736824
 H      1   2   3     1.010755992760   116.36324752     8.80426467
 C      1   2   3     1.361438163028   121.67010249   193.06849960
 N      3   2   1     1.347865097904   115.94756598   149.52135238
 H     15   3   2     1.008068008462   118.91593476   348.50494013
 O     14   1   2     1.216251331541   121.49189636   354.51368928
 H      9   8   7     1.026699123745   110.55596037   319.09249884
 C     15   3   2     1.454404472618   121.42737453   179.48320767
 H     19  15   3     1.097047271774   111.18896004    68.57761263
 H     19  15   3     1.093416602523   108.80769428   189.14938077
 H     19  15   3     1.094681588957   109.70802555   308.84641299
 C     14   1   2     1.520092090001   115.96888608   173.45549639
 H     23  14   1     1.094104909090   108.83120506   140.11653069
 H     23  14   1     1.097267859926   108.04506695   256.80481315
 H     23  14   1     1.095135583225   113.20247914    17.23872326
 H      2   1   3     1.097955498936   108.81954989   119.74145807
 H      5   2   1     1.099391685660   108.53924824   179.93168165
 H      5   2   1     1.097325913618   106.43606670   295.97211559
 H      6   5   2     1.097267013705   110.87696400    62.87796933
 H      6   5   2     1.098075402924   109.08703350   305.25113098
 H      7   6   5     1.104193428787   110.41561265   299.51708262
 H      7   6   5     1.108154567532   109.21140125    55.54686789

---------------------------
INTERNAL COORDINATES (A.U.)
---------------------------
 N      0   0   0     0.000000000000     0.00000000     0.00000000
 C      1   0   0     2.731471935786     0.00000000     0.00000000
 C      2   1   0     2.904383479449   107.26431823     0.00000000
 O      3   2   1     2.301949824814   120.75580363   326.64780270
 C      2   1   3     2.934636409672   112.66758467   238.38240997
 C      5   2   1     2.903292190081   113.27833198    57.20293635
 C      6   5   2     2.913674778977   110.94733208   185.18715921
 C      7   6   5     2.809835713100   111.51331283   177.14513622
 N      8   7   6     2.796225217054   117.49016731   179.00142169
 H      8   7   6     2.053974228028   125.33650678   335.56561429
 H      9   8   7     1.938524681268   111.50378376   199.23512646
 H      9   8   7     1.947584068813   112.47194231    78.58736824
 H      1   2   3     1.910052014537   116.36324752     8.80426467
 C      1   2   3     2.572745276392   121.67010249   193.06849960
 N      3   2   1     2.547095900510   115.94756598   149.52135238
 H     15   3   2     1.904972460360   118.91593476   348.50494013
 O     14   1   2     2.298381926630   121.49189636   354.51368928
 H      9   8   7     1.940180165814   110.55596037   319.09249884
 C     15   3   2     2.748426141197   121.42737453   179.48320767
 H     19  15   3     2.073118899618   111.18896004    68.57761263
 H     19  15   3     2.066257929052   108.80769428   189.14938077
 H     19  15   3     2.068648406974   109.70802555   308.84641299
 C     14   1   2     2.872557748443   115.96888608   173.45549639
 H     23  14   1     2.067558639958   108.83120506   140.11653069
 H     23  14   1     2.073535750814   108.04506695   256.80481315
 H     23  14   1     2.069506331808   113.20247914    17.23872326
 H      2   1   3     2.074835200222   108.81954989   119.74145807
 H      5   2   1     2.077549199807   108.53924824   179.93168165
 H      5   2   1     2.073645456393   106.43606670   295.97211559
 H      6   5   2     2.073534151689   110.87696400    62.87796933
 H      6   5   2     2.075061785921   109.08703350   305.25113098
 H      7   6   5     2.086623179283   110.41561265   299.51708262
 H      7   6   5     2.094108646689   109.21140125    55.54686789

---------------------
BASIS SET INFORMATION
---------------------
There are 4 groups of distinct atoms

 Group   1 Type N   : 10s5p1d contracted to 6s2p1d pattern {511111/41/1}
 Group   2 Type C   : 10s5p1d contracted to 6s2p1d pattern {511111/41/1}
 Group   3 Type O   : 10s5p1d contracted to 6s2p1d pattern {511111/41/1}
 Group   4 Type H   : 6s1p contracted to 4s1p pattern {3111/1}

Atom   0N    basis set group =>   1
Atom   1C    basis set group =>   2
Atom   2C    basis set group =>   2
Atom   3O    basis set group =>   3
Atom   4C    basis set group =>   2
Atom   5C    basis set group =>   2
Atom   6C    basis set group =>   2
Atom   7C    basis set group =>   2
Atom   8N    basis set group =>   1
Atom   9H    basis set group =>   4
Atom  10H    basis set group =>   4
Atom  11H    basis set group =>   4
Atom  12H    basis set group =>   4
Atom  13C    basis set group =>   2
Atom  14N    basis set group =>   1
Atom  15H    basis set group =>   4
Atom  16O    basis set group =>   3
Atom  17H    basis set group =>   4
Atom  18C    basis set group =>   2
Atom  19H    basis set group =>   4
Atom  20H    basis set group =>   4
Atom  21H    basis set group =>   4
Atom  22C    basis set group =>   2
Atom  23H    basis set group =>   4
Atom  24H    basis set group =>   4
Atom  25H    basis set group =>   4
Atom  26H    basis set group =>   4
Atom  27H    basis set group =>   4
Atom  28H    basis set group =>   4
Atom  29H    basis set group =>   4
Atom  30H    basis set group =>   4
Atom  31H    basis set group =>   4
Atom  32H    basis set group =>   4
---------------------------------
AUXILIARY/J BASIS SET INFORMATION
---------------------------------
There are 4 groups of distinct atoms

 Group   1 Type N   : 12s5p4d2f1g contracted to 6s4p3d1f1g pattern {711111/2111/211/2/1}
 Group   2 Type C   : 12s5p4d2f1g contracted to 6s4p3d1f1g pattern {711111/2111/211/2/1}
 Group   3 Type O   : 12s5p4d2f1g contracted to 6s4p3d1f1g pattern {711111/2111/211/2/1}
 Group   4 Type H   : 5s2p1d contracted to 3s1p1d pattern {311/2/1}

Atom   0N    basis set group =>   1
Atom   1C    basis set group =>   2
Atom   2C    basis set group =>   2
Atom   3O    basis set group =>   3
Atom   4C    basis set group =>   2
Atom   5C    basis set group =>   2
Atom   6C    basis set group =>   2
Atom   7C    basis set group =>   2
Atom   8N    basis set group =>   1
Atom   9H    basis set group =>   4
Atom  10H    basis set group =>   4
Atom  11H    basis set group =>   4
Atom  12H    basis set group =>   4
Atom  13C    basis set group =>   2
Atom  14N    basis set group =>   1
Atom  15H    basis set group =>   4
Atom  16O    basis set group =>   3
Atom  17H    basis set group =>   4
Atom  18C    basis set group =>   2
Atom  19H    basis set group =>   4
Atom  20H    basis set group =>   4
Atom  21H    basis set group =>   4
Atom  22C    basis set group =>   2
Atom  23H    basis set group =>   4
Atom  24H    basis set group =>   4
Atom  25H    basis set group =>   4
Atom  26H    basis set group =>   4
Atom  27H    basis set group =>   4
Atom  28H    basis set group =>   4
Atom  29H    basis set group =>   4
Atom  30H    basis set group =>   4
Atom  31H    basis set group =>   4
Atom  32H    basis set group =>   4


           ************************************************************
           *        Program running with 16 parallel MPI-processes    *
           *              working on a common directory               *
           ************************************************************
------------------------------------------------------------------------------
                           ORCA GTO INTEGRAL CALCULATION
                           -- RI-GTO INTEGRALS CHOSEN --
------------------------------------------------------------------------------
------------------------------------------------------------------------------
                   ___                                                        
                  /   \      - P O W E R E D   B Y -                         
                 /     \                                                     
                 |  |  |   _    _      __       _____    __    __             
                 |  |  |  | |  | |    /  \     |  _  \  |  |  /  |          
                  \  \/   | |  | |   /    \    | | | |  |  | /  /          
                 / \  \   | |__| |  /  /\  \   | |_| |  |  |/  /          
                |  |  |   |  __  | /  /__\  \  |    /   |      \           
                |  |  |   | |  | | |   __   |  |    \   |  |\   \          
                \     /   | |  | | |  |  |  |  | |\  \  |  | \   \       
                 \___/    |_|  |_| |__|  |__|  |_| \__\ |__|  \__/        
                                                                              
                      - O R C A' S   B I G   F R I E N D -                    
                                      &                                       
                       - I N T E G R A L  F E E D E R -                       
                                                                              
 v1 FN, 2020, v2 2021                                                         
------------------------------------------------------------------------------


Reading SHARK input file opt.SHARKINP.tmp ... ok
----------------------
SHARK INTEGRAL PACKAGE
----------------------

Number of atoms                             ...     33
Number of basis functions                   ...    371
Number of shells                            ...    221
Maximum angular momentum                    ...      2
Integral batch strategy                     ... SHARK/LIBINT Hybrid
RI-J (if used) integral strategy            ... SPLIT-RIJ (Revised 2003 algorithm where possible)
Printlevel                                  ...      1
Contraction scheme used                     ... SEGMENTED contraction
Coulomb Range Separation                    ... NOT USED
Exchange Range Separation                   ... NOT USED
Finite Nucleus Model                        ... NOT USED
Auxiliary Coulomb fitting basis             ... AVAILABLE
   # of basis functions in Aux-J            ...    895
   # of shells in Aux-J                     ...    305
   Maximum angular momentum in Aux-J        ...      4
Auxiliary J/K fitting basis                 ... NOT available
Auxiliary Correlation fitting basis         ... NOT available
Auxiliary 'external' fitting basis          ... NOT available
Integral threshold                          ...     2.500000e-11
Primitive cut-off                           ...     2.500000e-12
Primitive pair pre-selection threshold      ...     2.500000e-12

Calculating pre-screening integrals         ... done (  0.0 sec) Dimension = 221
Organizing shell pair data                  ... done (  0.1 sec)
Shell pair information
Total number of shell pairs                 ...     24531
Shell pairs after pre-screening             ...     15800
Total number of primitive shell pairs       ...     64184
Primitive shell pairs kept                  ...     30124
          la=0 lb=0:   7443 shell pairs
          la=1 lb=0:   5397 shell pairs
          la=1 lb=1:    926 shell pairs
          la=2 lb=0:   1441 shell pairs
          la=2 lb=1:    512 shell pairs
          la=2 lb=2:     81 shell pairs

Calculating one electron integrals          ... done (  0.0 sec)
Calculating RI/J V-Matrix + Cholesky decomp.... done (  0.0 sec)
Calculating Nuclear repulsion               ... done (  0.0 sec) ENN=    936.667592211295 Eh

SHARK setup successfully completed in   0.2 seconds

Maximum memory used throughout the entire GTOINT-calculation: 22.7 MB


           ************************************************************
           *        Program running with 16 parallel MPI-processes    *
           *              working on a common directory               *
           ************************************************************
-------------------------------------------------------------------------------
                                 ORCA SCF
-------------------------------------------------------------------------------

------------
SCF SETTINGS
------------
Hamiltonian:
 Density Functional     Method          .... DFT(GTOs)
 Exchange Functional    Exchange        .... B88
   X-Alpha parameter    XAlpha          ....  0.666667
   Becke's b parameter  XBeta           ....  0.004200
 Correlation Functional Correlation     .... LYP
 LDA part of GGA corr.  LDAOpt          .... VWN-5
 Gradients option       PostSCFGGA      .... off
 Hybrid DFT is turned on
   Fraction HF Exchange ScalHFX         ....  0.200000
   Scaling of DF-GGA-X  ScalDFX         ....  0.720000
   Scaling of DF-GGA-C  ScalDFC         ....  0.810000
   Scaling of DF-LDA-C  ScalLDAC        ....  1.000000
   Perturbative correction              ....  0.000000
   Density functional embedding theory  .... OFF
   NL short-range parameter             ....  4.800000
 RI-approximation to the Coulomb term is turned on
   Number of AuxJ basis functions       .... 895
   RIJ-COSX (HFX calculated with COS-X)).... on


General Settings:
 Integral files         IntName         .... opt
 Hartree-Fock type      HFTyp           .... UHF
 Total Charge           Charge          ....    1
 Multiplicity           Mult            ....    2
 Number of Electrons    NEL             ....  109
 Basis Dimension        Dim             ....  371
 Nuclear Repulsion      ENuc            ....    936.6675922113 Eh

Convergence Acceleration:
 DIIS                   CNVDIIS         .... on
   Start iteration      DIISMaxIt       ....    12
   Startup error        DIISStart       ....  0.200000
   # of expansion vecs  DIISMaxEq       ....     5
   Bias factor          DIISBfac        ....   1.050
   Max. coefficient     DIISMaxC        ....  10.000
 Trust-Rad. Augm. Hess. CNVTRAH         .... auto
   Auto Start mean grad. ratio tolernc. ....  1.125000
   Auto Start start iteration           ....    20
   Auto Start num. interpolation iter.  ....    10
   Max. Number of Micro iterations      ....    16
   Max. Number of Macro iterations      .... Maxiter - #DIIS iter
   Number of Davidson start vectors     ....     2
   Converg. threshold I  (grad. norm)   ....   1.000e-05
   Converg. threshold II (energy diff.) ....   1.000e-08
   Grad. Scal. Fac. for Micro threshold ....   0.100
   Minimum threshold for Micro iter.    ....   0.010
   NR start threshold (gradient norm)   ....   0.001
   Initial trust radius                 ....   0.400
   Minimum AH scaling param. (alpha)    ....   1.000
   Maximum AH scaling param. (alpha)    .... 1000.000
   Orbital update algorithm             .... Taylor
   White noise on init. David. guess    .... on
   Maximum white noise                  ....   0.010
   Quad. conv. algorithm                .... NR
 SOSCF                  CNVSOSCF        .... off
 Level Shifting         CNVShift        .... on
   Level shift para.    LevelShift      ....    0.2500
   Turn off err/grad.   ShiftErr        ....    0.0010
 Zerner damping         CNVZerner       .... off
 Static damping         CNVDamp         .... on
   Fraction old density DampFac         ....    0.7000
   Max. Damping (<1)    DampMax         ....    0.9800
   Min. Damping (>=0)   DampMin         ....    0.0000
   Turn off err/grad.   DampErr         ....    0.1000
 Fernandez-Rico         CNVRico         .... off

SCF Procedure:
 Maximum # iterations   MaxIter         ....   125
 SCF integral mode      SCFMode         .... Direct
   Integral package                     .... SHARK and LIBINT hybrid scheme
 Reset frequency        DirectResetFreq ....    20
 Integral Threshold     Thresh          ....  2.500e-11 Eh
 Primitive CutOff       TCut            ....  2.500e-12 Eh

Convergence Tolerance:
 Convergence Check Mode ConvCheckMode   .... Total+1el-Energy
 Convergence forced     ConvForced      .... 0
 Energy Change          TolE            ....  1.000e-08 Eh
 1-El. energy change                    ....  1.000e-05 Eh
 DIIS Error             TolErr          ....  5.000e-07


Diagonalization of the overlap matrix:
Smallest eigenvalue                        ... 1.052e-03
Time for diagonalization                   ...    0.014 sec
Threshold for overlap eigenvalues          ... 1.000e-08
Number of eigenvalues below threshold      ... 0
Time for construction of square roots      ...    0.012 sec
Total time needed                          ...    0.027 sec

Time for model grid setup =    0.124 sec

------------------------------
INITIAL GUESS: MODEL POTENTIAL
------------------------------
Loading Hartree-Fock densities                     ... done
Calculating cut-offs                               ... done
Initializing the effective Hamiltonian             ... done
Setting up the integral package (SHARK)            ... done
Starting the Coulomb interaction                   ... done (   0.1 sec)
Reading the grid                                   ... done
Mapping shells                                     ... done
Starting the XC term evaluation                    ... done (   0.0 sec)
  promolecular density results
     # of electrons  =    109.997202583
     EX              =    -88.086516850
     EC              =     -3.689581783
     EX+EC           =    -91.776098632
Transforming the Hamiltonian                       ... done (   0.0 sec)
Diagonalizing the Hamiltonian                      ... done (   0.0 sec)
Back transforming the eigenvectors                 ... done (   0.0 sec)
Now organizing SCF variables                       ... done
                      ------------------
                      INITIAL GUESS DONE (   0.3 sec)
                      ------------------
-------------------
DFT GRID GENERATION
-------------------

General Integration Accuracy     IntAcc      ... 4.388
Radial Grid Type                 RadialGrid  ... OptM3 with GC (2021)
Angular Grid (max. ang.)         AngularGrid ... 4 (Lebedev-302)
Angular grid pruning method      GridPruning ... 4 (adaptive)
Weight generation scheme         WeightScheme... Becke
Basis function cutoff            BFCut       ... 1.0000e-11
Integration weight cutoff        WCut        ... 1.0000e-14
Angular grids for H and He will be reduced by one unit
Partially contracted basis set               ... off
Rotationally invariant grid construction     ... off

Total number of grid points                  ...   144724
Total number of batches                      ...     2280
Average number of points per batch           ...       63
Average number of grid points per atom       ...     4386
Time for grid setup =    0.607 sec

--------------------
COSX GRID GENERATION
--------------------

GRIDX 1
-------
General Integration Accuracy     IntAcc      ... 3.816
Radial Grid Type                 RadialGrid  ... OptM3 with GC (2021)
Angular Grid (max. ang.)         AngularGrid ... 1 (Lebedev-50)
Angular grid pruning method      GridPruning ... 4 (adaptive)
Weight generation scheme         WeightScheme... Becke
Basis function cutoff            BFCut       ... 1.0000e-11
Integration weight cutoff        WCut        ... 1.0000e-14
Angular grids for H and He will be reduced by one unit
Partially contracted basis set               ... on
Rotationally invariant grid construction     ... off

Total number of grid points                  ...    18483
Total number of batches                      ...      309
Average number of points per batch           ...       59
Average number of grid points per atom       ...      560
UseSFitting                                  ... on

GRIDX 2
-------
General Integration Accuracy     IntAcc      ... 4.020
Radial Grid Type                 RadialGrid  ... OptM3 with GC (2021)
Angular Grid (max. ang.)         AngularGrid ... 2 (Lebedev-110)
Angular grid pruning method      GridPruning ... 4 (adaptive)
Weight generation scheme         WeightScheme... Becke
Basis function cutoff            BFCut       ... 1.0000e-11
Integration weight cutoff        WCut        ... 1.0000e-14
Angular grids for H and He will be reduced by one unit
Partially contracted basis set               ... on
Rotationally invariant grid construction     ... off

Total number of grid points                  ...    39000
Total number of batches                      ...      625
Average number of points per batch           ...       62
Average number of grid points per atom       ...     1182
UseSFitting                                  ... on

GRIDX 3
-------
General Integration Accuracy     IntAcc      ... 4.338
Radial Grid Type                 RadialGrid  ... OptM3 with GC (2021)
Angular Grid (max. ang.)         AngularGrid ... 3 (Lebedev-194)
Angular grid pruning method      GridPruning ... 4 (adaptive)
Weight generation scheme         WeightScheme... Becke
Basis function cutoff            BFCut       ... 1.0000e-11
Integration weight cutoff        WCut        ... 1.0000e-14
Angular grids for H and He will be reduced by one unit
Partially contracted basis set               ... on
Rotationally invariant grid construction     ... off

Total number of grid points                  ...    85006
Total number of batches                      ...     1345
Average number of points per batch           ...       63
Average number of grid points per atom       ...     2576
UseSFitting                                  ... on

Time for X-Grid setup             =    0.709 sec

--------------
SCF ITERATIONS
--------------
ITER       Energy         Delta-E        Max-DP      RMS-DP      [F,P]     Damp
               ***  Starting incremental Fock matrix formation  ***
  0   -668.1135396530   0.000000000000 0.06347798  0.00088656  0.1305405 0.7000
  1   -668.3329528912  -0.219413238186 0.03703706  0.00061968  0.0516237 0.7000
                               ***Turning on DIIS***
  2   -668.4137164347  -0.080763543574 0.05203482  0.00098306  0.0182714 0.0000
  3   -668.5467235263  -0.133007091556 0.03171170  0.00044980  0.0248566 0.0000
  4   -668.5748504199  -0.028126893549 0.01188851  0.00015373  0.0067136 0.0000
  5   -668.5764039640  -0.001553544176 0.00523213  0.00005935  0.0050325 0.0000
  6   -668.5767702140  -0.000366249938 0.00315070  0.00003275  0.0005855 0.0000
               *** Restarting incremental Fock matrix formation ***
                                   *** Resetting DIIS ***
  7   -668.5768209831  -0.000050769113 0.00152646  0.00001619  0.0005684 0.0000
  8   -668.5768121898   0.000008793247 0.00102663  0.00000919  0.0008644 0.0000
  9   -668.5768295236  -0.000017333802 0.00020921  0.00000234  0.0000987 0.0000
 10   -668.5768295066   0.000000017051 0.00014603  0.00000144  0.0001416 0.0000
 11   -668.5768298381  -0.000000331510 0.00004577  0.00000051  0.0000317 0.0000
 12   -668.5768298478  -0.000000009672 0.00001731  0.00000021  0.0000168 0.0000
 13   -668.5768298567  -0.000000008940 0.00000528  0.00000007  0.0000033 0.0000
 14   -668.5768298553   0.000000001365 0.00000521  0.00000004  0.0000038 0.0000
 15   -668.5768298615  -0.000000006158 0.00000224  0.00000002  0.0000024 0.0000
                            ***DIIS convergence achieved***

               *****************************************************
               *                     SUCCESS                       *
               *           SCF CONVERGED AFTER  16 CYCLES          *
               *****************************************************

Old exchange energy                            =    -17.890514572 Eh
New exchange energy                            =    -17.890516629 Eh
Exchange energy change after final integration =     -0.000002057 Eh
Total energy after final integration           =   -668.576831929 Eh
Final COS-X integration done in                =     2.234 sec

----------------
TOTAL SCF ENERGY
----------------

Total Energy       :         -668.57683193 Eh          -18192.90051 eV

Components:
Nuclear Repulsion  :          936.66759221 Eh           25488.02097 eV
Electronic Energy  :        -1605.24442414 Eh          -43680.92148 eV
One Electron Energy:        -2753.96402447 Eh          -74939.17094 eV
Two Electron Energy:         1148.71960033 Eh           31258.24946 eV
Max COSX asymmetry :            0.00000280 Eh               0.00008 eV

Virial components:
Potential Energy   :        -1332.79130301 Eh          -36267.09514 eV
Kinetic Energy     :          664.21447108 Eh           18074.19463 eV
Virial Ratio       :            2.00656770


DFT components:
N(Alpha)           :       55.000046439680 electrons
N(Beta)            :       54.000047065429 electrons
N(Total)           :      109.000093505109 electrons
E(X)               :      -71.049227531270 Eh       
E(C)               :       -4.315596509975 Eh       
E(XC)              :      -75.364824041244 Eh       
DFET-embed. en.    :        0.000000000000 Eh       

---------------
SCF CONVERGENCE
---------------

  Last Energy change         ...   -1.0653e-08  Tolerance :   1.0000e-08
  Last MAX-Density change    ...    0.0000e+00  Tolerance :   1.0000e-07
  Last RMS-Density change    ...    0.0000e+00  Tolerance :   5.0000e-09
  Last DIIS Error            ...    4.2797e-07  Tolerance :   5.0000e-07

             **** THE GBW FILE WAS UPDATED (opt.gbw) ****
             **** DENSITY opt.scfp WAS UPDATED ****
             **** ENERGY FILE WAS UPDATED (opt.en.tmp) ****
----------------------
UHF SPIN CONTAMINATION
----------------------

Warning: in a DFT calculation there is little theoretical justification to 
         calculate <S**2> as in Hartree-Fock theory. We will do it anyways
         but you should keep in mind that the values have only limited relevance

Expectation value of <S**2>     :     0.754003
Ideal value S*(S+1) for S=0.5   :     0.750000
Deviation                       :     0.004003

             **** THE GBW FILE WAS UPDATED (opt.gbw) ****
             **** DENSITY opt.scfp WAS UPDATED ****
----------------
ORBITAL ENERGIES
----------------
                 SPIN UP ORBITALS
  NO   OCC          E(Eh)            E(eV) 
   0   1.0000     -19.205135      -522.5983 
   1   1.0000     -19.184310      -522.0316 
   2   1.0000     -14.659052      -398.8931 
   3   1.0000     -14.454017      -393.3138 
   4   1.0000     -14.436214      -392.8294 
   5   1.0000     -10.436994      -284.0051 
   6   1.0000     -10.384077      -282.5651 
   7   1.0000     -10.369944      -282.1805 
   8   1.0000     -10.360345      -281.9193 
   9   1.0000     -10.329828      -281.0889 
  10   1.0000     -10.313885      -280.6551 
  11   1.0000     -10.300008      -280.2775 
  12   1.0000     -10.295357      -280.1509 
  13   1.0000     -10.262407      -279.2543 
  14   1.0000      -1.209354       -32.9082 
  15   1.0000      -1.138326       -30.9754 
  16   1.0000      -1.116863       -30.3914 
  17   1.0000      -1.017228       -27.6802 
  18   1.0000      -1.007964       -27.4281 
  19   1.0000      -0.962825       -26.1998 
  20   1.0000      -0.892088       -24.2750 
  21   1.0000      -0.847851       -23.0712 
  22   1.0000      -0.810164       -22.0457 
  23   1.0000      -0.805342       -21.9145 
  24   1.0000      -0.786312       -21.3966 
  25   1.0000      -0.784099       -21.3364 
  26   1.0000      -0.750693       -20.4274 
  27   1.0000      -0.716853       -19.5066 
  28   1.0000      -0.681634       -18.5482 
  29   1.0000      -0.680629       -18.5208 
  30   1.0000      -0.656434       -17.8625 
  31   1.0000      -0.627180       -17.0664 
  32   1.0000      -0.610395       -16.6097 
  33   1.0000      -0.592794       -16.1308 
  34   1.0000      -0.574386       -15.6298 
  35   1.0000      -0.554443       -15.0872 
  36   1.0000      -0.550979       -14.9929 
  37   1.0000      -0.542099       -14.7513 
  38   1.0000      -0.532245       -14.4831 
  39   1.0000      -0.527626       -14.3574 
  40   1.0000      -0.515452       -14.0262 
  41   1.0000      -0.496630       -13.5140 
  42   1.0000      -0.485559       -13.2127 
  43   1.0000      -0.482300       -13.1241 
  44   1.0000      -0.480833       -13.0841 
  45   1.0000      -0.471478       -12.8296 
  46   1.0000      -0.461243       -12.5511 
  47   1.0000      -0.456611       -12.4250 
  48   1.0000      -0.455077       -12.3833 
  49   1.0000      -0.428470       -11.6593 
  50   1.0000      -0.411004       -11.1840 
  51   1.0000      -0.356538        -9.7019 
  52   1.0000      -0.353036        -9.6066 
  53   1.0000      -0.336163        -9.1474 
  54   1.0000      -0.330801        -9.0016 
  55   0.0000      -0.187616        -5.1053 
  56   0.0000      -0.117344        -3.1931 
  57   0.0000      -0.105425        -2.8688 
  58   0.0000      -0.088917        -2.4196 
  59   0.0000      -0.080244        -2.1836 
  60   0.0000      -0.068885        -1.8744 
  61   0.0000      -0.065814        -1.7909 
  62   0.0000      -0.055914        -1.5215 
  63   0.0000      -0.049393        -1.3441 
  64   0.0000      -0.043186        -1.1751 
  65   0.0000      -0.036815        -1.0018 
  66   0.0000      -0.020964        -0.5704 
  67   0.0000      -0.011041        -0.3004 
  68   0.0000      -0.007264        -0.1977 
  69   0.0000      -0.003602        -0.0980 
  70   0.0000       0.014311         0.3894 
  71   0.0000       0.024646         0.6707 
  72   0.0000       0.028013         0.7623 
  73   0.0000       0.047499         1.2925 
  74   0.0000       0.048390         1.3167 
  75   0.0000       0.065002         1.7688 
  76   0.0000       0.071237         1.9384 
  77   0.0000       0.078284         2.1302 
  78   0.0000       0.085213         2.3188 
  79   0.0000       0.091322         2.4850 
  80   0.0000       0.099371         2.7040 
  81   0.0000       0.101277         2.7559 
  82   0.0000       0.112553         3.0627 
  83   0.0000       0.117842         3.2067 
  84   0.0000       0.118465         3.2236 
  85   0.0000       0.123903         3.3716 
  86   0.0000       0.125375         3.4116 
  87   0.0000       0.132114         3.5950 
  88   0.0000       0.136357         3.7105 
  89   0.0000       0.140879         3.8335 
  90   0.0000       0.151175         4.1137 
  91   0.0000       0.158725         4.3191 
  92   0.0000       0.167500         4.5579 
  93   0.0000       0.174103         4.7376 
  94   0.0000       0.181555         4.9404 
  95   0.0000       0.184230         5.0132 
  96   0.0000       0.189762         5.1637 
  97   0.0000       0.191721         5.2170 
  98   0.0000       0.201343         5.4788 
  99   0.0000       0.208244         5.6666 
 100   0.0000       0.211725         5.7613 
 101   0.0000       0.220131         5.9901 
 102   0.0000       0.224701         6.1144 
 103   0.0000       0.226981         6.1765 
 104   0.0000       0.241985         6.5847 
 105   0.0000       0.245669         6.6850 
 106   0.0000       0.254504         6.9254 
 107   0.0000       0.264453         7.1961 
 108   0.0000       0.276190         7.5155 
 109   0.0000       0.288315         7.8454 
 110   0.0000       0.291353         7.9281 
 111   0.0000       0.294715         8.0196 
 112   0.0000       0.301428         8.2023 
 113   0.0000       0.323298         8.7974 
 114   0.0000       0.328819         8.9476 
 115   0.0000       0.332479         9.0472 
 116   0.0000       0.349655         9.5146 
 117   0.0000       0.357851         9.7376 
 118   0.0000       0.364704         9.9241 
 119   0.0000       0.372303        10.1309 
 120   0.0000       0.386197        10.5090 
 121   0.0000       0.398694        10.8490 
 122   0.0000       0.399326        10.8662 
 123   0.0000       0.409183        11.1344 
 124   0.0000       0.423974        11.5369 
 125   0.0000       0.437770        11.9123 
 126   0.0000       0.440470        11.9858 
 127   0.0000       0.451680        12.2908 
 128   0.0000       0.465460        12.6658 
 129   0.0000       0.484390        13.1809 
 130   0.0000       0.505738        13.7618 
 131   0.0000       0.515075        14.0159 
 132   0.0000       0.524347        14.2682 
 133   0.0000       0.536936        14.6108 
 134   0.0000       0.543913        14.8006 
 135   0.0000       0.574508        15.6332 
 136   0.0000       0.586988        15.9727 
 137   0.0000       0.608198        16.5499 
 138   0.0000       0.609934        16.5972 
 139   0.0000       0.646143        17.5825 
 140   0.0000       0.661757        18.0073 
 141   0.0000       0.671670        18.2771 
 142   0.0000       0.681428        18.5426 
 143   0.0000       0.702409        19.1135 
 144   0.0000       0.715509        19.4700 
 145   0.0000       0.728233        19.8162 
 146   0.0000       0.734578        19.9889 
 147   0.0000       0.737849        20.0779 
 148   0.0000       0.743519        20.2322 
 149   0.0000       0.752656        20.4808 
 150   0.0000       0.760660        20.6986 
 151   0.0000       0.768452        20.9106 
 152   0.0000       0.772327        21.0161 
 153   0.0000       0.779723        21.2173 
 154   0.0000       0.789356        21.4795 
 155   0.0000       0.791605        21.5407 
 156   0.0000       0.795118        21.6363 
 157   0.0000       0.803179        21.8556 
 158   0.0000       0.808740        22.0069 
 159   0.0000       0.830542        22.6002 
 160   0.0000       0.847670        23.0663 
 161   0.0000       0.849142        23.1063 
 162   0.0000       0.852484        23.1973 
 163   0.0000       0.859985        23.4014 
 164   0.0000       0.862349        23.4657 
 165   0.0000       0.864857        23.5340 
 166   0.0000       0.878033        23.8925 
 167   0.0000       0.891927        24.2706 
 168   0.0000       0.910303        24.7706 
 169   0.0000       0.932616        25.3778 
 170   0.0000       0.937986        25.5239 
 171   0.0000       0.950889        25.8750 
 172   0.0000       0.954597        25.9759 
 173   0.0000       0.970466        26.4077 
 174   0.0000       0.979411        26.6511 
 175   0.0000       1.000499        27.2249 
 176   0.0000       1.009666        27.4744 
 177   0.0000       1.026368        27.9289 
 178   0.0000       1.047345        28.4997 
 179   0.0000       1.058246        28.7963 
 180   0.0000       1.069325        29.0978 
 181   0.0000       1.079205        29.3667 
 182   0.0000       1.086458        29.5640 
 183   0.0000       1.103579        30.0299 
 184   0.0000       1.127737        30.6873 
 185   0.0000       1.132438        30.8152 
 186   0.0000       1.137404        30.9503 
 187   0.0000       1.142171        31.0800 
 188   0.0000       1.159097        31.5406 
 189   0.0000       1.175832        31.9960 
 190   0.0000       1.192172        32.4406 
 191   0.0000       1.204599        32.7788 
 192   0.0000       1.261275        34.3210 
 193   0.0000       1.263976        34.3945 
 194   0.0000       1.269363        34.5411 
 195   0.0000       1.277478        34.7619 
 196   0.0000       1.288812        35.0704 
 197   0.0000       1.328892        36.1610 
 198   0.0000       1.333108        36.2757 
 199   0.0000       1.338442        36.4209 
 200   0.0000       1.342176        36.5225 
 201   0.0000       1.373750        37.3816 
 202   0.0000       1.386769        37.7359 
 203   0.0000       1.401583        38.1390 
 204   0.0000       1.406894        38.2835 
 205   0.0000       1.411688        38.4140 
 206   0.0000       1.421535        38.6819 
 207   0.0000       1.427772        38.8517 
 208   0.0000       1.438092        39.1325 
 209   0.0000       1.444124        39.2966 
 210   0.0000       1.464142        39.8413 
 211   0.0000       1.478282        40.2261 
 212   0.0000       1.487270        40.4707 
 213   0.0000       1.495509        40.6949 
 214   0.0000       1.504756        40.9465 
 215   0.0000       1.510151        41.0933 
 216   0.0000       1.514152        41.2022 
 217   0.0000       1.531399        41.6715 
 218   0.0000       1.543124        41.9905 
 219   0.0000       1.557555        42.3832 
 220   0.0000       1.563471        42.5442 
 221   0.0000       1.571704        42.7682 
 222   0.0000       1.585226        43.1362 
 223   0.0000       1.594319        43.3836 
 224   0.0000       1.598354        43.4934 
 225   0.0000       1.607792        43.7503 
 226   0.0000       1.619147        44.0592 
 227   0.0000       1.620151        44.0866 
 228   0.0000       1.642835        44.7038 
 229   0.0000       1.645906        44.7874 
 230   0.0000       1.655462        45.0474 
 231   0.0000       1.670125        45.4464 
 232   0.0000       1.678173        45.6654 
 233   0.0000       1.690848        46.0103 
 234   0.0000       1.716892        46.7190 
 235   0.0000       1.720421        46.8150 
 236   0.0000       1.740655        47.3656 
 237   0.0000       1.764241        48.0074 
 238   0.0000       1.768316        48.1183 
 239   0.0000       1.781883        48.4875 
 240   0.0000       1.811151        49.2839 
 241   0.0000       1.821897        49.5763 
 242   0.0000       1.847955        50.2854 
 243   0.0000       1.861153        50.6446 
 244   0.0000       1.865032        50.7501 
 245   0.0000       1.890134        51.4332 
 246   0.0000       1.907763        51.9129 
 247   0.0000       1.918975        52.2180 
 248   0.0000       1.933524        52.6139 
 249   0.0000       1.962657        53.4066 
 250   0.0000       1.965964        53.4966 
 251   0.0000       1.987984        54.0958 
 252   0.0000       1.997008        54.3414 
 253   0.0000       2.013849        54.7996 
 254   0.0000       2.044420        55.6315 
 255   0.0000       2.064994        56.1913 
 256   0.0000       2.089505        56.8583 
 257   0.0000       2.105338        57.2891 
 258   0.0000       2.110030        57.4168 
 259   0.0000       2.124343        57.8063 
 260   0.0000       2.146084        58.3979 
 261   0.0000       2.168807        59.0163 
 262   0.0000       2.172608        59.1197 
 263   0.0000       2.187420        59.5227 
 264   0.0000       2.192612        59.6640 
 265   0.0000       2.209054        60.1114 
 266   0.0000       2.223081        60.4931 
 267   0.0000       2.238399        60.9099 
 268   0.0000       2.256968        61.4152 
 269   0.0000       2.270821        61.7922 
 270   0.0000       2.286885        62.2293 
 271   0.0000       2.295734        62.4701 
 272   0.0000       2.312975        62.9393 
 273   0.0000       2.313660        62.9579 
 274   0.0000       2.332221        63.4630 
 275   0.0000       2.347989        63.8920 
 276   0.0000       2.355136        64.0865 
 277   0.0000       2.364963        64.3539 
 278   0.0000       2.372485        64.5586 
 279   0.0000       2.393970        65.1432 
 280   0.0000       2.409430        65.5639 
 281   0.0000       2.418163        65.8015 
 282   0.0000       2.424771        65.9814 
 283   0.0000       2.454009        66.7770 
 284   0.0000       2.458220        66.8916 
 285   0.0000       2.496987        67.9465 
 286   0.0000       2.515460        68.4491 
 287   0.0000       2.542262        69.1785 
 288   0.0000       2.547448        69.3196 
 289   0.0000       2.574404        70.0531 
 290   0.0000       2.617598        71.2285 
 291   0.0000       2.638378        71.7939 
 292   0.0000       2.644779        71.9681 
 293   0.0000       2.672984        72.7356 
 294   0.0000       2.686201        73.0953 
 295   0.0000       2.710078        73.7450 
 296   0.0000       2.736324        74.4592 
 297   0.0000       2.913046        79.2680 
 298   0.0000       2.956553        80.4519 
 299   0.0000       3.027345        82.3783 
 300   0.0000       3.040881        82.7466 
 301   0.0000       3.305893        89.9579 
 302   0.0000       3.358620        91.3927 
 303   0.0000       3.368599        91.6642 
 304   0.0000       3.376569        91.8811 
 305   0.0000       4.609543       125.4320 
 306   0.0000       4.653224       126.6207 
 307   0.0000       4.845625       131.8562 
 308   0.0000       4.878162       132.7415 
 309   0.0000       4.909539       133.5954 
 310   0.0000       4.914702       133.7358 
 311   0.0000       4.916485       133.7844 
 312   0.0000       4.933661       134.2517 
 313   0.0000       4.938516       134.3838 
 314   0.0000       4.951266       134.7308 
 315   0.0000       4.972678       135.3135 
 316   0.0000       4.993223       135.8725 
 317   0.0000       5.033952       136.9808 
 318   0.0000       5.070137       137.9654 
 319   0.0000       5.112302       139.1128 
 320   0.0000       5.133153       139.6802 
 321   0.0000       5.175898       140.8434 
 322   0.0000       5.184387       141.0744 
 323   0.0000       5.211389       141.8091 
 324   0.0000       5.225282       142.1871 
 325   0.0000       5.265978       143.2946 
 326   0.0000       5.279606       143.6654 
 327   0.0000       5.311707       144.5389 
 328   0.0000       5.487931       149.3342 
 329   0.0000       5.538780       150.7179 
 330   0.0000       5.612560       152.7255 
 331   0.0000       5.648419       153.7013 
 332   0.0000       5.745076       156.3315 
 333   0.0000       7.023338       191.1148 
 334   0.0000       7.236879       196.9255 
 335   0.0000       7.247406       197.2119 
 336   0.0000       9.005795       245.0601 
 337   0.0000       9.047750       246.2018 
 338   0.0000      29.435944       800.9928 
 339   0.0000      29.546516       804.0016 
 340   0.0000      29.598070       805.4044 
 341   0.0000      29.726956       808.9116 
 342   0.0000      29.836941       811.9044 
 343   0.0000      29.940041       814.7099 
 344   0.0000      29.999849       816.3374 
 345   0.0000      30.034713       817.2861 
 346   0.0000      30.161798       820.7442 
 347   0.0000      36.205910       985.2129 
 348   0.0000      36.245839       986.2994 
 349   0.0000      36.459774       992.1209 
 350   0.0000      36.525830       993.9184 
 351   0.0000      36.526542       993.9377 
 352   0.0000      36.533856       994.1368 
 353   0.0000      36.536363       994.2050 
 354   0.0000      36.553421       994.6692 
 355   0.0000      36.564297       994.9651 
 356   0.0000      36.587520       995.5970 
 357   0.0000      36.622549       996.5502 
 358   0.0000      36.640684       997.0437 
 359   0.0000      36.643070       997.1086 
 360   0.0000      36.703097       998.7421 
 361   0.0000      36.714270       999.0461 
 362   0.0000      36.756710      1000.2009 
 363   0.0000      36.813882      1001.7566 
 364   0.0000      36.831975      1002.2490 
 365   0.0000      36.841936      1002.5200 
 366   0.0000      40.952257      1114.3676 
 367   0.0000      41.172635      1120.3643 
 368   0.0000      41.197320      1121.0361 
 369   0.0000      53.544115      1457.0095 
 370   0.0000      53.581626      1458.0302 

                 SPIN DOWN ORBITALS
  NO   OCC          E(Eh)            E(eV) 
   0   1.0000     -19.205133      -522.5982 
   1   1.0000     -19.184306      -522.0315 
   2   1.0000     -14.659771      -398.9127 
   3   1.0000     -14.454017      -393.3138 
   4   1.0000     -14.436214      -392.8294 
   5   1.0000     -10.422067      -283.5989 
   6   1.0000     -10.384074      -282.5650 
   7   1.0000     -10.369945      -282.1805 
   8   1.0000     -10.360996      -281.9370 
   9   1.0000     -10.329836      -281.0891 
  10   1.0000     -10.313833      -280.6537 
  11   1.0000     -10.300008      -280.2775 
  12   1.0000     -10.295361      -280.1510 
  13   1.0000     -10.262407      -279.2543 
  14   1.0000      -1.205041       -32.7908 
  15   1.0000      -1.138322       -30.9753 
  16   1.0000      -1.116857       -30.3912 
  17   1.0000      -1.017227       -27.6801 
  18   1.0000      -1.007942       -27.4275 
  19   1.0000      -0.951412       -25.8892 
  20   1.0000      -0.885227       -24.0883 
  21   1.0000      -0.840266       -22.8648 
  22   1.0000      -0.807318       -21.9682 
  23   1.0000      -0.803976       -21.8773 
  24   1.0000      -0.783562       -21.3218 
  25   1.0000      -0.778180       -21.1754 
  26   1.0000      -0.749257       -20.3883 
  27   1.0000      -0.715483       -19.4693 
  28   1.0000      -0.681301       -18.5391 
  29   1.0000      -0.673241       -18.3198 
  30   1.0000      -0.654345       -17.8056 
  31   1.0000      -0.625899       -17.0316 
  32   1.0000      -0.601265       -16.3613 
  33   1.0000      -0.587482       -15.9862 
  34   1.0000      -0.573370       -15.6022 
  35   1.0000      -0.554023       -15.0757 
  36   1.0000      -0.548776       -14.9330 
  37   1.0000      -0.540831       -14.7168 
  38   1.0000      -0.531180       -14.4542 
  39   1.0000      -0.524623       -14.2757 
  40   1.0000      -0.514599       -14.0030 
  41   1.0000      -0.495616       -13.4864 
  42   1.0000      -0.485300       -13.2057 
  43   1.0000      -0.481881       -13.1126 
  44   1.0000      -0.480631       -13.0786 
  45   1.0000      -0.471273       -12.8240 
  46   1.0000      -0.460628       -12.5343 
  47   1.0000      -0.456118       -12.4116 
  48   1.0000      -0.454853       -12.3772 
  49   1.0000      -0.428310       -11.6549 
  50   1.0000      -0.356547        -9.7021 
  51   1.0000      -0.353034        -9.6066 
  52   1.0000      -0.336131        -9.1466 
  53   1.0000      -0.330785        -9.0011 
  54   0.0000      -0.257278        -7.0009 
  55   0.0000      -0.186001        -5.0613 
  56   0.0000      -0.115828        -3.1518 
  57   0.0000      -0.102021        -2.7761 
  58   0.0000      -0.083358        -2.2683 
  59   0.0000      -0.079716        -2.1692 
  60   0.0000      -0.067836        -1.8459 
  61   0.0000      -0.065214        -1.7746 
  62   0.0000      -0.054422        -1.4809 
  63   0.0000      -0.048976        -1.3327 
  64   0.0000      -0.042961        -1.1690 
  65   0.0000      -0.032182        -0.8757 
  66   0.0000      -0.019157        -0.5213 
  67   0.0000      -0.007177        -0.1953 
  68   0.0000      -0.004820        -0.1312 
  69   0.0000      -0.002189        -0.0596 
  70   0.0000       0.018446         0.5019 
  71   0.0000       0.027320         0.7434 
  72   0.0000       0.030271         0.8237 
  73   0.0000       0.049513         1.3473 
  74   0.0000       0.051610         1.4044 
  75   0.0000       0.066929         1.8212 
  76   0.0000       0.071662         1.9500 
  77   0.0000       0.080848         2.2000 
  78   0.0000       0.086980         2.3669 
  79   0.0000       0.093006         2.5308 
  80   0.0000       0.101485         2.7615 
  81   0.0000       0.105643         2.8747 
  82   0.0000       0.113466         3.0876 
  83   0.0000       0.118700         3.2300 
  84   0.0000       0.122180         3.3247 
  85   0.0000       0.125240         3.4080 
  86   0.0000       0.127069         3.4577 
  87   0.0000       0.134573         3.6619 
  88   0.0000       0.141422         3.8483 
  89   0.0000       0.149479         4.0675 
  90   0.0000       0.152630         4.1533 
  91   0.0000       0.163701         4.4545 
  92   0.0000       0.172900         4.7049 
  93   0.0000       0.176848         4.8123 
  94   0.0000       0.184004         5.0070 
  95   0.0000       0.188686         5.1344 
  96   0.0000       0.191186         5.2024 
  97   0.0000       0.194883         5.3030 
  98   0.0000       0.202062         5.4984 
  99   0.0000       0.210299         5.7225 
 100   0.0000       0.214980         5.8499 
 101   0.0000       0.220915         6.0114 
 102   0.0000       0.225471         6.1354 
 103   0.0000       0.228300         6.2124 
 104   0.0000       0.243215         6.6182 
 105   0.0000       0.247772         6.7422 
 106   0.0000       0.256798         6.9878 
 107   0.0000       0.264954         7.2098 
 108   0.0000       0.276447         7.5225 
 109   0.0000       0.289492         7.8775 
 110   0.0000       0.293579         7.9887 
 111   0.0000       0.296145         8.0585 
 112   0.0000       0.304263         8.2794 
 113   0.0000       0.325796         8.8653 
 114   0.0000       0.329321         8.9613 
 115   0.0000       0.333145         9.0653 
 116   0.0000       0.351617         9.5680 
 117   0.0000       0.358647         9.7593 
 118   0.0000       0.366877         9.9832 
 119   0.0000       0.374043        10.1782 
 120   0.0000       0.386981        10.5303 
 121   0.0000       0.399280        10.8650 
 122   0.0000       0.400979        10.9112 
 123   0.0000       0.412169        11.2157 
 124   0.0000       0.424965        11.5639 
 125   0.0000       0.438404        11.9296 
 126   0.0000       0.441376        12.0105 
 127   0.0000       0.452610        12.3161 
 128   0.0000       0.466140        12.6843 
 129   0.0000       0.484694        13.1892 
 130   0.0000       0.506129        13.7725 
 131   0.0000       0.518220        14.1015 
 132   0.0000       0.528217        14.3735 
 133   0.0000       0.539937        14.6924 
 134   0.0000       0.545398        14.8410 
 135   0.0000       0.575330        15.6555 
 136   0.0000       0.588851        16.0235 
 137   0.0000       0.610079        16.6011 
 138   0.0000       0.613509        16.6944 
 139   0.0000       0.650119        17.6906 
 140   0.0000       0.666849        18.1459 
 141   0.0000       0.673832        18.3359 
 142   0.0000       0.684573        18.6282 
 143   0.0000       0.704243        19.1634 
 144   0.0000       0.718150        19.5419 
 145   0.0000       0.730862        19.8878 
 146   0.0000       0.736996        20.0547 
 147   0.0000       0.741700        20.1827 
 148   0.0000       0.746517        20.3138 
 149   0.0000       0.753615        20.5069 
 150   0.0000       0.762761        20.7558 
 151   0.0000       0.769200        20.9310 
 152   0.0000       0.776479        21.1291 
 153   0.0000       0.782852        21.3025 
 154   0.0000       0.791297        21.5323 
 155   0.0000       0.795603        21.6495 
 156   0.0000       0.799448        21.7541 
 157   0.0000       0.803518        21.8648 
 158   0.0000       0.811173        22.0731 
 159   0.0000       0.831483        22.6258 
 160   0.0000       0.847962        23.0742 
 161   0.0000       0.849482        23.1156 
 162   0.0000       0.852813        23.2062 
 163   0.0000       0.860834        23.4245 
 164   0.0000       0.864666        23.5288 
 165   0.0000       0.865339        23.5471 
 166   0.0000       0.878665        23.9097 
 167   0.0000       0.893645        24.3173 
 168   0.0000       0.910678        24.7808 
 169   0.0000       0.932812        25.3831 
 170   0.0000       0.940124        25.5821 
 171   0.0000       0.951525        25.8923 
 172   0.0000       0.956967        26.0404 
 173   0.0000       0.970920        26.4201 
 174   0.0000       0.980715        26.6866 
 175   0.0000       1.002247        27.2725 
 176   0.0000       1.012932        27.5633 
 177   0.0000       1.029310        28.0089 
 178   0.0000       1.049060        28.5464 
 179   0.0000       1.058976        28.8162 
 180   0.0000       1.069930        29.1143 
 181   0.0000       1.080635        29.4056 
 182   0.0000       1.087389        29.5893 
 183   0.0000       1.107750        30.1434 
 184   0.0000       1.128887        30.7186 
 185   0.0000       1.137688        30.9581 
 186   0.0000       1.146229        31.1905 
 187   0.0000       1.153162        31.3791 
 188   0.0000       1.170380        31.8477 
 189   0.0000       1.177667        32.0459 
 190   0.0000       1.193068        32.4650 
 191   0.0000       1.207925        32.8693 
 192   0.0000       1.262813        34.3629 
 193   0.0000       1.264811        34.4173 
 194   0.0000       1.270911        34.5833 
 195   0.0000       1.284215        34.9453 
 196   0.0000       1.289255        35.0824 
 197   0.0000       1.329054        36.1654 
 198   0.0000       1.333177        36.2776 
 199   0.0000       1.338651        36.4265 
 200   0.0000       1.349829        36.7307 
 201   0.0000       1.374417        37.3998 
 202   0.0000       1.397959        38.0404 
 203   0.0000       1.403013        38.1779 
 204   0.0000       1.408062        38.3153 
 205   0.0000       1.421073        38.6694 
 206   0.0000       1.427832        38.8533 
 207   0.0000       1.430061        38.9139 
 208   0.0000       1.439645        39.1747 
 209   0.0000       1.445089        39.3229 
 210   0.0000       1.465448        39.8769 
[...]
      px      :     0.989679
      py      :     0.917327
      dz2     :     0.017077  d :     0.173931
      dxz     :     0.014190
      dyz     :     0.056858
      dx2y2   :     0.045840
      dxy     :     0.039965
  8 N s       :     3.021231  s :     3.021231
      pz      :     1.188573  p :     3.570674
      px      :     1.184277
      py      :     1.197824
      dz2     :     0.013132  d :     0.058314
      dxz     :     0.008594
      dyz     :     0.013824
      dx2y2   :     0.016651
      dxy     :     0.006113
  9 H s       :     0.843429  s :     0.843429
      pz      :     0.032551  p :     0.093982
      px      :     0.048246
      py      :     0.013185
 10 H s       :     0.739822  s :     0.739822
      pz      :     0.037981  p :     0.128194
      px      :     0.023306
      py      :     0.066907
 11 H s       :     0.739891  s :     0.739891
      pz      :     0.070392  p :     0.128647
      px      :     0.034787
      py      :     0.023468
 12 H s       :     0.755438  s :     0.755438
      pz      :     0.069033  p :     0.152285
      px      :     0.035109
      py      :     0.048143
 13 C s       :     2.844568  s :     2.844568
      pz      :     0.950008  p :     2.769926
      px      :     1.023510
      py      :     0.796408
      dz2     :     0.156777  d :     0.487390
      dxz     :     0.131115
      dyz     :     0.098994
      dx2y2   :     0.057992
      dxy     :     0.042512
 14 N s       :     3.066349  s :     3.066349
      pz      :     1.153364  p :     3.803754
      px      :     1.280983
      py      :     1.369406
      dz2     :     0.019594  d :     0.080933
      dxz     :     0.022789
      dyz     :     0.016897
      dx2y2   :     0.010428
      dxy     :     0.011225
 15 H s       :     0.771979  s :     0.771979
      pz      :     0.049150  p :     0.145167
      px      :     0.041194
      py      :     0.054823
 16 O s       :     3.584362  s :     3.584362
      pz      :     1.497047  p :     4.574529
      px      :     1.648543
      py      :     1.428939
      dz2     :     0.009859  d :     0.032061
      dxz     :     0.011885
      dyz     :     0.005709
      dx2y2   :     0.002394
      dxy     :     0.002214
 17 H s       :     0.739389  s :     0.739389
      pz      :     0.024549  p :     0.127575
      px      :     0.080183
      py      :     0.022842
 18 C s       :     2.856468  s :     2.856468
      pz      :     0.880222  p :     2.967591
      px      :     1.029195
      py      :     1.058174
      dz2     :     0.049692  d :     0.155842
      dxz     :     0.032539
      dyz     :     0.038765
      dx2y2   :     0.025123
      dxy     :     0.009723
 19 H s       :     0.881391  s :     0.881391
      pz      :     0.018179  p :     0.079980
      px      :     0.017211
      py      :     0.044589
 20 H s       :     0.885824  s :     0.885824
      pz      :     0.013006  p :     0.079592
      px      :     0.047264
      py      :     0.019323
 21 H s       :     0.860941  s :     0.860941
      pz      :     0.022940  p :     0.084192
      px      :     0.028274
      py      :     0.032978
 22 C s       :     2.868852  s :     2.868852
      pz      :     1.030274  p :     3.061624
      px      :     0.983666
      py      :     1.047683
      dz2     :     0.021508  d :     0.105320
      dxz     :     0.019657
      dyz     :     0.013678
      dx2y2   :     0.034408
      dxy     :     0.016068
 23 H s       :     0.863376  s :     0.863376
      pz      :     0.034474  p :     0.081622
      px      :     0.019946
      py      :     0.027202
 24 H s       :     0.855895  s :     0.855895
      pz      :     0.017955  p :     0.082139
      px      :     0.019054
      py      :     0.045129
 25 H s       :     0.882789  s :     0.882789
      pz      :     0.039705  p :     0.081592
      px      :     0.021862
      py      :     0.020025
 26 H s       :     0.852907  s :     0.852907
      pz      :     0.024295  p :     0.082228
      px      :     0.016088
      py      :     0.041844
 27 H s       :     0.869328  s :     0.869328
      pz      :     0.017784  p :     0.080993
      px      :     0.046658
      py      :     0.016552
 28 H s       :     0.852685  s :     0.852685
      pz      :     0.049190  p :     0.085183
      px      :     0.018885
      py      :     0.017109
 29 H s       :     0.860029  s :     0.860029
      pz      :     0.046342  p :     0.082792
      px      :     0.019815
      py      :     0.016635
 30 H s       :     0.859942  s :     0.859942
      pz      :     0.016423  p :     0.082881
      px      :     0.049940
      py      :     0.016518
 31 H s       :     0.854649  s :     0.854649
      pz      :     0.016788  p :     0.080336
      px      :     0.048291
      py      :     0.015257
 32 H s       :     0.844404  s :     0.844404
      pz      :     0.044663  p :     0.081247
      px      :     0.019641
      py      :     0.016943

SPIN
  0 N s       :    -0.000002  s :    -0.000002
      pz      :    -0.000001  p :     0.000020
      px      :     0.000033
      py      :    -0.000012
      dz2     :    -0.000000  d :    -0.000005
      dxz     :    -0.000001
      dyz     :    -0.000000
      dx2y2   :    -0.000001
      dxy     :    -0.000002
  1 C s       :    -0.000017  s :    -0.000017
      pz      :    -0.000036  p :    -0.000195
      px      :    -0.000024
      py      :    -0.000136
      dz2     :     0.000049  d :     0.000051
      dxz     :    -0.000001
      dyz     :     0.000017
      dx2y2   :    -0.000017
      dxy     :     0.000002
  2 C s       :     0.000031  s :     0.000031
      pz      :     0.000072  p :     0.000081
      px      :     0.000004
      py      :     0.000005
      dz2     :     0.000003  d :    -0.000003
      dxz     :    -0.000001
      dyz     :    -0.000006
      dx2y2   :     0.000001
      dxy     :     0.000001
  3 O s       :    -0.000000  s :    -0.000000
      pz      :     0.000046  p :     0.000070
      px      :     0.000030
      py      :    -0.000006
      dz2     :     0.000000  d :     0.000000
      dxz     :     0.000000
      dyz     :    -0.000000
      dx2y2   :     0.000000
      dxy     :     0.000000
  4 C s       :    -0.000167  s :    -0.000167
      pz      :     0.000602  p :     0.000204
      px      :     0.000227
      py      :    -0.000624
      dz2     :    -0.000001  d :     0.000041
      dxz     :    -0.000002
      dyz     :    -0.000035
      dx2y2   :     0.000033
      dxy     :     0.000047
  5 C s       :     0.000640  s :     0.000640
      pz      :     0.000230  p :     0.002002
      px      :     0.000930
      py      :     0.000842
      dz2     :     0.000065  d :    -0.000437
      dxz     :    -0.000032
      dyz     :    -0.000091
      dx2y2   :    -0.000330
      dxy     :    -0.000049
  6 C s       :    -0.002655  s :    -0.002655
      pz      :    -0.001635  p :    -0.017981
      px      :    -0.003918
      py      :    -0.012429
      dz2     :     0.009712  d :     0.032959
      dxz     :     0.000959
      dyz     :     0.010886
      dx2y2   :     0.003591
      dxy     :     0.007812
  7 C s       :     0.039522  s :     0.039522
      pz      :     0.434787  p :     0.814524
      px      :     0.353599
      py      :     0.026138
      dz2     :     0.000468  d :    -0.001810
      dxz     :    -0.001339
      dyz     :    -0.000140
      dx2y2   :    -0.001086
      dxy     :     0.000288
  8 N s       :    -0.001404  s :    -0.001404
      pz      :    -0.003278  p :    -0.014790
      px      :    -0.002936
      py      :    -0.008576
      dz2     :     0.007865  d :     0.016191
      dxz     :     0.001614
      dyz     :     0.003852
      dx2y2   :     0.000524
      dxy     :     0.002337
  9 H s       :    -0.019403  s :    -0.019403
      pz      :     0.015374  p :     0.026784
      px      :     0.010709
      py      :     0.000700
 10 H s       :     0.004928  s :     0.004928
      pz      :    -0.000356  p :    -0.000798
      px      :    -0.000097
      py      :    -0.000346
 11 H s       :     0.034313  s :     0.034313
      pz      :    -0.000194  p :     0.000017
      px      :    -0.000144
      py      :     0.000355
 12 H s       :    -0.000002  s :    -0.000002
      pz      :     0.000000  p :     0.000001
      px      :     0.000001
      py      :    -0.000000
 13 C s       :    -0.000002  s :    -0.000002
      pz      :    -0.000004  p :    -0.000020
      px      :    -0.000002
      py      :    -0.000014
      dz2     :     0.000012  d :     0.000010
      dxz     :     0.000000
      dyz     :    -0.000004
      dx2y2   :     0.000001
      dxy     :     0.000000
 14 N s       :     0.000001  s :     0.000001
      pz      :    -0.000001  p :    -0.000010
      px      :     0.000003
      py      :    -0.000013
      dz2     :     0.000000  d :     0.000001
      dxz     :     0.000001
      dyz     :     0.000000
      dx2y2   :     0.000000
      dxy     :     0.000000
 15 H s       :    -0.000000  s :    -0.000000
      pz      :     0.000000  p :     0.000000
      px      :     0.000000
      py      :    -0.000000
 16 O s       :    -0.000000  s :    -0.000000
      pz      :     0.000017  p :     0.000071
      px      :     0.000063
      py      :    -0.000009
      dz2     :    -0.000000  d :    -0.000000
      dxz     :    -0.000000
      dyz     :    -0.000000
      dx2y2   :    -0.000000
      dxy     :    -0.000000
 17 H s       :     0.011233  s :     0.011233
      pz      :    -0.000371  p :    -0.000824
      px      :    -0.000243
      py      :    -0.000210
 18 C s       :    -0.000000  s :    -0.000000
      pz      :     0.000002  p :     0.000002
      px      :     0.000000
      py      :     0.000000
      dz2     :    -0.000000  d :    -0.000000
      dxz     :     0.000000
      dyz     :    -0.000001
      dx2y2   :    -0.000000
      dxy     :     0.000000
 19 H s       :    -0.000001  s :    -0.000001
      pz      :     0.000000  p :     0.000000
      px      :    -0.000000
      py      :     0.000000
 20 H s       :    -0.000000  s :    -0.000000
      pz      :     0.000000  p :     0.000000
      px      :     0.000000
      py      :    -0.000000
 21 H s       :     0.000000  s :     0.000000
      pz      :     0.000000  p :     0.000000
      px      :     0.000000
      py      :     0.000000
 22 C s       :     0.000006  s :     0.000006
      pz      :     0.000000  p :     0.000012
      px      :     0.000012
      py      :     0.000000
      dz2     :     0.000000  d :    -0.000001
      dxz     :    -0.000000
      dyz     :    -0.000000
      dx2y2   :    -0.000000
      dxy     :    -0.000001
 23 H s       :    -0.000000  s :    -0.000000
      pz      :     0.000000  p :     0.000000
      px      :     0.000000
      py      :     0.000000
 24 H s       :    -0.000002  s :    -0.000002
      pz      :     0.000000  p :     0.000000
      px      :     0.000000
      py      :     0.000000
 25 H s       :    -0.000000  s :    -0.000000
      pz      :     0.000000  p :     0.000000
      px      :     0.000000
      py      :     0.000000
 26 H s       :     0.000003  s :     0.000003
      pz      :    -0.000005  p :    -0.000015
      px      :    -0.000003
      py      :    -0.000006
 27 H s       :     0.000343  s :     0.000343
      pz      :     0.000022  p :     0.000016
      px      :     0.000008
      py      :    -0.000014
 28 H s       :     0.000364  s :     0.000364
      pz      :     0.000071  p :     0.000106
      px      :    -0.000002
      py      :     0.000037
 29 H s       :    -0.000497  s :    -0.000497
      pz      :     0.000153  p :     0.000145
      px      :     0.000014
      py      :    -0.000022
 30 H s       :    -0.000331  s :    -0.000331
      pz      :     0.000014  p :     0.000150
      px      :     0.000029
      py      :     0.000107
 31 H s       :     0.028060  s :     0.028060
      pz      :    -0.000128  p :    -0.001167
      px      :    -0.000648
      py      :    -0.000391
 32 H s       :     0.051154  s :     0.051154
      pz      :    -0.001076  p :    -0.001517
      px      :    -0.000226
      py      :    -0.000215


                      *****************************
                      * MAYER POPULATION ANALYSIS *
                      *****************************

  NA   - Mulliken gross atomic population
  ZA   - Total nuclear charge
  QA   - Mulliken gross atomic charge
  VA   - Mayer's total valence
  BVA  - Mayer's bonded valence
  FA   - Mayer's free valence

  ATOM       NA         ZA         QA         VA         BVA        FA
  0 N      7.1367     7.0000    -0.1367     3.2685     3.2685     0.0000
  1 C      6.1067     6.0000    -0.1067     4.0806     4.0806     0.0000
  2 C      5.9171     6.0000     0.0829     4.0412     4.0412     0.0000
  3 O      8.3263     8.0000    -0.3263     2.1146     2.1146     0.0000
  4 C      6.2683     6.0000    -0.2683     3.9304     3.9304     0.0000
  5 C      6.2786     6.0000    -0.2786     3.9835     3.9834     0.0000
  6 C      6.2516     6.0000    -0.2516     3.9026     3.8998     0.0029
  7 C      6.1322     6.0000    -0.1322     3.6878     2.9072     0.7806
  8 N      7.3494     7.0000    -0.3494     3.5644     3.5632     0.0012
  9 H      0.7845     1.0000     0.2155     0.9548     0.9526     0.0022
 10 H      0.6616     1.0000     0.3384     0.8890     0.8889     0.0000
 11 H      0.6650     1.0000     0.3350     0.8854     0.8838     0.0016
 12 H      0.7416     1.0000     0.2584     0.9615     0.9615     0.0000
 13 C      5.8302     6.0000     0.1698     3.9785     3.9785     0.0000
 14 N      7.1058     7.0000    -0.1058     3.2008     3.2008     0.0000
 15 H      0.7627     1.0000     0.2373     0.9585     0.9585     0.0000
 16 O      8.3166     8.0000    -0.3166     2.1207     2.1207     0.0000
 17 H      0.6648     1.0000     0.3352     0.8913     0.8911     0.0001
 18 C      6.4487     6.0000    -0.4487     3.8781     3.8781     0.0000
 19 H      0.8195     1.0000     0.1805     0.9525     0.9525     0.0000
 20 H      0.8351     1.0000     0.1649     0.9574     0.9574     0.0000
 21 H      0.8007     1.0000     0.1993     0.9638     0.9638     0.0000
 22 C      6.5423     6.0000    -0.5423     3.8493     3.8493     0.0000
 23 H      0.8153     1.0000     0.1847     0.9598     0.9598     0.0000
 24 H      0.8006     1.0000     0.1994     0.9559     0.9559     0.0000
 25 H      0.8497     1.0000     0.1503     0.9702     0.9702     0.0000
 26 H      0.8414     1.0000     0.1586     0.9492     0.9492     0.0000
 27 H      0.8538     1.0000     0.1462     0.9686     0.9686     0.0000
 28 H      0.8167     1.0000     0.1833     0.9623     0.9623     0.0000
 29 H      0.8174     1.0000     0.1826     0.9601     0.9601     0.0000
 30 H      0.8240     1.0000     0.1760     0.9689     0.9689     0.0000
 31 H      0.8219     1.0000     0.1781     0.9589     0.9580     0.0010
 32 H      0.8129     1.0000     0.1871     0.9533     0.9498     0.0035

  Mayer bond orders larger than 0.100000
B(  0-N ,  1-C ) :   1.0203 B(  0-N , 12-H ) :   0.8964 B(  0-N , 13-C ) :   1.1900 
B(  1-C ,  2-C ) :   0.8954 B(  1-C ,  4-C ) :   0.9354 B(  1-C , 16-O ) :   0.1257 
B(  1-C , 26-H ) :   0.9732 B(  2-C ,  3-O ) :   1.8622 B(  2-C , 14-N ) :   1.2053 
B(  4-C ,  5-C ) :   0.9637 B(  4-C , 27-H ) :   0.9693 B(  4-C , 28-H ) :   0.9554 
B(  5-C ,  6-C ) :   0.9518 B(  5-C , 29-H ) :   0.9633 B(  5-C , 30-H ) :   0.9653 
B(  6-C ,  7-C ) :   0.9963 B(  6-C , 31-H ) :   0.9454 B(  6-C , 32-H ) :   0.9416 
B(  7-C ,  8-N ) :   0.8948 B(  7-C ,  9-H ) :   0.9397 B(  8-N , 10-H ) :   0.8845 
B(  8-N , 11-H ) :   0.8705 B(  8-N , 17-H ) :   0.8831 B( 13-C , 16-O ) :   1.8671 
B( 13-C , 22-C ) :   0.9026 B( 14-N , 15-H ) :   0.9265 B( 14-N , 18-C ) :   0.9637 
B( 18-C , 19-H ) :   0.9542 B( 18-C , 20-H ) :   0.9586 B( 18-C , 21-H ) :   0.9441 
B( 22-C , 23-H ) :   0.9572 B( 22-C , 24-H ) :   0.9501 B( 22-C , 25-H ) :   0.9742 


-------
TIMINGS
-------

Total SCF time: 0 days 0 hours 0 min 16 sec 

Total time                  ....      16.905 sec
Sum of individual times     ....      16.110 sec  ( 95.3%)

Fock matrix formation       ....      13.912 sec  ( 82.3%)
  Split-RI-J                ....       1.165 sec  (  8.4% of F)
  Chain of spheres X        ....       9.653 sec  ( 69.4% of F)
  XC integration            ....       2.788 sec  ( 20.0% of F)
    Basis function eval.    ....       0.295 sec  ( 10.6% of XC)
    Density eval.           ....       0.416 sec  ( 14.9% of XC)
    XC-Functional eval.     ....       0.067 sec  (  2.4% of XC)
    XC-Potential eval.      ....       0.260 sec  (  9.3% of XC)
Diagonalization             ....       0.484 sec  (  2.9%)
Density matrix formation    ....       0.023 sec  (  0.1%)
Population analysis         ....       0.075 sec  (  0.4%)
Initial guess               ....       0.054 sec  (  0.3%)
Orbital Transformation      ....       0.000 sec  (  0.0%)
Orbital Orthonormalization  ....       0.042 sec  (  0.2%)
DIIS solution               ....       0.231 sec  (  1.4%)
Grid generation             ....       1.332 sec  (  7.9%)

Maximum memory used throughout the entire SCF-calculation: 85.3 MB

-------------------------   --------------------
FINAL SINGLE POINT ENERGY      -668.578585951951
-------------------------   --------------------

                                *** OPTIMIZATION RUN DONE ***

                            ***************************************
                            *     ORCA property calculations      *
                            ***************************************

                                    ---------------------
                                    Active property flags
                                    ---------------------
   (+) Dipole Moment


------------------------------------------------------------------------------
                       ORCA ELECTRIC PROPERTIES CALCULATION
------------------------------------------------------------------------------

Dipole Moment Calculation                       ... on
Quadrupole Moment Calculation                   ... off
Polarizability Calculation                      ... off
GBWName                                         ... opt.gbw
Electron density                                ... opt.scfp
The origin for moment calculation is the CENTER OF MASS  = (-12.382820,  3.989042  0.340374)

-------------
DIPOLE MOMENT
-------------
                                X             Y             Z
Electronic contribution:     -1.68311      -2.72453      -0.25905
Nuclear contribution   :      4.05697       9.97340      -1.26191
                        -----------------------------------------
Total Dipole Moment    :      2.37387       7.24886      -1.52096
                        -----------------------------------------
Magnitude (a.u.)       :      7.77782
Magnitude (Debye)      :     19.76966



--------------------
Rotational spectrum 
--------------------
 
Rotational constants in cm-1:     0.019788     0.012998     0.008893 
Rotational constants in MHz :   593.224808   389.662622   266.592169 

 Dipole components along the rotational axes: 
x,y,z [a.u.] :    -7.590415     1.696578     0.042219 
x,y,z [Debye]:   -19.293301     4.312359     0.107312 

 

Timings for individual modules:

Sum of individual times         ...      821.232 sec (=  13.687 min)
GTO integral calculation        ...       67.315 sec (=   1.122 min)   8.2 %
SCF iterations                  ...      550.965 sec (=   9.183 min)  67.1 %
SCF Gradient evaluation         ...      201.731 sec (=   3.362 min)  24.6 %
Geometry relaxation             ...        1.221 sec (=   0.020 min)   0.1 %
                             ****ORCA TERMINATED NORMALLY****
TOTAL RUN TIME: 0 days 0 hours 14 minutes 42 seconds 164 msec
