
                                 *****************
                                 * O   R   C   A *
                                 *****************

                                            #,                                       
                                            ###                                      
                                            ####                                     
                                            #####                                    
                                            ######                                   
                                           ########,                                 
                                     ,,################,,,,,                         
                               ,,#################################,,                 
                          ,,##########################################,,             
                       ,#########################################, ''#####,          
                    ,#############################################,,   '####,        
                  ,##################################################,,,,####,       
                ,###########''''           ''''###############################       
              ,#####''   ,,,,##########,,,,          '''####'''          '####       
            ,##' ,,,,###########################,,,                        '##       
           ' ,,###''''                  '''############,,,                           
         ,,##''                                '''############,,,,        ,,,,,,###''
      ,#''                                            '''#######################'''  
     '                                                          ''''####''''         
             ,#######,   #######,   ,#######,      ##                                
            ,#'     '#,  ##    ##  ,#'     '#,    #''#        ######   ,####,        
            ##       ##  ##   ,#'  ##            #'  '#       #        #'  '#        
            ##       ##  #######   ##           ,######,      #####,   #    #        
            '#,     ,#'  ##    ##  '#,     ,#' ,#      #,         ##   #,  ,#        
             '#######'   ##     ##  '#######'  #'      '#     #####' # '####'        



                  #######################################################
                  #                        -***-                        #
                  #          Department of theory and spectroscopy      #
                  #    Directorship and core code : Frank Neese         #
                  #        Max Planck Institute fuer Kohlenforschung    #
                  #                Kaiser Wilhelm Platz 1               #
                  #                 D-45470 Muelheim/Ruhr               #
                  #                      Germany                        #
                  #                                                     #
                  #                  All rights reserved                #
                  #                        -***-                        #
                  #######################################################


                         Program Version 5.0.4 -  RELEASE  -


 With contributions from (in alphabetic order):
   Daniel Aravena         : Magnetic Suceptibility
   Michael Atanasov       : Ab Initio Ligand Field Theory (pilot matlab implementation)
   Alexander A. Auer      : GIAO ZORA, VPT2 properties, NMR spectrum
   Ute Becker             : Parallelization
   Giovanni Bistoni       : ED, misc. LED, open-shell LED, HFLD
   Martin Brehm           : Molecular dynamics
   Dmytro Bykov           : SCF Hessian
   Vijay G. Chilkuri      : MRCI spin determinant printing, contributions to CSF-ICE
   Dipayan Datta          : RHF DLPNO-CCSD density
   Achintya Kumar Dutta   : EOM-CC, STEOM-CC
   Dmitry Ganyushin       : Spin-Orbit,Spin-Spin,Magnetic field MRCI
   Miquel Garcia          : C-PCM and meta-GGA Hessian, CC/C-PCM, Gaussian charge scheme
   Yang Guo               : DLPNO-NEVPT2, F12-NEVPT2, CIM, IAO-localization
   Andreas Hansen         : Spin unrestricted coupled pair/coupled cluster methods
   Benjamin Helmich-Paris : MC-RPA, TRAH-SCF, COSX integrals
   Lee Huntington         : MR-EOM, pCC
   Robert Izsak           : Overlap fitted RIJCOSX, COSX-SCS-MP3, EOM
   Marcus Kettner         : VPT2
   Christian Kollmar      : KDIIS, OOCD, Brueckner-CCSD(T), CCSD density, CASPT2, CASPT2-K
   Simone Kossmann        : Meta GGA functionals, TD-DFT gradient, OOMP2, MP2 Hessian
   Martin Krupicka        : Initial AUTO-CI
   Lucas Lang             : DCDCAS
   Marvin Lechner         : AUTO-CI (C++ implementation), FIC-MRCC
   Dagmar Lenk            : GEPOL surface, SMD
   Dimitrios Liakos       : Extrapolation schemes; Compound Job, initial MDCI parallelization
   Dimitrios Manganas     : Further ROCIS development; embedding schemes
   Dimitrios Pantazis     : SARC Basis sets
   Anastasios Papadopoulos: AUTO-CI, single reference methods and gradients
   Taras Petrenko         : DFT Hessian,TD-DFT gradient, ASA, ECA, R-Raman, ABS, FL, XAS/XES, NRVS
   Peter Pinski           : DLPNO-MP2, DLPNO-MP2 Gradient
   Christoph Reimann      : Effective Core Potentials
   Marius Retegan         : Local ZFS, SOC
   Christoph Riplinger    : Optimizer, TS searches, QM/MM, DLPNO-CCSD(T), (RO)-DLPNO pert. Triples
   Tobias Risthaus        : Range-separated hybrids, TD-DFT gradient, RPA, STAB
   Michael Roemelt        : Original ROCIS implementation
   Masaaki Saitow         : Open-shell DLPNO-CCSD energy and density
   Barbara Sandhoefer     : DKH picture change effects
   Avijit Sen             : IP-ROCIS
   Kantharuban Sivalingam : CASSCF convergence, NEVPT2, FIC-MRCI
   Bernardo de Souza      : ESD, SOC TD-DFT
   Georgi Stoychev        : AutoAux, RI-MP2 NMR, DLPNO-MP2 response
   Willem Van den Heuvel  : Paramagnetic NMR
   Boris Wezisla          : Elementary symmetry handling
   Frank Wennmohs         : Technical directorship


 We gratefully acknowledge several colleagues who have allowed us to
 interface, adapt or use parts of their codes:
   Stefan Grimme, W. Hujo, H. Kruse, P. Pracht,  : VdW corrections, initial TS optimization,
                  C. Bannwarth, S. Ehlert          DFT functionals, gCP, sTDA/sTD-DF
   Ed Valeev, F. Pavosevic, A. Kumar             : LibInt (2-el integral package), F12 methods
   Garnet Chan, S. Sharma, J. Yang, R. Olivares  : DMRG
   Ulf Ekstrom                                   : XCFun DFT Library
   Mihaly Kallay                                 : mrcc  (arbitrary order and MRCC methods)
   Jiri Pittner, Ondrej Demel                    : Mk-CCSD
   Frank Weinhold                                : gennbo (NPA and NBO analysis)
   Christopher J. Cramer and Donald G. Truhlar   : smd solvation model
   Lars Goerigk                                  : TD-DFT with DH, B97 family of functionals
   V. Asgeirsson, H. Jonsson                     : NEB implementation
   FAccTs GmbH                                   : IRC, NEB, NEB-TS, DLPNO-Multilevel, CI-OPT
                                                   MM, QMMM, 2- and 3-layer-ONIOM, Crystal-QMMM,
                                                   LR-CPCM, SF, NACMEs, symmetry and pop. for TD-DFT,
                                                   nearIR, NL-DFT gradient (VV10), updates on ESD,
                                                   ML-optimized integration grids
   S Lehtola, MJT Oliveira, MAL Marques          : LibXC Library
   Liviu Ungur et al                             : ANISO software


 Your calculation uses the libint2 library for the computation of 2-el integrals
 For citations please refer to: http://libint.valeyev.net

 Your ORCA version has been built with support for libXC version: 5.1.0
 For citations please refer to: https://tddft.org/programs/libxc/

 This ORCA versions uses:
   CBLAS   interface :  Fast vector & matrix operations
   LAPACKE interface :  Fast linear algebra routines
   SCALAPACK package :  Parallel linear algebra routines
   Shared memory     :  Shared parallel matrices
   BLAS/LAPACK       :  OpenBLAS 0.3.15  USE64BITINT DYNAMIC_ARCH NO_AFFINITY Zen SINGLE_THREADED
        Core in use  :  Zen
   Copyright (c) 2011-2014, The OpenBLAS Project




***************************************
The coordinates will be read from file: opt.xyz
***************************************


================================================================================

----- Orbital basis set information -----
Your calculation utilizes the basis: EPR-II
   V. Barone, in Recent Advances in Density Functional Methods, Part 1 (ed. D. P. Chong), World Scientific, Singapore, 1995, p. 287.

----- AuxJ basis set information -----
Your calculation utilizes the AutoAux generation procedure.
  G. L. Stoychev, A. A. Auer, F. Neese, J. Chem. Theory Comput. 13, 554 (2017)

----- AuxC basis set information -----
Your calculation utilizes the AutoAux generation procedure.
  G. L. Stoychev, A. A. Auer, F. Neese, J. Chem. Theory Comput. 13, 554 (2017)

----- AuxJK basis set information -----
Your calculation utilizes the AutoAux generation procedure.
  G. L. Stoychev, A. A. Auer, F. Neese, J. Chem. Theory Comput. 13, 554 (2017)

================================================================================
                                        WARNINGS
                       Please study these warnings very carefully!
================================================================================


WARNING: your system is open-shell and RHF/RKS was chosen
  ===> : WILL SWITCH to UHF/UKS


INFO   : the flag for use of the SHARK integral package has been found!

================================================================================
                                       INPUT FILE
================================================================================
NAME = epr_info.inp
|  1> ! B3LYP EPR-II AUTOAUX
|  2> %pal nprocs 16 end
|  3> *XYZFile 0 2 opt.xyz
|  4> %EPRNMR
|  5>         GTENSOR   TRUE
|  6>         NUCLEI    = 1,4,9,10,11,12,13,14,15,16,17,18,19,20,22,23,24 {SHIFT, AISO, ADIP, AORB}
|  7>         ORI       GIAO
|  8> END
|  9> 
| 10>                          ****END OF INPUT****
================================================================================

                       ****************************
                       * Single Point Calculation *
                       ****************************

---------------------------------
CARTESIAN COORDINATES (ANGSTROEM)
---------------------------------
  N     -2.061554    0.694510    0.713634
  C     -1.348457   -0.266449    0.017317
  C     -2.018757   -1.578632    0.094575
  O     -3.107374   -1.699142    0.691081
  C     -0.055623    0.025537   -0.692095
  C      1.199870   -0.072670    0.215641
  C      2.493443    0.245074   -0.551831
  C      3.745564    0.174602    0.333207
  N      4.957184    0.461259   -0.458873
  H     -0.097612    1.034765   -1.107655
  H      0.052961   -0.663767   -1.538928
  H      1.263485   -1.079087    0.651885
  H      1.079423    0.631795    1.044896
  H      2.413630    1.253384   -0.981943
  H      2.622348   -0.448447   -1.392639
  H      3.843506   -0.840914    0.736940
  H      3.611258    0.851722    1.194334
  H      5.776761    0.399157    0.139872
  H      4.922886    1.425483   -0.781854
  H     -2.921880    0.300149    1.092508
  C     -1.774510    2.025500    0.960626
  N     -1.408227   -2.640135   -0.532963
  H     -0.462848   -2.521912   -0.859676
  O     -0.739289    2.579108    0.594153
  C     -2.858181    2.775914    1.726869
  H     -2.398445    3.264468    2.590040
  H     -3.258368    3.561672    1.078738
  H     -3.680383    2.140098    2.064759
  C     -1.934826   -3.994535   -0.423263
  H     -3.017955   -3.935714   -0.314739
  H     -1.690833   -4.557464   -1.328264
  H     -1.530930   -4.525251    0.448760

----------------------------
CARTESIAN COORDINATES (A.U.)
----------------------------
  NO LB      ZA    FRAG     MASS         X           Y           Z
   0 N     7.0000    0    14.007   -3.895772    1.312434    1.348572
   1 C     6.0000    0    12.011   -2.548214   -0.503515    0.032724
   2 C     6.0000    0    12.011   -3.814898   -2.983182    0.178720
   3 O     8.0000    0    15.999   -5.872085   -3.210913    1.305954
   4 C     6.0000    0    12.011   -0.105111    0.048258   -1.307871
   5 C     6.0000    0    12.011    2.267427   -0.137326    0.407503
   6 C     6.0000    0    12.011    4.711924    0.463123   -1.042809
   7 C     6.0000    0    12.011    7.078090    0.329949    0.629670
   8 N     7.0000    0    14.007    9.367720    0.871653   -0.867144
   9 H     1.0000    0     1.008   -0.184461    1.955423   -2.093165
  10 H     1.0000    0     1.008    0.100082   -1.254339   -2.908152
  11 H     1.0000    0     1.008    2.387640   -2.039180    1.231884
  12 H     1.0000    0     1.008    2.039814    1.193920    1.974567
  13 H     1.0000    0     1.008    4.561100    2.368553   -1.855604
  14 H     1.0000    0     1.008    4.955520   -0.847442   -2.631706
  15 H     1.0000    0     1.008    7.263174   -1.589097    1.392614
  16 H     1.0000    0     1.008    6.824288    1.609521    2.256964
  17 H     1.0000    0     1.008   10.916496    0.754297    0.264320
  18 H     1.0000    0     1.008    9.302906    2.693773   -1.477491
  19 H     1.0000    0     1.008   -5.521553    0.567200    2.064541
  20 C     6.0000    0    12.011   -3.353338    3.827641    1.815320
  21 N     7.0000    0    14.007   -2.661164   -4.989131   -1.007155
  22 H     1.0000    0     1.008   -0.874655   -4.765723   -1.624552
  23 O     8.0000    0    15.999   -1.397054    4.873808    1.122787
  24 C     6.0000    0    12.011   -5.401180    5.245717    3.263310
  25 H     1.0000    0     1.008   -4.532403    6.168951    4.894465
  26 H     1.0000    0     1.008   -6.157424    6.730584    2.038519
  27 H     1.0000    0     1.008   -6.954915    4.044200    3.901828
  28 C     6.0000    0    12.011   -3.656292   -7.548577   -0.799852
  29 H     1.0000    0     1.008   -5.703109   -7.437422   -0.594771
  30 H     1.0000    0     1.008   -3.195211   -8.612358   -2.510055
  31 H     1.0000    0     1.008   -2.893039   -8.551486    0.848033

--------------------------------
INTERNAL COORDINATES (ANGSTROEM)
--------------------------------
 N      0   0   0     0.000000000000     0.00000000     0.00000000
 C      1   0   0     1.384487871441     0.00000000     0.00000000
 C      2   1   0     1.475498730249   110.91264768     0.00000000
 O      3   2   1     1.247167954439   120.49806042     2.33336397
 C      2   1   3     1.503310317248   123.05712382   180.86460764
 C      5   2   1     1.552382976356   114.03502045    85.82024478
 C      6   5   2     1.537303912458   112.05726908   180.45980106
 C      7   6   5     1.534948158210   112.89647707   179.11934148
 N      8   7   6     1.475664586617   110.57100486   178.87655664
 H      5   2   1     1.092242673573   109.02295140   324.81407631
 H      5   2   1     1.097295059123   109.10353544   208.40733050
 H      6   5   2     1.098741169056   109.69023818    58.23248199
 H      6   5   2     1.094733722215   108.25480587   301.61607253
 H      7   6   5     1.099116013573   108.89731304    57.80337778
 H      7   6   5     1.097517999383   110.52924145   300.82063775
 H      8   7   6     1.097207683343   109.11563624    60.59941668
 H      8   7   6     1.103661667960   108.81091634   304.23388350
 H      9   8   7     1.016887161433   109.50222123   180.68590383
 H      9   8   7     1.017458428382   109.07494617    65.36213848
 H      1   2   3     1.019425380006   110.67658243   357.19560928
 C      1   2   3     1.383811294388   130.58121816   176.40110132
 N      3   2   1     1.375986361814   117.42660280   181.19779621
 H     22   3   2     1.007204156348   118.28476790    11.46286256
 O     21   1   2     1.229823284335   123.66866849   357.82005460
 C     21   1   2     1.524661509355   114.56119737   177.42460294
 H     25  21   1     1.093209349074   108.53399099   127.57648112
 H     25  21   1     1.094367127278   108.40057003   244.03653475
 H     25  21   1     1.092906891308   113.81292772     5.50382814
 C     22   3   2     1.457306061775   121.48733173   175.00584630
 H     29  22   3     1.090139928252   108.44378859    31.03940888
 H     29  22   3     1.093365638731   109.60639692   150.39358030
 H     29  22   3     1.097823268596   112.09475459   271.63486092

---------------------------
INTERNAL COORDINATES (A.U.)
---------------------------
 N      0   0   0     0.000000000000     0.00000000     0.00000000
 C      1   0   0     2.616302912759     0.00000000     0.00000000
 C      2   1   0     2.788288511118   110.91264768     0.00000000
 O      3   2   1     2.356805876892   120.49806042     2.33336397
 C      2   1   3     2.840844793896   123.05712382   180.86460764
 C      5   2   1     2.933578680275   114.03502045    85.82024478
 C      6   5   2     2.905083379150   112.05726908   180.45980106
 C      7   6   5     2.900631648784   112.89647707   179.11934148
 N      8   7   6     2.788601934232   110.57100486   178.87655664
 H      5   2   1     2.064039524835   109.02295140   324.81407631
 H      5   2   1     2.073587149848   109.10353544   208.40733050
 H      6   5   2     2.076319901581   109.69023818    58.23248199
 H      6   5   2     2.068746924555   108.25480587   301.61607253
 H      7   6   5     2.077028255061   108.89731304    57.80337778
 H      7   6   5     2.074008445883   110.52924145   300.82063775
 H      8   7   6     2.073422033553   109.11563624    60.59941668
 H      8   7   6     2.085618296952   108.81091634   304.23388350
 H      9   8   7     1.921638244208   109.50222123   180.68590383
 H      9   8   7     1.922717782292   109.07494617    65.36213848
 H      1   2   3     1.926434782180   110.67658243   357.19560928
 C      1   2   3     2.615024367420   130.58121816   176.40110132
 N      3   2   1     2.600237387840   117.42660280   181.19779621
 H     22   3   2     1.903340016445   118.28476790    11.46286256
 O     21   1   2     2.324029200513   123.66866849   357.82005460
 C     21   1   2     2.881192699611   114.56119737   177.42460294
 H     25  21   1     2.065866276793   108.53399099   127.57648112
 H     25  21   1     2.068054160521   108.40057003   244.03653475
 H     25  21   1     2.065294714448   113.81292772     5.50382814
 C     22   3   2     2.753909350059   121.48733173   175.00584630
 H     29  22   3     2.060065912049   108.44378859    31.03940888
 H     29  22   3     2.066161621442   109.60639692   150.39358030
 H     29  22   3     2.074585321092   112.09475459   271.63486092

---------------------
BASIS SET INFORMATION
---------------------
There are 4 groups of distinct atoms

 Group   1 Type N   : 10s5p1d contracted to 6s2p1d pattern {511111/41/1}
 Group   2 Type C   : 10s5p1d contracted to 6s2p1d pattern {511111/41/1}
 Group   3 Type O   : 10s5p1d contracted to 6s2p1d pattern {511111/41/1}
 Group   4 Type H   : 6s1p contracted to 4s1p pattern {3111/1}

Atom   0N    basis set group =>   1
Atom   1C    basis set group =>   2
Atom   2C    basis set group =>   2
Atom   3O    basis set group =>   3
Atom   4C    basis set group =>   2
Atom   5C    basis set group =>   2
Atom   6C    basis set group =>   2
Atom   7C    basis set group =>   2
Atom   8N    basis set group =>   1
Atom   9H    basis set group =>   4
Atom  10H    basis set group =>   4
Atom  11H    basis set group =>   4
Atom  12H    basis set group =>   4
Atom  13H    basis set group =>   4
Atom  14H    basis set group =>   4
Atom  15H    basis set group =>   4
Atom  16H    basis set group =>   4
Atom  17H    basis set group =>   4
Atom  18H    basis set group =>   4
Atom  19H    basis set group =>   4
Atom  20C    basis set group =>   2
Atom  21N    basis set group =>   1
Atom  22H    basis set group =>   4
Atom  23O    basis set group =>   3
Atom  24C    basis set group =>   2
Atom  25H    basis set group =>   4
Atom  26H    basis set group =>   4
Atom  27H    basis set group =>   4
Atom  28C    basis set group =>   2
Atom  29H    basis set group =>   4
Atom  30H    basis set group =>   4
Atom  31H    basis set group =>   4
---------------------------------
AUXILIARY/J BASIS SET INFORMATION
---------------------------------
There are 4 groups of distinct atoms

 Group   1 Type N   : 17s13p12d2f contracted to 17s13p12d2f pattern {11111111111111111/1111111111111/111111111111/11}
 Group   2 Type C   : 17s13p12d2f contracted to 17s13p12d2f pattern {11111111111111111/1111111111111/111111111111/11}
 Group   3 Type O   : 17s13p12d2f contracted to 17s13p12d2f pattern {11111111111111111/1111111111111/111111111111/11}
 Group   4 Type H   : 15s6p1d contracted to 15s6p1d pattern {111111111111111/111111/1}

Atom   0N    basis set group =>   1
Atom   1C    basis set group =>   2
Atom   2C    basis set group =>   2
Atom   3O    basis set group =>   3
Atom   4C    basis set group =>   2
Atom   5C    basis set group =>   2
Atom   6C    basis set group =>   2
Atom   7C    basis set group =>   2
Atom   8N    basis set group =>   1
Atom   9H    basis set group =>   4
Atom  10H    basis set group =>   4
Atom  11H    basis set group =>   4
Atom  12H    basis set group =>   4
Atom  13H    basis set group =>   4
Atom  14H    basis set group =>   4
Atom  15H    basis set group =>   4
Atom  16H    basis set group =>   4
Atom  17H    basis set group =>   4
Atom  18H    basis set group =>   4
Atom  19H    basis set group =>   4
Atom  20C    basis set group =>   2
Atom  21N    basis set group =>   1
Atom  22H    basis set group =>   4
Atom  23O    basis set group =>   3
Atom  24C    basis set group =>   2
Atom  25H    basis set group =>   4
Atom  26H    basis set group =>   4
Atom  27H    basis set group =>   4
Atom  28C    basis set group =>   2
Atom  29H    basis set group =>   4
Atom  30H    basis set group =>   4
Atom  31H    basis set group =>   4
---------------------------------
AUXILIARY/C BASIS SET INFORMATION
---------------------------------
There are 4 groups of distinct atoms

 Group   1 Type N   : 17s13p12d2f contracted to 17s13p12d2f pattern {11111111111111111/1111111111111/111111111111/11}
 Group   2 Type C   : 17s13p12d2f contracted to 17s13p12d2f pattern {11111111111111111/1111111111111/111111111111/11}
 Group   3 Type O   : 17s13p12d2f contracted to 17s13p12d2f pattern {11111111111111111/1111111111111/111111111111/11}
 Group   4 Type H   : 15s6p1d contracted to 15s6p1d pattern {111111111111111/111111/1}

Atom   0N    basis set group =>   1
Atom   1C    basis set group =>   2
Atom   2C    basis set group =>   2
Atom   3O    basis set group =>   3
Atom   4C    basis set group =>   2
Atom   5C    basis set group =>   2
Atom   6C    basis set group =>   2
Atom   7C    basis set group =>   2
Atom   8N    basis set group =>   1
Atom   9H    basis set group =>   4
Atom  10H    basis set group =>   4
Atom  11H    basis set group =>   4
Atom  12H    basis set group =>   4
Atom  13H    basis set group =>   4
Atom  14H    basis set group =>   4
Atom  15H    basis set group =>   4
Atom  16H    basis set group =>   4
Atom  17H    basis set group =>   4
Atom  18H    basis set group =>   4
Atom  19H    basis set group =>   4
Atom  20C    basis set group =>   2
Atom  21N    basis set group =>   1
Atom  22H    basis set group =>   4
Atom  23O    basis set group =>   3
Atom  24C    basis set group =>   2
Atom  25H    basis set group =>   4
Atom  26H    basis set group =>   4
Atom  27H    basis set group =>   4
Atom  28C    basis set group =>   2
Atom  29H    basis set group =>   4
Atom  30H    basis set group =>   4
Atom  31H    basis set group =>   4
----------------------------------
AUXILIARY/JK BASIS SET INFORMATION
----------------------------------
There are 4 groups of distinct atoms

 Group   1 Type N   : 17s13p12d2f contracted to 17s13p12d2f pattern {11111111111111111/1111111111111/111111111111/11}
 Group   2 Type C   : 17s13p12d2f contracted to 17s13p12d2f pattern {11111111111111111/1111111111111/111111111111/11}
 Group   3 Type O   : 17s13p12d2f contracted to 17s13p12d2f pattern {11111111111111111/1111111111111/111111111111/11}
 Group   4 Type H   : 15s6p1d contracted to 15s6p1d pattern {111111111111111/111111/1}

Atom   0N    basis set group =>   1
Atom   1C    basis set group =>   2
Atom   2C    basis set group =>   2
Atom   3O    basis set group =>   3
Atom   4C    basis set group =>   2
Atom   5C    basis set group =>   2
Atom   6C    basis set group =>   2
Atom   7C    basis set group =>   2
Atom   8N    basis set group =>   1
Atom   9H    basis set group =>   4
Atom  10H    basis set group =>   4
Atom  11H    basis set group =>   4
Atom  12H    basis set group =>   4
Atom  13H    basis set group =>   4
Atom  14H    basis set group =>   4
Atom  15H    basis set group =>   4
Atom  16H    basis set group =>   4
Atom  17H    basis set group =>   4
Atom  18H    basis set group =>   4
Atom  19H    basis set group =>   4
Atom  20C    basis set group =>   2
Atom  21N    basis set group =>   1
Atom  22H    basis set group =>   4
Atom  23O    basis set group =>   3
Atom  24C    basis set group =>   2
Atom  25H    basis set group =>   4
Atom  26H    basis set group =>   4
Atom  27H    basis set group =>   4
Atom  28C    basis set group =>   2
Atom  29H    basis set group =>   4
Atom  30H    basis set group =>   4
Atom  31H    basis set group =>   4


           ************************************************************
           *        Program running with 16 parallel MPI-processes    *
           *              working on a common directory               *
           ************************************************************
------------------------------------------------------------------------------
                           ORCA GTO INTEGRAL CALCULATION
                           -- RI-GTO INTEGRALS CHOSEN --
------------------------------------------------------------------------------
------------------------------------------------------------------------------
                   ___                                                        
                  /   \      - P O W E R E D   B Y -                         
                 /     \                                                     
                 |  |  |   _    _      __       _____    __    __             
                 |  |  |  | |  | |    /  \     |  _  \  |  |  /  |          
                  \  \/   | |  | |   /    \    | | | |  |  | /  /          
                 / \  \   | |__| |  /  /\  \   | |_| |  |  |/  /          
                |  |  |   |  __  | /  /__\  \  |    /   |      \           
                |  |  |   | |  | | |   __   |  |    \   |  |\   \          
                \     /   | |  | | |  |  |  |  | |\  \  |  | \   \       
                 \___/    |_|  |_| |__|  |__|  |_| \__\ |__|  \__/        
                                                                              
                      - O R C A' S   B I G   F R I E N D -                    
                                      &                                       
                       - I N T E G R A L  F E E D E R -                       
                                                                              
 v1 FN, 2020, v2 2021                                                         
------------------------------------------------------------------------------


Reading SHARK input file epr_info.SHARKINP.tmp ... ok
----------------------
SHARK INTEGRAL PACKAGE
----------------------

Number of atoms                             ...     32
Number of basis functions                   ...    364
Number of shells                            ...    216
Maximum angular momentum                    ...      2
Integral batch strategy                     ... SHARK/LIBINT Hybrid
RI-J (if used) integral strategy            ... SPLIT-RIJ (Revised 2003 algorithm where possible)
Printlevel                                  ...      1
Contraction scheme used                     ... SEGMENTED contraction
Coulomb Range Separation                    ... NOT USED
Exchange Range Separation                   ... NOT USED
Finite Nucleus Model                        ... NOT USED
Auxiliary Coulomb fitting basis             ... AVAILABLE
   # of basis functions in Aux-J            ...   2504
   # of shells in Aux-J                     ...   1012
   Maximum angular momentum in Aux-J        ...      3
Auxiliary J/K fitting basis                 ... AVAILABLE
   # of basis functions in Aux-JK           ...   2504
   # of shells in Aux-JK                    ...   1012
   Maximum angular momentum in Aux-JK       ...      3
Auxiliary Correlation fitting basis         ... AVAILABLE
   # of basis functions in Aux-C            ...   2504
   # of shells in Aux-C                     ...   1012
   Maximum angular momentum in Aux-C        ...      3
Auxiliary 'external' fitting basis          ... NOT available
Integral threshold                          ...     1.000000e-10
Primitive cut-off                           ...     1.000000e-11
Primitive pair pre-selection threshold      ...     1.000000e-11

Calculating pre-screening integrals         ... done (  0.0 sec) Dimension = 216
Organizing shell pair data                  ... done (  0.0 sec)
Shell pair information
Total number of shell pairs                 ...     23436
Shell pairs after pre-screening             ...     14778
Total number of primitive shell pairs       ...     61703
Primitive shell pairs kept                  ...     28231
          la=0 lb=0:   6941 shell pairs
          la=1 lb=0:   5045 shell pairs
          la=1 lb=1:    866 shell pairs
          la=2 lb=0:   1358 shell pairs
          la=2 lb=1:    489 shell pairs
          la=2 lb=2:     79 shell pairs

Calculating one electron integrals          ... done (  0.0 sec)
Calculating RI/J V-Matrix + Cholesky decomp.... done (  0.3 sec)
Calculating RI/JK V-Matrix + Cholesky decomp... done (  0.3 sec)
Calculating RI/C V-Matrix + Cholesky decomp.... done (  0.3 sec)
Calculating Nuclear repulsion               ... done (  0.0 sec) ENN=    910.639943920491 Eh

SHARK setup successfully completed in   1.1 seconds

Maximum memory used throughout the entire GTOINT-calculation: 27.8 MB


           ************************************************************
           *        Program running with 16 parallel MPI-processes    *
           *              working on a common directory               *
           ************************************************************
-------------------------------------------------------------------------------
                                 ORCA SCF
-------------------------------------------------------------------------------

------------
SCF SETTINGS
------------
Hamiltonian:
 Density Functional     Method          .... DFT(GTOs)
 Exchange Functional    Exchange        .... B88
   X-Alpha parameter    XAlpha          ....  0.666667
   Becke's b parameter  XBeta           ....  0.004200
 Correlation Functional Correlation     .... LYP
 LDA part of GGA corr.  LDAOpt          .... VWN-5
 Gradients option       PostSCFGGA      .... off
 Hybrid DFT is turned on
   Fraction HF Exchange ScalHFX         ....  0.200000
   Scaling of DF-GGA-X  ScalDFX         ....  0.720000
   Scaling of DF-GGA-C  ScalDFC         ....  0.810000
   Scaling of DF-LDA-C  ScalLDAC        ....  1.000000
   Perturbative correction              ....  0.000000
   Density functional embedding theory  .... OFF
   NL short-range parameter             ....  4.800000
 RI-approximation to the Coulomb term is turned on
   Number of AuxJ basis functions       .... 2504
   RIJ-COSX (HFX calculated with COS-X)).... on


General Settings:
 Integral files         IntName         .... epr_info
 Hartree-Fock type      HFTyp           .... UHF
 Total Charge           Charge          ....    0
 Multiplicity           Mult            ....    2
 Number of Electrons    NEL             ....  109
 Basis Dimension        Dim             ....  364
 Nuclear Repulsion      ENuc            ....    910.6399439205 Eh

Convergence Acceleration:
 DIIS                   CNVDIIS         .... on
   Start iteration      DIISMaxIt       ....    12
   Startup error        DIISStart       ....  0.200000
   # of expansion vecs  DIISMaxEq       ....     5
   Bias factor          DIISBfac        ....   1.050
   Max. coefficient     DIISMaxC        ....  10.000
 Trust-Rad. Augm. Hess. CNVTRAH         .... auto
   Auto Start mean grad. ratio tolernc. ....  1.125000
   Auto Start start iteration           ....    20
   Auto Start num. interpolation iter.  ....    10
   Max. Number of Micro iterations      ....    16
   Max. Number of Macro iterations      .... Maxiter - #DIIS iter
   Number of Davidson start vectors     ....     2
   Converg. threshold I  (grad. norm)   ....   5.000e-05
   Converg. threshold II (energy diff.) ....   1.000e-06
   Grad. Scal. Fac. for Micro threshold ....   0.100
   Minimum threshold for Micro iter.    ....   0.010
   NR start threshold (gradient norm)   ....   0.001
   Initial trust radius                 ....   0.400
   Minimum AH scaling param. (alpha)    ....   1.000
   Maximum AH scaling param. (alpha)    .... 1000.000
   Orbital update algorithm             .... Taylor
   White noise on init. David. guess    .... on
   Maximum white noise                  ....   0.010
   Quad. conv. algorithm                .... NR
 SOSCF                  CNVSOSCF        .... off
 Level Shifting         CNVShift        .... on
   Level shift para.    LevelShift      ....    0.2500
   Turn off err/grad.   ShiftErr        ....    0.0010
 Zerner damping         CNVZerner       .... off
 Static damping         CNVDamp         .... on
   Fraction old density DampFac         ....    0.7000
   Max. Damping (<1)    DampMax         ....    0.9800
   Min. Damping (>=0)   DampMin         ....    0.0000
   Turn off err/grad.   DampErr         ....    0.1000
 Fernandez-Rico         CNVRico         .... off

SCF Procedure:
 Maximum # iterations   MaxIter         ....   125
 SCF integral mode      SCFMode         .... Direct
   Integral package                     .... SHARK and LIBINT hybrid scheme
 Reset frequency        DirectResetFreq ....    20
 Integral Threshold     Thresh          ....  1.000e-10 Eh
 Primitive CutOff       TCut            ....  1.000e-11 Eh

Convergence Tolerance:
 Convergence Check Mode ConvCheckMode   .... Total+1el-Energy
 Convergence forced     ConvForced      .... 0
 Energy Change          TolE            ....  1.000e-06 Eh
 1-El. energy change                    ....  1.000e-03 Eh
 DIIS Error             TolErr          ....  1.000e-06


Diagonalization of the overlap matrix:
Smallest eigenvalue                        ... 5.906e-04
Time for diagonalization                   ...    0.014 sec
Threshold for overlap eigenvalues          ... 1.000e-08
Number of eigenvalues below threshold      ... 0
Time for construction of square roots      ...    0.010 sec
Total time needed                          ...    0.025 sec

Time for model grid setup =    0.108 sec

------------------------------
INITIAL GUESS: MODEL POTENTIAL
------------------------------
Loading Hartree-Fock densities                     ... done
Calculating cut-offs                               ... done
Initializing the effective Hamiltonian             ... done
Setting up the integral package (SHARK)            ... done
Starting the Coulomb interaction                   ... done (   0.0 sec)
Reading the grid                                   ... done
Mapping shells                                     ... done
Starting the XC term evaluation                    ... done (   0.0 sec)
  promolecular density results
     # of electrons  =    108.997821517
     EX              =    -87.734457812
     EC              =     -3.660047000
     EX+EC           =    -91.394504813
Transforming the Hamiltonian                       ... done (   0.0 sec)
Diagonalizing the Hamiltonian                      ... done (   0.0 sec)
Back transforming the eigenvectors                 ... done (   0.0 sec)
Now organizing SCF variables                       ... done
                      ------------------
                      INITIAL GUESS DONE (   0.3 sec)
                      ------------------
-------------------
DFT GRID GENERATION
-------------------

General Integration Accuracy     IntAcc      ... 4.388
Radial Grid Type                 RadialGrid  ... OptM3 with GC (2021)
Angular Grid (max. ang.)         AngularGrid ... 4 (Lebedev-302)
Angular grid pruning method      GridPruning ... 4 (adaptive)
Weight generation scheme         WeightScheme... Becke
Basis function cutoff            BFCut       ... 1.0000e-10
Integration weight cutoff        WCut        ... 1.0000e-14
Angular grids for H and He will be reduced by one unit
Partially contracted basis set               ... off
Rotationally invariant grid construction     ... off

Total number of grid points                  ...   141699
Total number of batches                      ...     2224
Average number of points per batch           ...       63
Average number of grid points per atom       ...     4428
Time for grid setup =    0.579 sec

--------------------
COSX GRID GENERATION
--------------------

GRIDX 1
-------
General Integration Accuracy     IntAcc      ... 3.816
Radial Grid Type                 RadialGrid  ... OptM3 with GC (2021)
Angular Grid (max. ang.)         AngularGrid ... 1 (Lebedev-50)
Angular grid pruning method      GridPruning ... 4 (adaptive)
Weight generation scheme         WeightScheme... Becke
Basis function cutoff            BFCut       ... 1.0000e-10
Integration weight cutoff        WCut        ... 1.0000e-14
Angular grids for H and He will be reduced by one unit
Partially contracted basis set               ... on
Rotationally invariant grid construction     ... off

Total number of grid points                  ...    18099
Total number of batches                      ...      302
Average number of points per batch           ...       59
Average number of grid points per atom       ...      566
UseSFitting                                  ... on

GRIDX 2
-------
General Integration Accuracy     IntAcc      ... 4.020
Radial Grid Type                 RadialGrid  ... OptM3 with GC (2021)
Angular Grid (max. ang.)         AngularGrid ... 2 (Lebedev-110)
Angular grid pruning method      GridPruning ... 4 (adaptive)
Weight generation scheme         WeightScheme... Becke
Basis function cutoff            BFCut       ... 1.0000e-10
Integration weight cutoff        WCut        ... 1.0000e-14
Angular grids for H and He will be reduced by one unit
Partially contracted basis set               ... on
Rotationally invariant grid construction     ... off

Total number of grid points                  ...    38388
Total number of batches                      ...      616
Average number of points per batch           ...       62
Average number of grid points per atom       ...     1200
UseSFitting                                  ... on

GRIDX 3
-------
General Integration Accuracy     IntAcc      ... 4.338
Radial Grid Type                 RadialGrid  ... OptM3 with GC (2021)
Angular Grid (max. ang.)         AngularGrid ... 3 (Lebedev-194)
Angular grid pruning method      GridPruning ... 4 (adaptive)
Weight generation scheme         WeightScheme... Becke
Basis function cutoff            BFCut       ... 1.0000e-10
Integration weight cutoff        WCut        ... 1.0000e-14
Angular grids for H and He will be reduced by one unit
Partially contracted basis set               ... on
Rotationally invariant grid construction     ... off

Total number of grid points                  ...    83740
Total number of batches                      ...     1325
Average number of points per batch           ...       63
Average number of grid points per atom       ...     2617
UseSFitting                                  ... on

Time for X-Grid setup             =    0.744 sec

--------------
SCF ITERATIONS
--------------
ITER       Energy         Delta-E        Max-DP      RMS-DP      [F,P]     Damp
               ***  Starting incremental Fock matrix formation  ***
  0   -667.7086826810   0.000000000000 0.06390002  0.00095082  0.1291309 0.7000
  1   -667.9662663723  -0.257583691287 0.03647809  0.00063789  0.0535929 0.7000
                               ***Turning on DIIS***
  2   -668.0567537958  -0.090487423563 0.04291822  0.00096380  0.0167649 0.0000
  3   -668.2088912886  -0.152137492735 0.02525798  0.00045559  0.0317936 0.0000
  4   -668.2407335753  -0.031842286738 0.00984301  0.00015948  0.0082766 0.0000
  5   -668.2430594538  -0.002325878512 0.00442730  0.00005616  0.0049670 0.0000
  6   -668.2434281512  -0.000368697403 0.00170329  0.00002309  0.0011839 0.0000
  7   -668.2434747339  -0.000046582655 0.00259545  0.00002150  0.0005481 0.0000
               *** Restarting incremental Fock matrix formation ***
                                   *** Resetting DIIS ***
  8   -668.2434108106   0.000063923320 0.00079698  0.00001094  0.0002727 0.0000
  9   -668.2434140756  -0.000003265056 0.00047263  0.00000422  0.0002724 0.0000
 10   -668.2434161379  -0.000002062313 0.00032330  0.00000319  0.0001567 0.0000
                 **** Energy Check signals convergence ****

               *****************************************************
               *                     SUCCESS                       *
               *           SCF CONVERGED AFTER  11 CYCLES          *
               *****************************************************

Old exchange energy                            =    -17.857419840 Eh
New exchange energy                            =    -17.857413525 Eh
Exchange energy change after final integration =      0.000006315 Eh
Total energy after final integration           =   -668.243410433 Eh
Final COS-X integration done in                =     2.033 sec

----------------
TOTAL SCF ENERGY
----------------

Total Energy       :         -668.24341043 Eh          -18183.82765 eV

Components:
Nuclear Repulsion  :          910.63994392 Eh           24779.77265 eV
Electronic Energy  :        -1578.88335435 Eh          -42963.60030 eV
One Electron Energy:        -2715.16395648 Eh          -73883.36741 eV
Two Electron Energy:         1136.28060212 Eh           30919.76711 eV
Max COSX asymmetry :            0.00000085 Eh               0.00002 eV

Virial components:
Potential Energy   :        -1331.87115397 Eh          -36242.05661 eV
Kinetic Energy     :          663.62774353 Eh           18058.22896 eV
Virial Ratio       :            2.00695520


DFT components:
N(Alpha)           :       55.000169618285 electrons
N(Beta)            :       54.000166609582 electrons
N(Total)           :      109.000336227867 electrons
E(X)               :      -70.940970680969 Eh       
E(C)               :       -4.317693846943 Eh       
E(XC)              :      -75.258664527912 Eh       
DFET-embed. en.    :        0.000000000000 Eh       

---------------
SCF CONVERGENCE
---------------

  Last Energy change         ...   -6.1071e-07  Tolerance :   1.0000e-06
  Last MAX-Density change    ...    0.0000e+00  Tolerance :   1.0000e-05
  Last RMS-Density change    ...    0.0000e+00  Tolerance :   1.0000e-06
  Last DIIS Error            ...    1.4712e-04  Tolerance :   1.0000e-06

             **** THE GBW FILE WAS UPDATED (epr_info.gbw) ****
             **** DENSITY epr_info.scfp WAS UPDATED ****
             **** ENERGY FILE WAS UPDATED (epr_info.en.tmp) ****
----------------------
UHF SPIN CONTAMINATION
----------------------

Warning: in a DFT calculation there is little theoretical justification to 
         calculate <S**2> as in Hartree-Fock theory. We will do it anyways
         but you should keep in mind that the values have only limited relevance

Expectation value of <S**2>     :     0.755111
Ideal value S*(S+1) for S=0.5   :     0.750000
Deviation                       :     0.005111

             **** THE GBW FILE WAS UPDATED (epr_info.gbw) ****
             **** DENSITY epr_info.scfp WAS UPDATED ****
----------------
ORBITAL ENERGIES
----------------
                 SPIN UP ORBITALS
  NO   OCC          E(Eh)            E(eV) 
   0   1.0000     -19.118267      -520.2345 
   1   1.0000     -19.108170      -519.9597 
   2   1.0000     -14.381049      -391.3282 
   3   1.0000     -14.361184      -390.7877 
   4   1.0000     -14.306558      -389.3012 
   5   1.0000     -10.302710      -280.3510 
   6   1.0000     -10.292780      -280.0808 
   7   1.0000     -10.247186      -278.8401 
   8   1.0000     -10.217102      -278.0215 
   9   1.0000     -10.204807      -277.6869 
  10   1.0000     -10.198282      -277.5093 
  11   1.0000     -10.194635      -277.4101 
  12   1.0000     -10.186742      -277.1953 
  13   1.0000     -10.179121      -276.9880 
  14   1.0000      -1.043513       -28.3954 
  15   1.0000      -1.029475       -28.0134 
  16   1.0000      -0.943744       -25.6806 
  17   1.0000      -0.920006       -25.0346 
  18   1.0000      -0.874183       -23.7877 
  19   1.0000      -0.805333       -21.9142 
  20   1.0000      -0.764555       -20.8046 
  21   1.0000      -0.732585       -19.9347 
  22   1.0000      -0.708577       -19.2813 
  23   1.0000      -0.674140       -18.3443 
  24   1.0000      -0.627535       -17.0761 
  25   1.0000      -0.595631       -16.2080 
  26   1.0000      -0.581903       -15.8344 
  27   1.0000      -0.561039       -15.2666 
  28   1.0000      -0.549824       -14.9615 
  29   1.0000      -0.485894       -13.2219 
  30   1.0000      -0.481780       -13.1099 
  31   1.0000      -0.470719       -12.8089 
  32   1.0000      -0.463217       -12.6048 
  33   1.0000      -0.456769       -12.4293 
  34   1.0000      -0.452003       -12.2996 
  35   1.0000      -0.448797       -12.2124 
  36   1.0000      -0.442365       -12.0374 
  37   1.0000      -0.421927       -11.4812 
  38   1.0000      -0.413072       -11.2403 
  39   1.0000      -0.405693       -11.0395 
  40   1.0000      -0.404441       -11.0054 
  41   1.0000      -0.399655       -10.8752 
  42   1.0000      -0.391359       -10.6494 
  43   1.0000      -0.378506       -10.2997 
  44   1.0000      -0.375376       -10.2145 
  45   1.0000      -0.357514        -9.7285 
  46   1.0000      -0.341829        -9.3016 
  47   1.0000      -0.337446        -9.1824 
  48   1.0000      -0.327785        -8.9195 
  49   1.0000      -0.314180        -8.5493 
  50   1.0000      -0.269417        -7.3312 
  51   1.0000      -0.261541        -7.1169 
  52   1.0000      -0.260151        -7.0791 
  53   1.0000      -0.236483        -6.4350 
  54   1.0000      -0.177291        -4.8243 
  55   0.0000       0.010201         0.2776 
  56   0.0000       0.010847         0.2952 
  57   0.0000       0.022875         0.6225 
  58   0.0000       0.027942         0.7603 
  59   0.0000       0.031989         0.8705 
  60   0.0000       0.043713         1.1895 
  61   0.0000       0.055519         1.5108 
  62   0.0000       0.066900         1.8204 
  63   0.0000       0.070083         1.9071 
  64   0.0000       0.076924         2.0932 
  65   0.0000       0.089328         2.4307 
  66   0.0000       0.107739         2.9317 
  67   0.0000       0.119623         3.2551 
  68   0.0000       0.133486         3.6323 
  69   0.0000       0.145476         3.9586 
  70   0.0000       0.154366         4.2005 
  71   0.0000       0.164928         4.4879 
  72   0.0000       0.171932         4.6785 
  73   0.0000       0.177426         4.8280 
  74   0.0000       0.181739         4.9454 
  75   0.0000       0.187649         5.1062 
  76   0.0000       0.194144         5.2829 
  77   0.0000       0.196376         5.3437 
  78   0.0000       0.199141         5.4189 
  79   0.0000       0.209635         5.7044 
  80   0.0000       0.212824         5.7912 
  81   0.0000       0.217947         5.9306 
  82   0.0000       0.224520         6.1095 
  83   0.0000       0.228627         6.2213 
  84   0.0000       0.236358         6.4316 
  85   0.0000       0.242492         6.5985 
  86   0.0000       0.244278         6.6471 
  87   0.0000       0.248851         6.7716 
  88   0.0000       0.254830         6.9343 
  89   0.0000       0.261432         7.1139 
  90   0.0000       0.262532         7.1439 
  91   0.0000       0.274429         7.4676 
  92   0.0000       0.277859         7.5609 
  93   0.0000       0.286891         7.8067 
  94   0.0000       0.289336         7.8732 
  95   0.0000       0.294249         8.0069 
  96   0.0000       0.297529         8.0962 
  97   0.0000       0.298812         8.1311 
  98   0.0000       0.304777         8.2934 
  99   0.0000       0.315716         8.5911 
 100   0.0000       0.316814         8.6209 
 101   0.0000       0.329424         8.9641 
 102   0.0000       0.339120         9.2279 
 103   0.0000       0.350975         9.5505 
 104   0.0000       0.356824         9.7097 
 105   0.0000       0.372362        10.1325 
 106   0.0000       0.378116        10.2891 
 107   0.0000       0.387018        10.5313 
 108   0.0000       0.399083        10.8596 
 109   0.0000       0.408035        11.1032 
 110   0.0000       0.416129        11.3234 
 111   0.0000       0.421543        11.4708 
 112   0.0000       0.425945        11.5906 
 113   0.0000       0.442020        12.0280 
 114   0.0000       0.457708        12.4549 
 115   0.0000       0.461198        12.5498 
 116   0.0000       0.470142        12.7932 
 117   0.0000       0.487401        13.2629 
 118   0.0000       0.495223        13.4757 
 119   0.0000       0.510597        13.8941 
 120   0.0000       0.523276        14.2391 
 121   0.0000       0.528816        14.3898 
 122   0.0000       0.544636        14.8203 
 123   0.0000       0.549581        14.9549 
 124   0.0000       0.562248        15.2995 
 125   0.0000       0.584374        15.9016 
 126   0.0000       0.595834        16.2135 
 127   0.0000       0.619906        16.8685 
 128   0.0000       0.625826        17.0296 
 129   0.0000       0.633333        17.2339 
 130   0.0000       0.649892        17.6844 
 131   0.0000       0.660190        17.9647 
 132   0.0000       0.674715        18.3599 
 133   0.0000       0.688352        18.7310 
 134   0.0000       0.722239        19.6531 
 135   0.0000       0.742521        20.2050 
 136   0.0000       0.756145        20.5757 
 137   0.0000       0.769471        20.9384 
 138   0.0000       0.778851        21.1936 
 139   0.0000       0.792221        21.5574 
 140   0.0000       0.809876        22.0378 
 141   0.0000       0.814153        22.1542 
 142   0.0000       0.819889        22.3103 
 143   0.0000       0.833543        22.6818 
 144   0.0000       0.841728        22.9046 
 145   0.0000       0.848306        23.0836 
 146   0.0000       0.851210        23.1626 
 147   0.0000       0.860491        23.4151 
 148   0.0000       0.871930        23.7264 
 149   0.0000       0.884615        24.0716 
 150   0.0000       0.887531        24.1509 
 151   0.0000       0.895574        24.3698 
 152   0.0000       0.901759        24.5381 
 153   0.0000       0.919565        25.0226 
 154   0.0000       0.921376        25.0719 
 155   0.0000       0.926711        25.2171 
 156   0.0000       0.928404        25.2631 
 157   0.0000       0.933721        25.4078 
 158   0.0000       0.939412        25.5627 
 159   0.0000       0.948421        25.8078 
 160   0.0000       0.959589        26.1118 
 161   0.0000       0.963528        26.2189 
 162   0.0000       0.974105        26.5068 
 163   0.0000       0.982687        26.7403 
 164   0.0000       0.989656        26.9299 
 165   0.0000       1.001391        27.2492 
 166   0.0000       1.011829        27.5333 
 167   0.0000       1.019423        27.7399 
 168   0.0000       1.037105        28.2211 
 169   0.0000       1.056560        28.7505 
 170   0.0000       1.064321        28.9616 
 171   0.0000       1.073065        29.1996 
 172   0.0000       1.084727        29.5169 
 173   0.0000       1.102553        30.0020 
 174   0.0000       1.118243        30.4289 
 175   0.0000       1.138643        30.9841 
 176   0.0000       1.160916        31.5901 
 177   0.0000       1.175303        31.9816 
 178   0.0000       1.181996        32.1637 
 179   0.0000       1.193964        32.4894 
 180   0.0000       1.198758        32.6199 
 181   0.0000       1.211599        32.9693 
 182   0.0000       1.216420        33.1005 
 183   0.0000       1.243973        33.8502 
 184   0.0000       1.266684        34.4682 
 185   0.0000       1.275546        34.7094 
 186   0.0000       1.313385        35.7390 
 187   0.0000       1.327944        36.1352 
 188   0.0000       1.335825        36.3496 
 189   0.0000       1.355990        36.8984 
 190   0.0000       1.376279        37.4505 
 191   0.0000       1.378107        37.5002 
 192   0.0000       1.392647        37.8959 
 193   0.0000       1.407095        38.2890 
 194   0.0000       1.421441        38.6794 
 195   0.0000       1.432929        38.9920 
 196   0.0000       1.462024        39.7837 
 197   0.0000       1.470880        40.0247 
 198   0.0000       1.487213        40.4691 
 199   0.0000       1.490960        40.5711 
 200   0.0000       1.495690        40.6998 
 201   0.0000       1.517232        41.2860 
 202   0.0000       1.526072        41.5265 
 203   0.0000       1.534452        41.7546 
 204   0.0000       1.549998        42.1776 
 205   0.0000       1.555850        42.3368 
 206   0.0000       1.564741        42.5788 
 207   0.0000       1.577772        42.9334 
 208   0.0000       1.585804        43.1519 
 209   0.0000       1.592346        43.3299 
 210   0.0000       1.607644        43.7462 
 211   0.0000       1.620189        44.0876 
 212   0.0000       1.635999        44.5178 
 213   0.0000       1.645349        44.7722 
 214   0.0000       1.646348        44.7994 
 215   0.0000       1.662125        45.2287 
 216   0.0000       1.666813        45.3563 
 217   0.0000       1.681254        45.7492 
 218   0.0000       1.686327        45.8873 
 219   0.0000       1.699275        46.2396 
 220   0.0000       1.707801        46.4716 
 221   0.0000       1.717252        46.7288 
 222   0.0000       1.730717        47.0952 
 223   0.0000       1.733656        47.1752 
 224   0.0000       1.745474        47.4968 
 225   0.0000       1.753523        47.7158 
 226   0.0000       1.766078        48.0574 
 227   0.0000       1.775493        48.3136 
 228   0.0000       1.793495        48.8035 
 229   0.0000       1.807882        49.1950 
 230   0.0000       1.824564        49.6489 
 231   0.0000       1.828245        49.7491 
 232   0.0000       1.841379        50.1065 
 233   0.0000       1.863618        50.7116 
 234   0.0000       1.877195        51.0811 
 235   0.0000       1.889699        51.4213 
 236   0.0000       1.895459        51.5781 
 237   0.0000       1.929447        52.5029 
 238   0.0000       1.947066        52.9824 
 239   0.0000       1.985384        54.0250 
 240   0.0000       1.990723        54.1703 
 241   0.0000       2.005051        54.5602 
 242   0.0000       2.038949        55.4826 
 243   0.0000       2.046536        55.6891 
 244   0.0000       2.050025        55.7840 
 245   0.0000       2.055353        55.9290 
 246   0.0000       2.070754        56.3481 
 247   0.0000       2.095349        57.0174 
 248   0.0000       2.101210        57.1768 
 249   0.0000       2.149202        58.4828 
 250   0.0000       2.173968        59.1567 
 251   0.0000       2.177391        59.2498 
 252   0.0000       2.202523        59.9337 
 253   0.0000       2.228697        60.6459 
 254   0.0000       2.245263        61.0967 
 255   0.0000       2.249895        61.2227 
 256   0.0000       2.275866        61.9295 
 257   0.0000       2.279136        62.0184 
 258   0.0000       2.285662        62.1960 
 259   0.0000       2.301741        62.6336 
 260   0.0000       2.325214        63.2723 
 261   0.0000       2.333148        63.4882 
 262   0.0000       2.360354        64.2285 
 263   0.0000       2.365205        64.3605 
 264   0.0000       2.380130        64.7666 
 265   0.0000       2.390277        65.0427 
 266   0.0000       2.390622        65.0521 
 267   0.0000       2.402816        65.3840 
 268   0.0000       2.429243        66.1031 
 269   0.0000       2.441644        66.4405 
 270   0.0000       2.456999        66.8583 
 271   0.0000       2.468508        67.1715 
 272   0.0000       2.481245        67.5181 
 273   0.0000       2.485165        67.6248 
 274   0.0000       2.493983        67.8647 
 275   0.0000       2.503757        68.1307 
 276   0.0000       2.516511        68.4778 
 277   0.0000       2.557963        69.6057 
 278   0.0000       2.568393        69.8895 
 279   0.0000       2.593311        70.5676 
 280   0.0000       2.617333        71.2213 
 281   0.0000       2.636068        71.7311 
 282   0.0000       2.667338        72.5820 
 283   0.0000       2.695308        73.3431 
 284   0.0000       2.722417        74.0807 
 285   0.0000       2.729079        74.2620 
 286   0.0000       2.733464        74.3813 
 287   0.0000       2.745499        74.7088 
 288   0.0000       2.757564        75.0371 
 289   0.0000       2.821904        76.7879 
 290   0.0000       2.883379        78.4607 
 291   0.0000       2.902919        78.9925 
 292   0.0000       3.014213        82.0209 
 293   0.0000       3.061789        83.3155 
 294   0.0000       3.077654        83.7472 
 295   0.0000       3.093435        84.1766 
 296   0.0000       3.359939        91.4286 
 297   0.0000       3.418589        93.0245 
 298   0.0000       3.438185        93.5578 
 299   0.0000       3.452544        93.9485 
 300   0.0000       4.927164       134.0750 
 301   0.0000       4.951371       134.7337 
 302   0.0000       4.981800       135.5617 
 303   0.0000       4.989582       135.7734 
 304   0.0000       5.009952       136.3277 
 305   0.0000       5.015404       136.4761 
 306   0.0000       5.030638       136.8906 
 307   0.0000       5.035922       137.0344 
 308   0.0000       5.049928       137.4155 
 309   0.0000       5.097384       138.7069 
 310   0.0000       5.119515       139.3091 
 311   0.0000       5.148618       140.1010 
 312   0.0000       5.168259       140.6355 
 313   0.0000       5.229713       142.3077 
 314   0.0000       5.246810       142.7729 
 315   0.0000       5.272303       143.4667 
 316   0.0000       5.289711       143.9404 
 317   0.0000       5.311743       144.5399 
 318   0.0000       5.348129       145.5300 
 319   0.0000       5.359869       145.8494 
 320   0.0000       5.390665       146.6875 
 321   0.0000       5.521556       150.2492 
 322   0.0000       5.603022       152.4660 
 323   0.0000       5.656981       153.9343 
 324   0.0000       5.700290       155.1128 
 325   0.0000       5.751618       156.5095 
 326   0.0000       5.872243       159.7919 
 327   0.0000       7.209272       196.1743 
 328   0.0000       7.307358       198.8433 
 329   0.0000       7.345979       199.8943 
 330   0.0000       9.068679       246.7713 
 331   0.0000       9.125125       248.3073 
 332   0.0000      29.574279       804.7570 
 333   0.0000      29.623625       806.0998 
 334   0.0000      29.801714       810.9459 
 335   0.0000      29.882232       813.1369 
 336   0.0000      29.963403       815.3456 
 337   0.0000      30.054495       817.8244 
 338   0.0000      30.082486       818.5861 
 339   0.0000      30.137751       820.0899 
 340   0.0000      30.282326       824.0240 
 341   0.0000      36.544083       994.4150 
 342   0.0000      36.601968       995.9902 
 343   0.0000      36.611557       996.2511 
 344   0.0000      36.625128       996.6204 
 345   0.0000      36.632272       996.8148 
 346   0.0000      36.646102       997.1911 
 347   0.0000      36.658076       997.5169 
 348   0.0000      36.668580       997.8028 
 349   0.0000      36.708540       998.8901 
 350   0.0000      36.712675       999.0027 
 351   0.0000      36.726659       999.3832 
 352   0.0000      36.760485      1000.3037 
 353   0.0000      36.835437      1002.3432 
 354   0.0000      36.872882      1003.3621 
 355   0.0000      36.888700      1003.7926 
 356   0.0000      36.906530      1004.2778 
 357   0.0000      36.919249      1004.6238 
 358   0.0000      36.953236      1005.5487 
 359   0.0000      41.153908      1119.8548 
 360   0.0000      41.256347      1122.6423 
 361   0.0000      41.283986      1123.3944 
 362   0.0000      53.607635      1458.7379 
 363   0.0000      53.660096      1460.1655 

                 SPIN DOWN ORBITALS
  NO   OCC          E(Eh)            E(eV) 
   0   1.0000     -19.115633      -520.1628 
   1   1.0000     -19.105604      -519.8899 
   2   1.0000     -14.379569      -391.2880 
   3   1.0000     -14.359688      -390.7470 
   4   1.0000     -14.306533      -389.3006 
   5   1.0000     -10.302182      -280.3366 
   6   1.0000     -10.293082      -280.0890 
   7   1.0000     -10.237359      -278.5727 
   8   1.0000     -10.217196      -278.0240 
   9   1.0000     -10.204785      -277.6863 
  10   1.0000     -10.198876      -277.5255 
  11   1.0000     -10.194735      -277.4128 
  12   1.0000     -10.185777      -277.1691 
  13   1.0000     -10.179033      -276.9856 
  14   1.0000      -1.038473       -28.2583 
  15   1.0000      -1.025034       -27.8926 
  16   1.0000      -0.936637       -25.4872 
  17   1.0000      -0.916314       -24.9342 
  18   1.0000      -0.874093       -23.7853 
  19   1.0000      -0.799825       -21.7643 
  20   1.0000      -0.759304       -20.6617 
  21   1.0000      -0.730627       -19.8814 
  22   1.0000      -0.707564       -19.2538 
  23   1.0000      -0.667331       -18.1590 
  24   1.0000      -0.625800       -17.0289 
  25   1.0000      -0.593235       -16.1428 
  26   1.0000      -0.581152       -15.8140 
  27   1.0000      -0.557809       -15.1787 
  28   1.0000      -0.545842       -14.8531 
  29   1.0000      -0.485284       -13.2052 
  30   1.0000      -0.480465       -13.0741 
  31   1.0000      -0.468266       -12.7422 
  32   1.0000      -0.454719       -12.3735 
  33   1.0000      -0.454214       -12.3598 
  34   1.0000      -0.447847       -12.1865 
  35   1.0000      -0.444748       -12.1022 
  36   1.0000      -0.441413       -12.0115 
  37   1.0000      -0.418728       -11.3942 
  38   1.0000      -0.408350       -11.1118 
  39   1.0000      -0.403557       -10.9813 
  40   1.0000      -0.400521       -10.8987 
  41   1.0000      -0.395139       -10.7523 
  42   1.0000      -0.389840       -10.6081 
  43   1.0000      -0.375438       -10.2162 
  44   1.0000      -0.368015       -10.0142 
  45   1.0000      -0.355698        -9.6790 
  46   1.0000      -0.339559        -9.2399 
  47   1.0000      -0.333999        -9.0886 
  48   1.0000      -0.327276        -8.9056 
  49   1.0000      -0.296610        -8.0712 
  50   1.0000      -0.262856        -7.1527 
  51   1.0000      -0.258897        -7.0449 
  52   1.0000      -0.249820        -6.7980 
  53   1.0000      -0.236427        -6.4335 
  54   0.0000      -0.085433        -2.3247 
  55   0.0000       0.011155         0.3035 
  56   0.0000       0.022811         0.6207 
  57   0.0000       0.023377         0.6361 
  58   0.0000       0.028455         0.7743 
  59   0.0000       0.032790         0.8923 
  60   0.0000       0.044215         1.2032 
  61   0.0000       0.057417         1.5624 
  62   0.0000       0.068751         1.8708 
  63   0.0000       0.077119         2.0985 
  64   0.0000       0.088886         2.4187 
  65   0.0000       0.090719         2.4686 
  66   0.0000       0.109505         2.9798 
  67   0.0000       0.121946         3.3183 
  68   0.0000       0.135649         3.6912 
  69   0.0000       0.146461         3.9854 
  70   0.0000       0.155719         4.2373 
  71   0.0000       0.165870         4.5135 
  72   0.0000       0.172548         4.6953 
  73   0.0000       0.178511         4.8575 
  74   0.0000       0.182520         4.9666 
  75   0.0000       0.189565         5.1583 
  76   0.0000       0.195422         5.3177 
  77   0.0000       0.197283         5.3684 
  78   0.0000       0.202739         5.5168 
  79   0.0000       0.210527         5.7287 
  80   0.0000       0.214330         5.8322 
  81   0.0000       0.219374         5.9695 
  82   0.0000       0.226105         6.1526 
  83   0.0000       0.230350         6.2681 
  84   0.0000       0.237669         6.4673 
  85   0.0000       0.243771         6.6334 
  86   0.0000       0.244706         6.6588 
  87   0.0000       0.250111         6.8059 
  88   0.0000       0.256537         6.9807 
  89   0.0000       0.262144         7.1333 
  90   0.0000       0.264408         7.1949 
  91   0.0000       0.276579         7.5261 
  92   0.0000       0.280889         7.6434 
  93   0.0000       0.288560         7.8521 
  94   0.0000       0.291036         7.9195 
  95   0.0000       0.295282         8.0350 
  96   0.0000       0.300017         8.1639 
  97   0.0000       0.300330         8.1724 
  98   0.0000       0.309103         8.4111 
  99   0.0000       0.316333         8.6078 
 100   0.0000       0.318860         8.6766 
 101   0.0000       0.330829         9.0023 
 102   0.0000       0.340654         9.2697 
 103   0.0000       0.352819         9.6007 
 104   0.0000       0.358337         9.7508 
 105   0.0000       0.375923        10.2294 
 106   0.0000       0.381412        10.3787 
 107   0.0000       0.388647        10.5756 
 108   0.0000       0.400024        10.8852 
 109   0.0000       0.409736        11.1495 
 110   0.0000       0.418341        11.3836 
 111   0.0000       0.423540        11.5251 
 112   0.0000       0.426696        11.6110 
 113   0.0000       0.442915        12.0523 
 114   0.0000       0.458953        12.4887 
 115   0.0000       0.462601        12.5880 
 116   0.0000       0.472188        12.8489 
 117   0.0000       0.489065        13.3081 
 118   0.0000       0.500033        13.6066 
 119   0.0000       0.512807        13.9542 
 120   0.0000       0.524814        14.2809 
 121   0.0000       0.534611        14.5475 
 122   0.0000       0.547153        14.8888 
 123   0.0000       0.551927        15.0187 
 124   0.0000       0.564599        15.3635 
 125   0.0000       0.586759        15.9665 
 126   0.0000       0.598083        16.2747 
 127   0.0000       0.624057        16.9814 
 128   0.0000       0.628455        17.1011 
 129   0.0000       0.636215        17.3123 
 130   0.0000       0.657409        17.8890 
 131   0.0000       0.662374        18.0241 
 132   0.0000       0.675220        18.3737 
 133   0.0000       0.691075        18.8051 
 134   0.0000       0.723336        19.6830 
 135   0.0000       0.745218        20.2784 
 136   0.0000       0.759205        20.6590 
 137   0.0000       0.770110        20.9557 
 138   0.0000       0.781835        21.2748 
 139   0.0000       0.795039        21.6341 
 140   0.0000       0.810845        22.0642 
 141   0.0000       0.815656        22.1951 
 142   0.0000       0.822716        22.3873 
 143   0.0000       0.836475        22.7616 
 144   0.0000       0.842349        22.9215 
 145   0.0000       0.851474        23.1698 
 146   0.0000       0.852842        23.2070 
 147   0.0000       0.861078        23.4311 
 148   0.0000       0.874012        23.7831 
 149   0.0000       0.885847        24.1051 
 150   0.0000       0.888349        24.1732 
 151   0.0000       0.896827        24.4039 
 152   0.0000       0.903124        24.5752 
 153   0.0000       0.920364        25.0444 
 154   0.0000       0.922248        25.0956 
 155   0.0000       0.927004        25.2251 
 156   0.0000       0.929315        25.2879 
 157   0.0000       0.935059        25.4443 
 158   0.0000       0.941136        25.6096 
 159   0.0000       0.949162        25.8280 
 160   0.0000       0.960943        26.1486 
 161   0.0000       0.965792        26.2805 
 162   0.0000       0.976362        26.5681 
 163   0.0000       0.986211        26.8362 
 164   0.0000       0.991984        26.9933 
 165   0.0000       1.003585        27.3089 
 166   0.0000       1.013951        27.5910 
 167   0.0000       1.033036        28.1103 
 168   0.0000       1.038485        28.2586 
 169   0.0000       1.058661        28.8076 
 170   0.0000       1.066823        29.0297 
 171   0.0000       1.075718        29.2718 
 172   0.0000       1.085726        29.5441 
 173   0.0000       1.105287        30.0764 
 174   0.0000       1.120585        30.4927 
 175   0.0000       1.140341        31.0302 
 176   0.0000       1.164225        31.6802 
 177   0.0000       1.176853        32.0238 
 178   0.0000       1.182976        32.1904 
 179   0.0000       1.196704        32.5640 
 180   0.0000       1.200519        32.6678 
 181   0.0000       1.212557        32.9953 
 182   0.0000       1.218229        33.1497 
 183   0.0000       1.245239        33.8847 
 184   0.0000       1.267996        34.5039 
 185   0.0000       1.276433        34.7335 
 186   0.0000       1.315372        35.7931 
 187   0.0000       1.331419        36.2298 
 188   0.0000       1.337793        36.4032 
 189   0.0000       1.358670        36.9713 
 190   0.0000       1.377133        37.4737 
 191   0.0000       1.379133        37.5281 
 192   0.0000       1.395963        37.9861 
 193   0.0000       1.407661        38.3044 
 194   0.0000       1.423229        38.7280 
 195   0.0000       1.434663        39.0392 
 196   0.0000       1.463220        39.8162 
 197   0.0000       1.475631        40.1540 
 198   0.0000       1.488966        40.5168 
 199   0.0000       1.491906        40.5968 
 200   0.0000       1.497434        40.7473 
 201   0.0000       1.522544        41.4305 
 202   0.0000       1.530411        41.6446 
 203   0.0000       1.535720        41.7891 
 204   0.0000       1.551416        42.2162 
 205   0.0000       1.557293        42.3761 
 206   0.0000       1.566940        42.6386 
 207   0.0000       1.581319        43.0299 
 208   0.0000       1.589211        43.2446 
 209   0.0000       1.594878        43.3988 
 210   0.0000       1.608468        43.7686 
 211   0.0000       1.621421        44.1211 
 212   0.0000       1.636708        44.5371 
 213   0.0000       1.646958        44.8160 
 214   0.0000       1.648893        44.8686 
 215   0.0000       1.663426        45.2641 
 216   0.0000       1.669060        45.4174 
 217   0.0000       1.682303        45.7778 
 218   0.0000       1.688080        45.9350 
 219   0.0000       1.701357        46.2963 
 220   0.0000       1.708831        46.4997 
 221   0.0000       1.718902        46.7737 
 222   0.0000       1.732570        47.1456 
 223   0.0000       1.735720        47.2313 
 224   0.0000       1.747231        47.5446 
 225   0.0000       1.755886        47.7801 
 226   0.0000       1.770276        48.1717 
 227   0.0000       1.776466        48.3401 
 228   0.0000       1.794821        48.8395 
 229   0.0000       1.809259        49.2324 
 230   0.0000       1.825877        49.6846 
 231   0.0000       1.830103        49.7996 
 232   0.0000       1.843080        50.1528 
 233   0.0000       1.867060        50.8053 
 234   0.0000       1.878942        51.1286 
 235   0.0000       1.893445        51.5232 
 236   0.0000       1.896939        51.6183 
 237   0.0000       1.930796        52.5396 
 238   0.0000       1.949345        53.0444 
 239   0.0000       1.988888        54.1204 
 240   0.0000       1.993676        54.2507 
 241   0.0000       2.006361        54.5958 
 242   0.0000       2.041101        55.5412 
 243   0.0000       2.047821        55.7241 
 244   0.0000       2.050917        55.8083 
 245   0.0000       2.056623        55.9635 
 246   0.0000       2.072285        56.3897 
 247   0.0000       2.098758        57.1101 
 248   0.0000       2.102273        57.2058 
 249   0.0000       2.151551        58.5467 
 250   0.0000       2.175557        59.1999 
 251   0.0000       2.179269        59.3009 
 252   0.0000       2.204061        59.9756 
 253   0.0000       2.230861        60.7048 
 254   0.0000       2.246203        61.1223 
 255   0.0000       2.255455        61.3740 
 256   0.0000       2.278143        61.9914 
 257   0.0000       2.282096        62.0990 
 258   0.0000       2.288992        62.2866 
 259   0.0000       2.305104        62.7251 
 260   0.0000       2.326862        63.3171 
 261   0.0000       2.334695        63.5303 
 262   0.0000       2.362828        64.2958 
 263   0.0000       2.366276        64.3896 
 264   0.0000       2.381639        64.8077 
 265   0.0000       2.390986        65.0620 
 266   0.0000       2.391214        65.0682 
 267   0.0000       2.405980        65.4700 
 268   0.0000       2.429416        66.1078 
 269   0.0000       2.443384        66.4879 
 270   0.0000       2.457515        66.8724 
 271   0.0000       2.469188        67.1900 
 272   0.0000       2.482514        67.5526 
 273   0.0000       2.485455        67.6327 
 274   0.0000       2.494529        67.8796 
 275   0.0000       2.504415        68.1486 
 276   0.0000       2.518126        68.5217 
 277   0.0000       2.559769        69.6548 
 278   0.0000       2.569635        69.9233 
 279   0.0000       2.594641        70.6038 
 280   0.0000       2.620137        71.2976 
 281   0.0000       2.636760        71.7499 
 282   0.0000       2.668452        72.6123 
 283   0.0000       2.698939        73.4419 
 284   0.0000       2.726630        74.1954 
 285   0.0000       2.735365        74.4331 
 286   0.0000       2.740855        74.5824 
 287   0.0000       2.750615        74.8481 
 288   0.0000       2.760024        75.1041 
 289   0.0000       2.823834        76.8404 
 290   0.0000       2.886489        78.5454 
 291   0.0000       2.903164        78.9991 
 292   0.0000       3.017375        82.1069 
 293   0.0000       3.068279        83.4921 
 294   0.0000       3.082309        83.8739 
 295   0.0000       3.101029        84.3833 
 296   0.0000       3.361654        91.4753 
 297   0.0000       3.421527        93.1045 
 298   0.0000       3.440985        93.6340 
 299   0.0000       3.454435        94.0000 
 300   0.0000       4.927204       134.0760 
 301   0.0000       4.955874       134.8562 
 302   0.0000       4.982732       135.5870 
 303   0.0000       4.990852       135.8080 
 304   0.0000       5.010647       136.3466 
 305   0.0000       5.016469       136.5051 
 306   0.0000       5.031412       136.9117 
 307   0.0000       5.036114       137.0396 
 308   0.0000       5.050481       137.4306 
 309   0.0000       5.097868       138.7200 
 310   0.0000       5.121007       139.3497 
 311   0.0000       5.148692       140.1030 
 312   0.0000       5.170102       140.6856 
 313   0.0000       5.230336       142.3247 
 314   0.0000       5.247378       142.7884 
 315   0.0000       5.272678       143.4769 
 316   0.0000       5.290151       143.9523 
 317   0.0000       5.312786       144.5683 
 318   0.0000       5.348898       145.5509 
 319   0.0000       5.360279       145.8606 
 320   0.0000       5.393283       146.7587 
 321   0.0000       5.522141       150.2651 
 322   0.0000       5.605458       152.5323 
 323   0.0000       5.660708       154.0357 
 324   0.0000       5.700620       155.1217 
 325   0.0000       5.756716       156.6482 
 326   0.0000       5.874331       159.8487 
 327   0.0000       7.209329       196.1758 
 328   0.0000       7.310708       198.9345 
 329   0.0000       7.350161       200.0081 
 330   0.0000       9.074545       246.9309 
 331   0.0000       9.130818       248.4622 
 332   0.0000      29.577283       804.8388 
 333   0.0000      29.626127       806.1679 
 334   0.0000      29.802373       810.9638 
 335   0.0000      29.883173       813.1625 
 336   0.0000      29.963672       815.3530 
 337   0.0000      30.056856       817.8886 
 338   0.0000      30.084939       818.6528 
 339   0.0000      30.140190       820.1563 
 340   0.0000      30.283053       824.0438 
 341   0.0000      36.544114       994.4159 
 342   0.0000      36.603430       996.0300 
 343   0.0000      36.612889       996.2874 
 344   0.0000      36.626347       996.6536 
 345   0.0000      36.632772       996.8284 
 346   0.0000      36.647244       997.2222 
 347   0.0000      36.658116       997.5180 
 348   0.0000      36.669324       997.8230 
 349   0.0000      36.709113       998.9057 
 350   0.0000      36.712617       999.0011 
 351   0.0000      36.726596       999.3815 
 352   0.0000      36.759443      1000.2753 
 353   0.0000      36.835464      1002.3439 
 354   0.0000      36.873243      1003.3719 
 355   0.0000      36.889844      1003.8237 
 356   0.0000      36.907608      1004.3071 
 357   0.0000      36.920627      1004.6613 
 358   0.0000      36.954766      1005.5903 
 359   0.0000      41.153942      1119.8557 
 360   0.0000      41.258219      1122.6932 
 361   0.0000      41.285928      1123.4472 
 362   0.0000      53.610749      1458.8226 
 363   0.0000      53.663124      1460.2478 

                    ********************************
                    * MULLIKEN POPULATION ANALYSIS *
                    ********************************

--------------------------------------------
MULLIKEN ATOMIC CHARGES AND SPIN POPULATIONS
--------------------------------------------
   0 N :   -0.026409    0.059239
   1 C :    0.148129    0.648182
   2 C :    0.015321   -0.008078
   3 O :   -0.382008    0.096235
   4 C :   -0.339376   -0.038894
   5 C :   -0.269812    0.029212
   6 C :   -0.266657    0.004989
   7 C :   -0.305603    0.000674
   8 N :   -0.454302    0.000792
   9 H :    0.187455    0.010898
  10 H :    0.121545    0.005815
  11 H :    0.139013   -0.000774
  12 H :    0.178481   -0.001385
  13 H :    0.155306   -0.000119
  14 H :    0.155043   -0.000170
  15 H :    0.155843    0.000004
  16 H :    0.141037   -0.000055
  17 H :    0.209284    0.000233
  18 H :    0.211075   -0.000046
  19 H :    0.251088   -0.003763
  20 C :    0.103469    0.034094
  21 N :   -0.115842    0.060661
  22 H :    0.224768   -0.002343
  23 O :   -0.288100    0.095927
  24 C :   -0.544685   -0.004072
  25 H :    0.187628    0.004530
  26 H :    0.188368    0.004663
  27 H :    0.152121   -0.000092
  28 C :   -0.447773   -0.005889
  29 H :    0.198393    0.000564
  30 H :    0.150359    0.001926
  31 H :    0.166840    0.007043
Sum of atomic charges         :    0.0000000
Sum of atomic spin populations:    1.0000000

-----------------------------------------------------
MULLIKEN REDUCED ORBITAL CHARGES AND SPIN POPULATIONS
-----------------------------------------------------
CHARGE
  0 N s       :     3.373661  s :     3.373661
      pz      :     1.396748  p :     3.614977
      px      :     1.237797
      py      :     0.980432
      dz2     :     0.004667  d :     0.037771
      dxz     :     0.003955
      dyz     :     0.008358
      dx2y2   :     0.010384
      dxy     :     0.010406
  1 C s       :     3.074582  s :     3.074582
      pz      :     0.952772  p :     2.685186
      px      :     0.905473
      py      :     0.826942
      dz2     :     0.013998  d :     0.092103
      dxz     :     0.012859
      dyz     :     0.018349
      dx2y2   :     0.020210
      dxy     :     0.026687
  2 C s       :     3.090564  s :     3.090564
      pz      :     0.858489  p :     2.698801
      px      :     0.886667
      py      :     0.953644
      dz2     :     0.032298  d :     0.195315
      dxz     :     0.028097
      dyz     :     0.032343
      dx2y2   :     0.036736
      dxy     :     0.065840
  3 O s       :     3.912852  s :     3.912852
      pz      :     1.431025  p :     4.451709
      px      :     1.268081
[...]
             ----------           ----------           ----------
 A(Tot)         -0.2100               1.2801               1.6191    A(iso)=    0.8964
 Orientation: 
  X          -0.8527514            0.1215553            0.5079757
  Y          -0.2039966           -0.9728096           -0.1096672
  Z           0.4808330           -0.1971442            0.8543616

Notes:  (1) The A matrix conforms to the "SAI" spin Hamiltonian convention.
        (2) Tensor is right-handed.

 -----------------------------------------------------------
 Nucleus  21N : A:ISTP=   17 I=  2.5 P=-72.3588 MHz/au**3
                Q:ISTP=   17 I=  2.5 Q= -0.0256 barn     
 -----------------------------------------------------------
 Solving for nuclear perturbation:
Forming RHS of the CP-SCF equations         ... 
Calc. nucleus orbit integrals (SHARK)       ... done

------------------------------------------------------------------------------
                           ORCA CP-SCF CALCULATION
------------------------------------------------------------------------------

Input orbitals are from        ... epr_info.gbw
Input Perturbation             ... epr_info.pin.tmp
Wavefunction output            ... epr_info.pout.tmp
Perturbation mode              ... Imaginary perturbation
Solver                         ... POPLE
Max. number of iterations      ... 64
Convergence tolerance          ... 1.000e-03
Integral handling              ... Direct
DFT GridXC                     ... 1
COSX GridX                     ... 1
COSX IntAccX                   ... 3.067
COSX Algorithm                 ... Auto
Number of perturbations        ... 3
Number of operators            ... 2
Orbital ranges used for CP-SCF:
 Operator 0:  Orbitals   0... 54  to  55...363
 Operator 1:  Orbitals   0... 53  to  54...363
Variables per perturbation     ... 33735
DFT calculation                         ... on
XC functional terms                     ... off
Hybrid DFT                              ... on
   Exchange mixing (SCF)                ...  0.200
   Exchange mixing (CP-SCF)             ...  0.200
   GGA exch. scaling(SCF)               ...  0.720
   GGA exch. scaling (CP-SCF)           ...  0.720
   GGA corr. scaling (SCF)              ...  0.810
   GGA corr. scaling (CP-SCF)           ...  0.810

CP-SCF GRID
-----------

General Integration Accuracy     IntAcc      ... 3.467
Radial Grid Type                 RadialGrid  ... OptM3 with GC (2021)
Angular Grid (max. ang.)         AngularGrid ... 1 (Lebedev-50)
Angular grid pruning method      GridPruning ... 4 (adaptive)
Weight generation scheme         WeightScheme... Becke
Basis function cutoff            BFCut       ... 1.0000e-10
Integration weight cutoff        WCut        ... 1.0000e-14
Angular grids for H and He will be reduced by one unit
Partially contracted basis set               ... off
Rotationally invariant grid construction     ... off

Total number of grid points                  ...    20015
Total number of batches                      ...      330
Average number of points per batch           ...       60
Average number of grid points per atom       ...      625

CP-SCF GRIDX
------------

General Integration Accuracy     IntAcc      ... 3.067
Radial Grid Type                 RadialGrid  ... OptM3 with GC (2021)
Angular Grid (max. ang.)         AngularGrid ... 1 (Lebedev-50)
Angular grid pruning method      GridPruning ... 4 (adaptive)
Weight generation scheme         WeightScheme... Becke
Basis function cutoff            BFCut       ... 1.0000e-10
Integration weight cutoff        WCut        ... 1.0000e-14
Angular grids for H and He will be reduced by one unit
Partially contracted basis set               ... on
Rotationally invariant grid construction     ... off

Total number of grid points                  ...     9444
Total number of batches                      ...      165
Average number of points per batch           ...       57
Average number of grid points per atom       ...      295

Memory available               ... 920.7 MB
Memory needed per perturbation ...   8.0 MB
Perturbations treated per batch... 3
Number of batches              ... 1
     CP-SCF ITERATION   0:   1.3366e+00 (   0.5 sec   0/  3 done)
     CP-SCF ITERATION   1:   6.3252e-02 (   0.4 sec   0/  3 done)
     CP-SCF ITERATION   2:   7.2171e-03 (   0.4 sec   0/  3 done)
     CP-SCF ITERATION   3:   5.1044e-04 (   0.4 sec   3/  3 done)
                    *** THE CP-SCF HAS CONVERGED ***

Forming final perturbed densities           ... done
Transforming perturbed density to AO basis  ... done

 Raw HFC matrix (all values in MHz): 
 -----------------------------------
                -1.3194               1.0263              -7.7411
                 1.0403               1.6092               1.9838
                -7.7390               1.9911             -11.6584

 A(FC)          -3.7825              -3.7825              -3.7825
 A(SD)           5.6798               6.6185             -12.2983
 A(ORB+DIA)     -0.0052              -0.0166               0.0007    A(PC) =  -0.0070
 A(ORB)         -0.0050              -0.0165               0.0006    A(PC) =  -0.0070
 A(DIA)         -0.0002              -0.0001               0.0000    A(PC) =  -0.0001
             ----------           ----------           ----------
 A(Tot)          1.8921               2.8194             -16.0801    A(iso)=   -3.7896
 Orientation: 
  X           0.0875447           -0.8795985            0.4675921
  Y           0.9915519            0.0318438           -0.1257408
  Z           0.0957115            0.4746498            0.8749553

Notes:  (1) The A matrix conforms to the "SAI" spin Hamiltonian convention.
        (2) Tensor is right-handed.

 -----------------------------------------------------------
 Nucleus  22H : A:ISTP=   17 I=  2.5 P=-72.3588 MHz/au**3
                Q:ISTP=   17 I=  2.5 Q= -0.0256 barn     
 -----------------------------------------------------------
 Solving for nuclear perturbation:
Forming RHS of the CP-SCF equations         ... 
Calc. nucleus orbit integrals (SHARK)       ... done

------------------------------------------------------------------------------
                           ORCA CP-SCF CALCULATION
------------------------------------------------------------------------------

Input orbitals are from        ... epr_info.gbw
Input Perturbation             ... epr_info.pin.tmp
Wavefunction output            ... epr_info.pout.tmp
Perturbation mode              ... Imaginary perturbation
Solver                         ... POPLE
Max. number of iterations      ... 64
Convergence tolerance          ... 1.000e-03
Integral handling              ... Direct
DFT GridXC                     ... 1
COSX GridX                     ... 1
COSX IntAccX                   ... 3.067
COSX Algorithm                 ... Auto
Number of perturbations        ... 3
Number of operators            ... 2
Orbital ranges used for CP-SCF:
 Operator 0:  Orbitals   0... 54  to  55...363
 Operator 1:  Orbitals   0... 53  to  54...363
Variables per perturbation     ... 33735
DFT calculation                         ... on
XC functional terms                     ... off
Hybrid DFT                              ... on
   Exchange mixing (SCF)                ...  0.200
   Exchange mixing (CP-SCF)             ...  0.200
   GGA exch. scaling(SCF)               ...  0.720
   GGA exch. scaling (CP-SCF)           ...  0.720
   GGA corr. scaling (SCF)              ...  0.810
   GGA corr. scaling (CP-SCF)           ...  0.810

CP-SCF GRID
-----------

General Integration Accuracy     IntAcc      ... 3.467
Radial Grid Type                 RadialGrid  ... OptM3 with GC (2021)
Angular Grid (max. ang.)         AngularGrid ... 1 (Lebedev-50)
Angular grid pruning method      GridPruning ... 4 (adaptive)
Weight generation scheme         WeightScheme... Becke
Basis function cutoff            BFCut       ... 1.0000e-10
Integration weight cutoff        WCut        ... 1.0000e-14
Angular grids for H and He will be reduced by one unit
Partially contracted basis set               ... off
Rotationally invariant grid construction     ... off

Total number of grid points                  ...    20015
Total number of batches                      ...      330
Average number of points per batch           ...       60
Average number of grid points per atom       ...      625

CP-SCF GRIDX
------------

General Integration Accuracy     IntAcc      ... 3.067
Radial Grid Type                 RadialGrid  ... OptM3 with GC (2021)
Angular Grid (max. ang.)         AngularGrid ... 1 (Lebedev-50)
Angular grid pruning method      GridPruning ... 4 (adaptive)
Weight generation scheme         WeightScheme... Becke
Basis function cutoff            BFCut       ... 1.0000e-10
Integration weight cutoff        WCut        ... 1.0000e-14
Angular grids for H and He will be reduced by one unit
Partially contracted basis set               ... on
Rotationally invariant grid construction     ... off

Total number of grid points                  ...     9444
Total number of batches                      ...      165
Average number of points per batch           ...       57
Average number of grid points per atom       ...      295

Memory available               ... 920.4 MB
Memory needed per perturbation ...   8.0 MB
Perturbations treated per batch... 3
Number of batches              ... 1
     CP-SCF ITERATION   0:   8.0987e-02 (   0.4 sec   0/  3 done)
     CP-SCF ITERATION   1:   4.3618e-03 (   0.4 sec   0/  3 done)
     CP-SCF ITERATION   2:   3.9067e-04 (   0.5 sec   3/  3 done)
                    *** THE CP-SCF HAS CONVERGED ***

Forming final perturbed densities           ... done
Transforming perturbed density to AO basis  ... done

 Raw HFC matrix (all values in MHz): 
 -----------------------------------
                 0.2847               0.1515               0.4721
                 0.1514               0.6402              -0.1754
                 0.4726              -0.1751               0.8203

 A(FC)           0.5830               0.5830               0.5830
 A(SD)          -0.6404               0.1147               0.5258
 A(ORB+DIA)     -0.0021              -0.0017               0.0000    A(PC) =  -0.0012
 A(ORB)         -0.0019              -0.0016              -0.0000    A(PC) =  -0.0012
 A(DIA)         -0.0001              -0.0001               0.0001    A(PC) =  -0.0001
             ----------           ----------           ----------
 A(Tot)         -0.0595               0.6959               1.1088    A(iso)=    0.5817
 Orientation: 
  X          -0.8139127            0.3480623           -0.4651867
  Y           0.3012480            0.9374697            0.1743564
  Z           0.4967854            0.0017743           -0.8678716

Notes:  (1) The A matrix conforms to the "SAI" spin Hamiltonian convention.
        (2) Tensor is right-handed.

 -----------------------------------------------------------
 Nucleus  23O : A:ISTP=   17 I=  2.5 P=-72.3588 MHz/au**3
                Q:ISTP=   17 I=  2.5 Q= -0.0256 barn     
 -----------------------------------------------------------
 Solving for nuclear perturbation:
Forming RHS of the CP-SCF equations         ... 
Calc. nucleus orbit integrals (SHARK)       ... done

------------------------------------------------------------------------------
                           ORCA CP-SCF CALCULATION
------------------------------------------------------------------------------

Input orbitals are from        ... epr_info.gbw
Input Perturbation             ... epr_info.pin.tmp
Wavefunction output            ... epr_info.pout.tmp
Perturbation mode              ... Imaginary perturbation
Solver                         ... POPLE
Max. number of iterations      ... 64
Convergence tolerance          ... 1.000e-03
Integral handling              ... Direct
DFT GridXC                     ... 1
COSX GridX                     ... 1
COSX IntAccX                   ... 3.067
COSX Algorithm                 ... Auto
Number of perturbations        ... 3
Number of operators            ... 2
Orbital ranges used for CP-SCF:
 Operator 0:  Orbitals   0... 54  to  55...363
 Operator 1:  Orbitals   0... 53  to  54...363
Variables per perturbation     ... 33735
DFT calculation                         ... on
XC functional terms                     ... off
Hybrid DFT                              ... on
   Exchange mixing (SCF)                ...  0.200
   Exchange mixing (CP-SCF)             ...  0.200
   GGA exch. scaling(SCF)               ...  0.720
   GGA exch. scaling (CP-SCF)           ...  0.720
   GGA corr. scaling (SCF)              ...  0.810
   GGA corr. scaling (CP-SCF)           ...  0.810

CP-SCF GRID
-----------

General Integration Accuracy     IntAcc      ... 3.467
Radial Grid Type                 RadialGrid  ... OptM3 with GC (2021)
Angular Grid (max. ang.)         AngularGrid ... 1 (Lebedev-50)
Angular grid pruning method      GridPruning ... 4 (adaptive)
Weight generation scheme         WeightScheme... Becke
Basis function cutoff            BFCut       ... 1.0000e-10
Integration weight cutoff        WCut        ... 1.0000e-14
Angular grids for H and He will be reduced by one unit
Partially contracted basis set               ... off
Rotationally invariant grid construction     ... off

Total number of grid points                  ...    20015
Total number of batches                      ...      330
Average number of points per batch           ...       60
Average number of grid points per atom       ...      625

CP-SCF GRIDX
------------

General Integration Accuracy     IntAcc      ... 3.067
Radial Grid Type                 RadialGrid  ... OptM3 with GC (2021)
Angular Grid (max. ang.)         AngularGrid ... 1 (Lebedev-50)
Angular grid pruning method      GridPruning ... 4 (adaptive)
Weight generation scheme         WeightScheme... Becke
Basis function cutoff            BFCut       ... 1.0000e-10
Integration weight cutoff        WCut        ... 1.0000e-14
Angular grids for H and He will be reduced by one unit
Partially contracted basis set               ... on
Rotationally invariant grid construction     ... off

Total number of grid points                  ...     9444
Total number of batches                      ...      165
Average number of points per batch           ...       57
Average number of grid points per atom       ...      295

Memory available               ... 920.0 MB
Memory needed per perturbation ...   8.0 MB
Perturbations treated per batch... 3
Number of batches              ... 1
     CP-SCF ITERATION   0:   4.1357e+00 (   0.5 sec   0/  3 done)
     CP-SCF ITERATION   1:   1.8104e-01 (   0.4 sec   0/  3 done)
     CP-SCF ITERATION   2:   1.9760e-02 (   0.4 sec   0/  3 done)
     CP-SCF ITERATION   3:   1.4229e-03 (   0.5 sec   0/  3 done)
     CP-SCF ITERATION   4:   1.1850e-04 (   0.4 sec   3/  3 done)
                    *** THE CP-SCF HAS CONVERGED ***

Forming final perturbed densities           ... done
Transforming perturbed density to AO basis  ... done

 Raw HFC matrix (all values in MHz): 
 -----------------------------------
                 0.5561               3.9564             -15.6456
                 3.9431               4.7104               8.8646
               -15.6543               8.8568             -27.2111

 A(FC)          -7.2323              -7.2323              -7.2323
 A(SD)          14.3282              14.9711             -29.2993
 A(ORB+DIA)     -0.1050              -0.1442               0.0015    A(PC) =  -0.0826
 A(ORB)         -0.1048              -0.1441               0.0014    A(PC) =  -0.0825
 A(DIA)         -0.0002              -0.0001               0.0000    A(PC) =  -0.0001
             ----------           ----------           ----------
 A(Tot)          6.9909               7.5946             -36.5302    A(iso)=   -7.3149
 Orientation: 
  X           0.1298719           -0.9076952            0.3990271
  Y           0.9726802            0.0385316           -0.2289290
  Z           0.1924227            0.4178572            0.8879014

Notes:  (1) The A matrix conforms to the "SAI" spin Hamiltonian convention.
        (2) Tensor is right-handed.


--------------------------------------------------------------------------------
----------------------------------------------------------------------------
                           ORCA EULER ANGLE PROGRAM
----------------------------------------------------------------------------

Only g-tensor available        -->  using g-tensor as reference tensor

Reference tensor               ...  g

g-tensor ordering              ...  |g_min> --> |gx>
                                    |g_mid> --> |gy>
                                    |g_max> --> |gz>

A- and EFG-tensor ordering     ...  the axes |Ax>, |Qx>, |Ay>, etc. are assigned
                                    such that the Euler rotation is minimal. You
                                    can find the respective eigenvalues as Ax,
                                    EFGx, Ay, etc. in the tables below.
                                    The relation of |Ax>, |Ay>,  etc. to Amin, Amid, etc.
                                    (as printed in the ORCA EPR/NMR CALCULATION Output)
                                    is obtained in the detailed printout.

Euler rotation around          ...  z - y - z
   First rotation              -->  by alpha around z
   Second rotation             -->  by beta around y'
   Third rotation              -->  by gamma around z''
   Positive / Negative angle   -->  clockwise / counterclockwise rotation

Plot EFG-tensors                    (-)
Plot HFC-tensors                    (-)
Detailed Printout                   (-)

-------------------------------------------------------------------------
          Euler rotation of hyperfine tensor to g-tensor
-------------------------------------------------------------------------

-------------------------------------------------------------------
 Atom  |   Alpha    Beta    Gamma   |   Ax       Ay       Az 
       |          [degrees]         |           [MHz]         
-------------------------------------------------------------------
  0N     -100.5     27.2    102.7     -12.21    10.59    12.08
  3O     -100.2     41.6     95.6     -35.95     8.67     7.59
  8N     -104.6     35.3     73.9      -0.91    -0.92    -1.21
  9H     -123.5     24.7    138.9      -3.41    -3.71    -4.77
 10H      132.5     40.3   -124.9      -1.71    -3.14    -1.82
 11H     -129.8     21.2    169.2      -0.31     0.90     0.57
 12H       11.8     39.8     -6.9       0.86     0.56    -0.25
 13H     -135.3     27.0     91.6       0.21     0.13    -0.19
 14H       49.5     49.8    -38.4       0.20    -0.19     0.13
 15H     -145.0     38.1   -175.6      -0.15     0.06     0.04
 16H       -5.3     39.9     27.9       0.08     0.06    -0.14
 17H      -58.7     43.9     50.2      -0.03    -0.02    -0.12
 18H     -111.8     29.6     70.3       0.05     0.04    -0.07
 19H     -107.4     39.0    100.6       1.62     1.28    -0.21
 21N      103.2     39.9   -104.6     -16.08     2.82     1.89
 22H      105.9     23.8   -107.1       1.11    -0.06     0.70
 23O       92.2     39.4    -95.0     -36.53     7.59     6.99
-------------------------------------------------------------------


Maximum memory used throughout the entire EPRNMR-calculation: 138.4 MB

Timings for individual modules:

Sum of individual times         ...      509.466 sec (=   8.491 min)
GTO integral calculation        ...        3.448 sec (=   0.057 min)   0.7 %
Spin-Orbit-Coupling Matrices    ...        4.593 sec (=   0.077 min)   0.9 %
SCF iterations                  ...       23.245 sec (=   0.387 min)   4.6 %
EPR/NMR calculation             ...      478.179 sec (=   7.970 min)  93.9 %
                             ****ORCA TERMINATED NORMALLY****
TOTAL RUN TIME: 0 days 0 hours 8 minutes 32 seconds 45 msec
