
                                 *****************
                                 * O   R   C   A *
                                 *****************

                                            #,                                       
                                            ###                                      
                                            ####                                     
                                            #####                                    
                                            ######                                   
                                           ########,                                 
                                     ,,################,,,,,                         
                               ,,#################################,,                 
                          ,,##########################################,,             
                       ,#########################################, ''#####,          
                    ,#############################################,,   '####,        
                  ,##################################################,,,,####,       
                ,###########''''           ''''###############################       
              ,#####''   ,,,,##########,,,,          '''####'''          '####       
            ,##' ,,,,###########################,,,                        '##       
           ' ,,###''''                  '''############,,,                           
         ,,##''                                '''############,,,,        ,,,,,,###''
      ,#''                                            '''#######################'''  
     '                                                          ''''####''''         
             ,#######,   #######,   ,#######,      ##                                
            ,#'     '#,  ##    ##  ,#'     '#,    #''#        ######   ,####,        
            ##       ##  ##   ,#'  ##            #'  '#       #        #'  '#        
            ##       ##  #######   ##           ,######,      #####,   #    #        
            '#,     ,#'  ##    ##  '#,     ,#' ,#      #,         ##   #,  ,#        
             '#######'   ##     ##  '#######'  #'      '#     #####' # '####'        



                  #######################################################
                  #                        -***-                        #
                  #          Department of theory and spectroscopy      #
                  #    Directorship and core code : Frank Neese         #
                  #        Max Planck Institute fuer Kohlenforschung    #
                  #                Kaiser Wilhelm Platz 1               #
                  #                 D-45470 Muelheim/Ruhr               #
                  #                      Germany                        #
                  #                                                     #
                  #                  All rights reserved                #
                  #                        -***-                        #
                  #######################################################


                         Program Version 5.0.4 -  RELEASE  -


 With contributions from (in alphabetic order):
   Daniel Aravena         : Magnetic Suceptibility
   Michael Atanasov       : Ab Initio Ligand Field Theory (pilot matlab implementation)
   Alexander A. Auer      : GIAO ZORA, VPT2 properties, NMR spectrum
   Ute Becker             : Parallelization
   Giovanni Bistoni       : ED, misc. LED, open-shell LED, HFLD
   Martin Brehm           : Molecular dynamics
   Dmytro Bykov           : SCF Hessian
   Vijay G. Chilkuri      : MRCI spin determinant printing, contributions to CSF-ICE
   Dipayan Datta          : RHF DLPNO-CCSD density
   Achintya Kumar Dutta   : EOM-CC, STEOM-CC
   Dmitry Ganyushin       : Spin-Orbit,Spin-Spin,Magnetic field MRCI
   Miquel Garcia          : C-PCM and meta-GGA Hessian, CC/C-PCM, Gaussian charge scheme
   Yang Guo               : DLPNO-NEVPT2, F12-NEVPT2, CIM, IAO-localization
   Andreas Hansen         : Spin unrestricted coupled pair/coupled cluster methods
   Benjamin Helmich-Paris : MC-RPA, TRAH-SCF, COSX integrals
   Lee Huntington         : MR-EOM, pCC
   Robert Izsak           : Overlap fitted RIJCOSX, COSX-SCS-MP3, EOM
   Marcus Kettner         : VPT2
   Christian Kollmar      : KDIIS, OOCD, Brueckner-CCSD(T), CCSD density, CASPT2, CASPT2-K
   Simone Kossmann        : Meta GGA functionals, TD-DFT gradient, OOMP2, MP2 Hessian
   Martin Krupicka        : Initial AUTO-CI
   Lucas Lang             : DCDCAS
   Marvin Lechner         : AUTO-CI (C++ implementation), FIC-MRCC
   Dagmar Lenk            : GEPOL surface, SMD
   Dimitrios Liakos       : Extrapolation schemes; Compound Job, initial MDCI parallelization
   Dimitrios Manganas     : Further ROCIS development; embedding schemes
   Dimitrios Pantazis     : SARC Basis sets
   Anastasios Papadopoulos: AUTO-CI, single reference methods and gradients
   Taras Petrenko         : DFT Hessian,TD-DFT gradient, ASA, ECA, R-Raman, ABS, FL, XAS/XES, NRVS
   Peter Pinski           : DLPNO-MP2, DLPNO-MP2 Gradient
   Christoph Reimann      : Effective Core Potentials
   Marius Retegan         : Local ZFS, SOC
   Christoph Riplinger    : Optimizer, TS searches, QM/MM, DLPNO-CCSD(T), (RO)-DLPNO pert. Triples
   Tobias Risthaus        : Range-separated hybrids, TD-DFT gradient, RPA, STAB
   Michael Roemelt        : Original ROCIS implementation
   Masaaki Saitow         : Open-shell DLPNO-CCSD energy and density
   Barbara Sandhoefer     : DKH picture change effects
   Avijit Sen             : IP-ROCIS
   Kantharuban Sivalingam : CASSCF convergence, NEVPT2, FIC-MRCI
   Bernardo de Souza      : ESD, SOC TD-DFT
   Georgi Stoychev        : AutoAux, RI-MP2 NMR, DLPNO-MP2 response
   Willem Van den Heuvel  : Paramagnetic NMR
   Boris Wezisla          : Elementary symmetry handling
   Frank Wennmohs         : Technical directorship


 We gratefully acknowledge several colleagues who have allowed us to
 interface, adapt or use parts of their codes:
   Stefan Grimme, W. Hujo, H. Kruse, P. Pracht,  : VdW corrections, initial TS optimization,
                  C. Bannwarth, S. Ehlert          DFT functionals, gCP, sTDA/sTD-DF
   Ed Valeev, F. Pavosevic, A. Kumar             : LibInt (2-el integral package), F12 methods
   Garnet Chan, S. Sharma, J. Yang, R. Olivares  : DMRG
   Ulf Ekstrom                                   : XCFun DFT Library
   Mihaly Kallay                                 : mrcc  (arbitrary order and MRCC methods)
   Jiri Pittner, Ondrej Demel                    : Mk-CCSD
   Frank Weinhold                                : gennbo (NPA and NBO analysis)
   Christopher J. Cramer and Donald G. Truhlar   : smd solvation model
   Lars Goerigk                                  : TD-DFT with DH, B97 family of functionals
   V. Asgeirsson, H. Jonsson                     : NEB implementation
   FAccTs GmbH                                   : IRC, NEB, NEB-TS, DLPNO-Multilevel, CI-OPT
                                                   MM, QMMM, 2- and 3-layer-ONIOM, Crystal-QMMM,
                                                   LR-CPCM, SF, NACMEs, symmetry and pop. for TD-DFT,
                                                   nearIR, NL-DFT gradient (VV10), updates on ESD,
                                                   ML-optimized integration grids
   S Lehtola, MJT Oliveira, MAL Marques          : LibXC Library
   Liviu Ungur et al                             : ANISO software


 Your calculation uses the libint2 library for the computation of 2-el integrals
 For citations please refer to: http://libint.valeyev.net

 Your ORCA version has been built with support for libXC version: 5.1.0
 For citations please refer to: https://tddft.org/programs/libxc/

 This ORCA versions uses:
   CBLAS   interface :  Fast vector & matrix operations
   LAPACKE interface :  Fast linear algebra routines
   SCALAPACK package :  Parallel linear algebra routines
   Shared memory     :  Shared parallel matrices
   BLAS/LAPACK       :  OpenBLAS 0.3.15  USE64BITINT DYNAMIC_ARCH NO_AFFINITY Zen SINGLE_THREADED
        Core in use  :  Zen
   Copyright (c) 2011-2014, The OpenBLAS Project




***************************************
The coordinates will be read from file: opt.xyz
***************************************


XCFun DFT library Copyright 2009-2010 Ulf Ekstrom and contributors.
See http://admol.org/xcfun for more information.
This is free software; see the source code for copying conditions.
There is ABSOLUTELY NO WARRANTY; not even for MERCHANTABILITY or FITNESS FOR A PARTICULAR PURPOSE.
For details see the documentation.
Scientific users of this library should cite U. Ekstrom, L. Visscher, R. Bast, A. J. Thorvaldsen and K. Ruud;
J.Chem.Theor.Comp. 2010, DOI: 10.1021/ct100117s
XCFun Version 0.99 

================================================================================

----- Orbital basis set information -----
Your calculation utilizes the basis: def2-TZVP
   F. Weigend and R. Ahlrichs, Phys. Chem. Chem. Phys. 7, 3297 (2005).

----- AuxJ basis set information -----
Your calculation utilizes the auxiliary basis: def2/J
   F. Weigend, Phys. Chem. Chem. Phys. 8, 1057 (2006).

================================================================================
                                        WARNINGS
                       Please study these warnings very carefully!
================================================================================


WARNING: your system is open-shell and RHF/RKS was chosen
  ===> : WILL SWITCH to UHF/UKS


WARNING: Geometry Optimization
  ===> : Switching off AutoStart
         For restart on a previous wavefunction, please use MOREAD

WARNING: Minnesota functionals are quite sensitive to the integration grid.
         see SE Wheeler, KN Houk, JCTC 2010, 6, 395,
             N Mardirossian, M Head-Gordon, JCTC 2016, 12, 4303.
         DEFGRID3 seems to be a minimum grid for reliable results with these functionals!
  ===> : Please increase the integration grid!


INFO   : the flag for use of the SHARK integral package has been found!

================================================================================
                                       INPUT FILE
================================================================================
NAME = freq.inp
|  1> ! M062X def2-TZVP OPT FREQ
|  2> %pal nprocs 16 end
|  3> *XYZFile 0 2 opt.xyz
|  4> 
|  5>                          ****END OF INPUT****
================================================================================

                       *****************************
                       * Geometry Optimization Run *
                       *****************************

Geometry optimization settings:
Update method            Update   .... BFGS
Choice of coordinates    CoordSys .... Z-matrix Internals
Initial Hessian          InHess   .... Almoef's Model

Convergence Tolerances:
Energy Change            TolE     ....  5.0000e-06 Eh
Max. Gradient            TolMAXG  ....  3.0000e-04 Eh/bohr
RMS Gradient             TolRMSG  ....  1.0000e-04 Eh/bohr
Max. Displacement        TolMAXD  ....  4.0000e-03 bohr
RMS Displacement         TolRMSD  ....  2.0000e-03 bohr
Strict Convergence                ....  False
------------------------------------------------------------------------------
                        ORCA OPTIMIZATION COORDINATE SETUP
------------------------------------------------------------------------------

The optimization will be done in new redundant internal coordinates
Making redundant internal coordinates   ...  (new redundants) done
Evaluating the initial hessian          ...  (Almloef) done
Evaluating the coordinates              ...  done
Calculating the B-matrix                .... done
Calculating the G-matrix                .... done
Diagonalizing the G-matrix              .... done
Small eigenvalue found = 4.689e-03
Small eigenvalue found = 5.889e-03
Small eigenvalue found = 8.246e-03
The first mode is                       ....   62
The number of degrees of freedom        ....   90

    -----------------------------------------------------------------
                    Redundant Internal Coordinates


    -----------------------------------------------------------------
         Definition                    Initial Value    Approx d2E/dq
    -----------------------------------------------------------------
      1. B(C   1,N   0)                  1.3845         0.571044   
      2. B(C   2,C   1)                  1.4755         0.456384   
      3. B(O   3,C   2)                  1.2472         0.945703   
      4. B(C   4,C   1)                  1.5033         0.412059   
      5. B(C   5,C   4)                  1.5524         0.344086   
      6. B(C   6,C   5)                  1.5373         0.363684   
      7. B(C   7,C   6)                  1.5349         0.366845   
      8. B(N   8,C   7)                  1.4757         0.408510   
      9. B(H   9,C   4)                  1.0922         0.357145   
     10. B(H  10,C   4)                  1.0973         0.350578   
     11. B(H  11,C   5)                  1.0987         0.348720   
     12. B(H  12,C   5)                  1.0947         0.353892   
     13. B(H  13,C   6)                  1.0991         0.348240   
     14. B(H  14,C   6)                  1.0975         0.350291   
     15. B(H  15,C   7)                  1.0972         0.350690   
     16. B(H  16,C   7)                  1.1037         0.342473   
     17. B(H  17,N   8)                  1.0169         0.421897   
     18. B(H  18,N   8)                  1.0175         0.421013   
     19. B(H  19,N   0)                  1.0194         0.417982   
     20. B(C  20,N   0)                  1.3838         0.572465   
     21. B(N  21,C   2)                  1.3760         0.589160   
     22. B(H  22,N  21)                  1.0072         0.437175   
     23. B(O  23,C  20)                  1.2298         1.007923   
     24. B(C  24,C  20)                  1.5247         0.380973   
     25. B(H  25,C  24)                  1.0932         0.355879   
     26. B(H  26,C  24)                  1.0944         0.354369   
     27. B(H  27,C  24)                  1.0929         0.356275   
     28. B(C  28,N  21)                  1.4573         0.437012   
     29. B(H  29,C  28)                  1.0901         0.359915   
     30. B(H  30,C  28)                  1.0934         0.355675   
     31. B(H  31,C  28)                  1.0978         0.349898   
     32. A(C   1,N   0,C  20)          130.5812         0.416189   
     33. A(H  19,N   0,C  20)          118.7377         0.351776   
     34. A(C   1,N   0,H  19)          110.6766         0.351628   
     35. A(N   0,C   1,C   2)          110.9126         0.402409   
     36. A(C   2,C   1,C   4)          126.0239         0.382512   
     37. A(N   0,C   1,C   4)          123.0571         0.395245   
     38. A(C   1,C   2,O   3)          120.4981         0.440317   
     39. A(C   1,C   2,N  21)          117.4266         0.404633   
     40. A(O   3,C   2,N  21)          122.0652         0.458158   
     41. A(H   9,C   4,H  10)          106.8953         0.289245   
     42. A(C   1,C   4,H  10)          109.1035         0.328144   
     43. A(C   1,C   4,C   5)          114.0350         0.364336   
     44. A(C   5,C   4,H  10)          109.3597         0.318583   
     45. A(C   1,C   4,H   9)          109.0230         0.329151   
     46. A(C   5,C   4,H   9)          108.1808         0.319549   
     47. A(C   6,C   5,H  11)          109.8049         0.321200   
     48. A(C   4,C   5,H  11)          109.6902         0.318307   
     49. A(C   4,C   5,C   6)          112.0573         0.356662   
     50. A(H  11,C   5,H  12)          107.1604         0.288591   
     51. A(C   6,C   5,H  12)          109.7393         0.321975   
     52. A(C   4,C   5,H  12)          108.2548         0.319072   
     53. A(C   5,C   6,C   7)          112.8965         0.360571   
     54. A(H  13,C   6,H  14)          106.7639         0.288067   
     55. A(C   7,C   6,H  14)          108.4758         0.321892   
     56. A(C   5,C   6,H  14)          110.5292         0.321437   
     57. A(C   7,C   6,H  13)          109.0861         0.321583   
     58. A(C   5,C   6,H  13)          108.8973         0.321128   
     59. A(H  15,C   7,H  16)          106.9540         0.287367   
     60. A(N   8,C   7,H  16)          113.5495         0.324463   
     61. A(C   6,C   7,H  16)          108.8109         0.320706   
     62. A(N   8,C   7,H  15)          107.6986         0.325730   
     63. A(C   6,C   7,H  15)          109.1156         0.321952   
     64. A(C   6,C   7,N   8)          110.5710         0.365516   
     65. A(H  17,N   8,H  18)          105.7805         0.300717   
     66. A(C   7,N   8,H  18)          109.0749         0.332853   
     67. A(C   7,N   8,H  17)          109.5022         0.332968   
     68. A(O  23,C  20,C  24)          121.7689         0.431144   
     69. A(N   0,C  20,C  24)          114.5612         0.390025   
     70. A(N   0,C  20,O  23)          123.6687         0.461092   
     71. A(H  22,N  21,C  28)          118.2082         0.338724   
     72. A(C   2,N  21,C  28)          121.4873         0.398977   
     73. A(C   2,N  21,H  22)          118.2848         0.356193   
     74. A(H  26,C  24,H  27)          109.0085         0.289622   
     75. A(H  25,C  24,H  27)          109.4057         0.289816   
     76. A(C  20,C  24,H  27)          113.8129         0.324795   
     77. A(H  25,C  24,H  26)          107.4893         0.289572   
     78. A(C  20,C  24,H  26)          108.4006         0.324509   
     79. A(C  20,C  24,H  25)          108.5340         0.324736   
     80. A(H  30,C  28,H  31)          109.0551         0.288970   
     81. A(H  29,C  28,H  31)          108.2129         0.289507   
     82. A(N  21,C  28,H  31)          112.0948         0.329248   
     83. A(H  29,C  28,H  30)          109.3843         0.290252   
     84. A(N  21,C  28,H  30)          109.6064         0.330140   
     85. A(N  21,C  28,H  29)          108.4438         0.330788   
     86. D(C   4,C   1,N   0,H  19)    178.0602         0.026103   
     87. D(C   4,C   1,N   0,C  20)     -2.7343         0.026103   
     88. D(C   2,C   1,N   0,C  20)    176.4011         0.026103   
     89. D(C   2,C   1,N   0,H  19)     -2.8044         0.026103   
     90. D(O   3,C   2,C   1,C   4)   -178.5626         0.014191   
     91. D(N  21,C   2,C   1,C   4)      0.3018         0.014191   
     92. D(N  21,C   2,C   1,N   0)   -178.8022         0.014191   
     93. D(O   3,C   2,C   1,N   0)      2.3334         0.014191   
     94. D(H  10,C   4,C   1,C   2)     29.4060         0.012571   
     95. D(H  10,C   4,C   1,N   0)   -151.5927         0.012571   
     96. D(H   9,C   4,C   1,C   2)    145.8127         0.012571   
     97. D(C   5,C   4,C   1,N   0)     85.8202         0.012571   
     98. D(H   9,C   4,C   1,N   0)    -35.1859         0.012571   
     99. D(C   5,C   4,C   1,C   2)    -93.1811         0.012571   
    100. D(C   6,C   5,C   4,C   1)   -179.5402         0.009566   
    101. D(H  12,C   5,C   4,H   9)     63.0895         0.009566   
    102. D(H  12,C   5,C   4,C   1)    -58.3839         0.009566   
    103. D(H  11,C   5,C   4,H  10)    -64.2144         0.009566   
    104. D(H  11,C   5,C   4,H   9)    179.7059         0.009566   
    105. D(H  11,C   5,C   4,C   1)     58.2325         0.009566   
    106. D(C   6,C   5,C   4,H  10)     58.0129         0.009566   
    107. D(H  12,C   5,C   4,H  10)    179.1692         0.009566   
    108. D(C   6,C   5,C   4,H   9)    -58.0668         0.009566   
    109. D(H  14,C   6,C   5,C   4)    -59.1794         0.010597   
    110. D(H  13,C   6,C   5,H  12)    -62.4930         0.010597   
    111. D(H  13,C   6,C   5,H  11)    179.9653         0.010597   
    112. D(H  13,C   6,C   5,C   4)     57.8034         0.010597   
    113. D(C   7,C   6,C   5,H  12)     58.8230         0.010597   
    114. D(C   7,C   6,C   5,H  11)    -58.7187         0.010597   
    115. D(H  14,C   6,C   5,H  11)     62.9826         0.010597   
    116. D(C   7,C   6,C   5,C   4)    179.1193         0.010597   
    117. D(H  14,C   6,C   5,H  12)   -179.4758         0.010597   
    118. D(H  16,C   7,C   6,H  14)   -178.6189         0.010770   
    119. D(H  16,C   7,C   6,H  13)     65.4428         0.010770   
    120. D(H  16,C   7,C   6,C   5)    -55.7661         0.010770   
    121. D(H  15,C   7,C   6,H  14)    -62.2534         0.010770   
    122. D(H  15,C   7,C   6,H  13)   -178.1917         0.010770   
    123. D(H  15,C   7,C   6,C   5)     60.5994         0.010770   
    124. D(N   8,C   7,C   6,H  14)     56.0237         0.010770   
    125. D(N   8,C   7,C   6,H  13)    -59.9145         0.010770   
    126. D(N   8,C   7,C   6,C   5)    178.8766         0.010770   
    127. D(H  18,N   8,C   7,H  15)   -175.4996         0.014238   
    128. D(H  18,N   8,C   7,C   6)     65.3621         0.014238   
    129. D(H  17,N   8,C   7,H  16)     58.0522         0.014238   
    130. D(H  17,N   8,C   7,H  15)    -60.1758         0.014238   
    131. D(H  18,N   8,C   7,H  16)    -57.2716         0.014238   
    132. D(H  17,N   8,C   7,C   6)   -179.3141         0.014238   
    133. D(C  24,C  20,N   0,H  19)     -3.4232         0.026241   
    134. D(C  24,C  20,N   0,C   1)    177.4246         0.026241   
    135. D(O  23,C  20,N   0,H  19)    176.9723         0.026241   
    136. D(O  23,C  20,N   0,C   1)     -2.1799         0.026241   
    137. D(C  28,N  21,C   2,O   3)     -6.1488         0.027898   
    138. D(C  28,N  21,C   2,C   1)    175.0058         0.027898   
    139. D(H  22,N  21,C   2,O   3)   -169.6917         0.027898   
    140. D(H  22,N  21,C   2,C   1)     11.4629         0.027898   
    141. D(H  27,C  24,C  20,O  23)   -174.8833         0.010827   
    142. D(H  27,C  24,C  20,N   0)      5.5038         0.010827   
    143. D(H  26,C  24,C  20,O  23)     63.6494         0.010827   
    144. D(H  26,C  24,C  20,N   0)   -115.9635         0.010827   
    145. D(H  25,C  24,C  20,O  23)    -52.8106         0.010827   
    146. D(H  25,C  24,C  20,N   0)    127.5765         0.010827   
    147. D(H  29,C  28,N  21,H  22)   -165.4055         0.016284   
    148. D(H  29,C  28,N  21,C   2)     31.0394         0.016284   
    149. D(H  31,C  28,N  21,H  22)     75.1900         0.016284   
    150. D(H  31,C  28,N  21,C   2)    -88.3651         0.016284   
    151. D(H  30,C  28,N  21,H  22)    -46.0513         0.016284   
    152. D(H  30,C  28,N  21,C   2)    150.3936         0.016284   
    -----------------------------------------------------------------

Number of atoms                         .... 32
Number of degrees of freedom            .... 152

         *************************************************************
         *                GEOMETRY OPTIMIZATION CYCLE   1            *
         *************************************************************
---------------------------------
CARTESIAN COORDINATES (ANGSTROEM)
---------------------------------
  N     -2.061554    0.694510    0.713634
  C     -1.348457   -0.266449    0.017317
  C     -2.018757   -1.578632    0.094575
  O     -3.107374   -1.699142    0.691081
  C     -0.055623    0.025537   -0.692095
  C      1.199870   -0.072670    0.215641
  C      2.493443    0.245074   -0.551831
  C      3.745564    0.174602    0.333207
  N      4.957184    0.461259   -0.458873
  H     -0.097612    1.034765   -1.107655
  H      0.052961   -0.663767   -1.538928
  H      1.263485   -1.079087    0.651885
  H      1.079423    0.631795    1.044896
  H      2.413630    1.253384   -0.981943
  H      2.622348   -0.448447   -1.392639
  H      3.843506   -0.840914    0.736940
  H      3.611258    0.851722    1.194334
  H      5.776761    0.399157    0.139872
  H      4.922886    1.425483   -0.781854
  H     -2.921880    0.300149    1.092508
  C     -1.774510    2.025500    0.960626
  N     -1.408227   -2.640135   -0.532963
  H     -0.462848   -2.521912   -0.859676
  O     -0.739289    2.579108    0.594153
  C     -2.858181    2.775914    1.726869
  H     -2.398445    3.264468    2.590040
  H     -3.258368    3.561672    1.078738
  H     -3.680383    2.140098    2.064759
  C     -1.934826   -3.994535   -0.423263
  H     -3.017955   -3.935714   -0.314739
  H     -1.690833   -4.557464   -1.328264
  H     -1.530930   -4.525251    0.448760

----------------------------
CARTESIAN COORDINATES (A.U.)
----------------------------
  NO LB      ZA    FRAG     MASS         X           Y           Z
   0 N     7.0000    0    14.007   -3.895772    1.312434    1.348572
   1 C     6.0000    0    12.011   -2.548214   -0.503515    0.032724
   2 C     6.0000    0    12.011   -3.814898   -2.983182    0.178720
   3 O     8.0000    0    15.999   -5.872085   -3.210913    1.305954
   4 C     6.0000    0    12.011   -0.105111    0.048258   -1.307871
   5 C     6.0000    0    12.011    2.267427   -0.137326    0.407503
   6 C     6.0000    0    12.011    4.711924    0.463123   -1.042809
   7 C     6.0000    0    12.011    7.078090    0.329949    0.629670
   8 N     7.0000    0    14.007    9.367720    0.871653   -0.867144
   9 H     1.0000    0     1.008   -0.184461    1.955423   -2.093165
  10 H     1.0000    0     1.008    0.100082   -1.254339   -2.908152
  11 H     1.0000    0     1.008    2.387640   -2.039180    1.231884
  12 H     1.0000    0     1.008    2.039814    1.193920    1.974567
  13 H     1.0000    0     1.008    4.561100    2.368553   -1.855604
  14 H     1.0000    0     1.008    4.955520   -0.847442   -2.631706
  15 H     1.0000    0     1.008    7.263174   -1.589097    1.392614
  16 H     1.0000    0     1.008    6.824288    1.609521    2.256964
  17 H     1.0000    0     1.008   10.916496    0.754297    0.264320
  18 H     1.0000    0     1.008    9.302906    2.693773   -1.477491
  19 H     1.0000    0     1.008   -5.521553    0.567200    2.064541
  20 C     6.0000    0    12.011   -3.353338    3.827641    1.815320
  21 N     7.0000    0    14.007   -2.661164   -4.989131   -1.007155
  22 H     1.0000    0     1.008   -0.874655   -4.765723   -1.624552
  23 O     8.0000    0    15.999   -1.397054    4.873808    1.122787
  24 C     6.0000    0    12.011   -5.401180    5.245717    3.263310
  25 H     1.0000    0     1.008   -4.532403    6.168951    4.894465
  26 H     1.0000    0     1.008   -6.157424    6.730584    2.038519
  27 H     1.0000    0     1.008   -6.954915    4.044200    3.901828
  28 C     6.0000    0    12.011   -3.656292   -7.548577   -0.799852
  29 H     1.0000    0     1.008   -5.703109   -7.437422   -0.594771
  30 H     1.0000    0     1.008   -3.195211   -8.612358   -2.510055
  31 H     1.0000    0     1.008   -2.893039   -8.551486    0.848033

--------------------------------
INTERNAL COORDINATES (ANGSTROEM)
--------------------------------
 N      0   0   0     0.000000000000     0.00000000     0.00000000
 C      1   0   0     1.384487871441     0.00000000     0.00000000
 C      2   1   0     1.475498730249   110.91264768     0.00000000
 O      3   2   1     1.247167954439   120.49806042     2.33336397
 C      2   1   3     1.503310317248   123.05712382   180.86460764
 C      5   2   1     1.552382976356   114.03502045    85.82024478
 C      6   5   2     1.537303912458   112.05726908   180.45980106
 C      7   6   5     1.534948158210   112.89647707   179.11934148
 N      8   7   6     1.475664586617   110.57100486   178.87655664
 H      5   2   1     1.092242673573   109.02295140   324.81407631
 H      5   2   1     1.097295059123   109.10353544   208.40733050
 H      6   5   2     1.098741169056   109.69023818    58.23248199
 H      6   5   2     1.094733722215   108.25480587   301.61607253
 H      7   6   5     1.099116013573   108.89731304    57.80337778
 H      7   6   5     1.097517999383   110.52924145   300.82063775
 H      8   7   6     1.097207683343   109.11563624    60.59941668
 H      8   7   6     1.103661667960   108.81091634   304.23388350
 H      9   8   7     1.016887161433   109.50222123   180.68590383
 H      9   8   7     1.017458428382   109.07494617    65.36213848
 H      1   2   3     1.019425380006   110.67658243   357.19560928
 C      1   2   3     1.383811294388   130.58121816   176.40110132
 N      3   2   1     1.375986361814   117.42660280   181.19779621
 H     22   3   2     1.007204156348   118.28476790    11.46286256
 O     21   1   2     1.229823284335   123.66866849   357.82005460
 C     21   1   2     1.524661509355   114.56119737   177.42460294
 H     25  21   1     1.093209349074   108.53399099   127.57648112
 H     25  21   1     1.094367127278   108.40057003   244.03653475
 H     25  21   1     1.092906891308   113.81292772     5.50382814
 C     22   3   2     1.457306061775   121.48733173   175.00584630
 H     29  22   3     1.090139928252   108.44378859    31.03940888
 H     29  22   3     1.093365638731   109.60639692   150.39358030
 H     29  22   3     1.097823268596   112.09475459   271.63486092

---------------------------
INTERNAL COORDINATES (A.U.)
---------------------------
 N      0   0   0     0.000000000000     0.00000000     0.00000000
 C      1   0   0     2.616302912759     0.00000000     0.00000000
 C      2   1   0     2.788288511118   110.91264768     0.00000000
 O      3   2   1     2.356805876892   120.49806042     2.33336397
 C      2   1   3     2.840844793896   123.05712382   180.86460764
 C      5   2   1     2.933578680275   114.03502045    85.82024478
 C      6   5   2     2.905083379150   112.05726908   180.45980106
 C      7   6   5     2.900631648784   112.89647707   179.11934148
 N      8   7   6     2.788601934232   110.57100486   178.87655664
 H      5   2   1     2.064039524835   109.02295140   324.81407631
 H      5   2   1     2.073587149848   109.10353544   208.40733050
 H      6   5   2     2.076319901581   109.69023818    58.23248199
 H      6   5   2     2.068746924555   108.25480587   301.61607253
 H      7   6   5     2.077028255061   108.89731304    57.80337778
 H      7   6   5     2.074008445883   110.52924145   300.82063775
 H      8   7   6     2.073422033553   109.11563624    60.59941668
 H      8   7   6     2.085618296952   108.81091634   304.23388350
 H      9   8   7     1.921638244208   109.50222123   180.68590383
 H      9   8   7     1.922717782292   109.07494617    65.36213848
 H      1   2   3     1.926434782180   110.67658243   357.19560928
 C      1   2   3     2.615024367420   130.58121816   176.40110132
 N      3   2   1     2.600237387840   117.42660280   181.19779621
 H     22   3   2     1.903340016445   118.28476790    11.46286256
 O     21   1   2     2.324029200513   123.66866849   357.82005460
 C     21   1   2     2.881192699611   114.56119737   177.42460294
 H     25  21   1     2.065866276793   108.53399099   127.57648112
 H     25  21   1     2.068054160521   108.40057003   244.03653475
 H     25  21   1     2.065294714448   113.81292772     5.50382814
 C     22   3   2     2.753909350059   121.48733173   175.00584630
 H     29  22   3     2.060065912049   108.44378859    31.03940888
 H     29  22   3     2.066161621442   109.60639692   150.39358030
 H     29  22   3     2.074585321092   112.09475459   271.63486092

---------------------
BASIS SET INFORMATION
---------------------
There are 4 groups of distinct atoms

 Group   1 Type N   : 11s6p2d1f contracted to 5s3p2d1f pattern {62111/411/11/1}
 Group   2 Type C   : 11s6p2d1f contracted to 5s3p2d1f pattern {62111/411/11/1}
 Group   3 Type O   : 11s6p2d1f contracted to 5s3p2d1f pattern {62111/411/11/1}
 Group   4 Type H   : 5s1p contracted to 3s1p pattern {311/1}

Atom   0N    basis set group =>   1
Atom   1C    basis set group =>   2
Atom   2C    basis set group =>   2
Atom   3O    basis set group =>   3
Atom   4C    basis set group =>   2
Atom   5C    basis set group =>   2
Atom   6C    basis set group =>   2
Atom   7C    basis set group =>   2
Atom   8N    basis set group =>   1
Atom   9H    basis set group =>   4
Atom  10H    basis set group =>   4
Atom  11H    basis set group =>   4
Atom  12H    basis set group =>   4
Atom  13H    basis set group =>   4
Atom  14H    basis set group =>   4
Atom  15H    basis set group =>   4
Atom  16H    basis set group =>   4
Atom  17H    basis set group =>   4
Atom  18H    basis set group =>   4
Atom  19H    basis set group =>   4
Atom  20C    basis set group =>   2
Atom  21N    basis set group =>   1
Atom  22H    basis set group =>   4
Atom  23O    basis set group =>   3
Atom  24C    basis set group =>   2
Atom  25H    basis set group =>   4
Atom  26H    basis set group =>   4
Atom  27H    basis set group =>   4
Atom  28C    basis set group =>   2
Atom  29H    basis set group =>   4
Atom  30H    basis set group =>   4
Atom  31H    basis set group =>   4
---------------------------------
AUXILIARY/J BASIS SET INFORMATION
---------------------------------
There are 4 groups of distinct atoms

 Group   1 Type N   : 12s5p4d2f1g contracted to 6s4p3d1f1g pattern {711111/2111/211/2/1}
 Group   2 Type C   : 12s5p4d2f1g contracted to 6s4p3d1f1g pattern {711111/2111/211/2/1}
 Group   3 Type O   : 12s5p4d2f1g contracted to 6s4p3d1f1g pattern {711111/2111/211/2/1}
 Group   4 Type H   : 5s2p1d contracted to 3s1p1d pattern {311/2/1}

Atom   0N    basis set group =>   1
Atom   1C    basis set group =>   2
Atom   2C    basis set group =>   2
Atom   3O    basis set group =>   3
Atom   4C    basis set group =>   2
Atom   5C    basis set group =>   2
Atom   6C    basis set group =>   2
Atom   7C    basis set group =>   2
Atom   8N    basis set group =>   1
Atom   9H    basis set group =>   4
Atom  10H    basis set group =>   4
Atom  11H    basis set group =>   4
Atom  12H    basis set group =>   4
Atom  13H    basis set group =>   4
Atom  14H    basis set group =>   4
Atom  15H    basis set group =>   4
Atom  16H    basis set group =>   4
Atom  17H    basis set group =>   4
Atom  18H    basis set group =>   4
Atom  19H    basis set group =>   4
Atom  20C    basis set group =>   2
Atom  21N    basis set group =>   1
Atom  22H    basis set group =>   4
Atom  23O    basis set group =>   3
Atom  24C    basis set group =>   2
Atom  25H    basis set group =>   4
Atom  26H    basis set group =>   4
Atom  27H    basis set group =>   4
Atom  28C    basis set group =>   2
Atom  29H    basis set group =>   4
Atom  30H    basis set group =>   4
Atom  31H    basis set group =>   4


           ************************************************************
           *        Program running with 16 parallel MPI-processes    *
           *              working on a common directory               *
           ************************************************************
------------------------------------------------------------------------------
                           ORCA GTO INTEGRAL CALCULATION
                           -- RI-GTO INTEGRALS CHOSEN --
------------------------------------------------------------------------------
------------------------------------------------------------------------------
                   ___                                                        
                  /   \      - P O W E R E D   B Y -                         
                 /     \                                                     
                 |  |  |   _    _      __       _____    __    __             
                 |  |  |  | |  | |    /  \     |  _  \  |  |  /  |          
                  \  \/   | |  | |   /    \    | | | |  |  | /  /          
                 / \  \   | |__| |  /  /\  \   | |_| |  |  |/  /          
                |  |  |   |  __  | /  /__\  \  |    /   |      \           
                |  |  |   | |  | | |   __   |  |    \   |  |\   \          
                \     /   | |  | | |  |  |  |  | |\  \  |  | \   \       
                 \___/    |_|  |_| |__|  |__|  |_| \__\ |__|  \__/        
                                                                              
                      - O R C A' S   B I G   F R I E N D -                    
                                      &                                       
                       - I N T E G R A L  F E E D E R -                       
                                                                              
 v1 FN, 2020, v2 2021                                                         
------------------------------------------------------------------------------


Reading SHARK input file freq.SHARKINP.tmp ... ok
----------------------
SHARK INTEGRAL PACKAGE
----------------------

Number of atoms                             ...     32
Number of basis functions                   ...    542
Number of shells                            ...    226
Maximum angular momentum                    ...      3
Integral batch strategy                     ... SHARK/LIBINT Hybrid
RI-J (if used) integral strategy            ... SPLIT-RIJ (Revised 2003 algorithm where possible)
Printlevel                                  ...      1
Contraction scheme used                     ... SEGMENTED contraction
Coulomb Range Separation                    ... NOT USED
Exchange Range Separation                   ... NOT USED
Finite Nucleus Model                        ... NOT USED
Auxiliary Coulomb fitting basis             ... AVAILABLE
   # of basis functions in Aux-J            ...    884
   # of shells in Aux-J                     ...    300
   Maximum angular momentum in Aux-J        ...      4
Auxiliary J/K fitting basis                 ... NOT available
Auxiliary Correlation fitting basis         ... NOT available
Auxiliary 'external' fitting basis          ... NOT available
Integral threshold                          ...     2.500000e-11
Primitive cut-off                           ...     2.500000e-12
Primitive pair pre-selection threshold      ...     2.500000e-12

Calculating pre-screening integrals         ... done (  0.0 sec) Dimension = 226
Organizing shell pair data                  ... done (  0.1 sec)
Shell pair information
Total number of shell pairs                 ...     25651
Shell pairs after pre-screening             ...     18998
Total number of primitive shell pairs       ...     75828
Primitive shell pairs kept                  ...     39155
          la=0 lb=0:   5682 shell pairs
          la=1 lb=0:   5639 shell pairs
          la=1 lb=1:   1433 shell pairs
          la=2 lb=0:   2527 shell pairs
          la=2 lb=1:   1267 shell pairs
          la=2 lb=2:    303 shell pairs
          la=3 lb=0:   1201 shell pairs
          la=3 lb=1:    603 shell pairs
          la=3 lb=2:    272 shell pairs
          la=3 lb=3:     71 shell pairs

Calculating one electron integrals          ... done (  0.0 sec)
Calculating RI/J V-Matrix + Cholesky decomp.... done (  0.0 sec)
Calculating Nuclear repulsion               ... done (  0.0 sec) ENN=    910.639943920491 Eh

SHARK setup successfully completed in   0.3 seconds

Maximum memory used throughout the entire GTOINT-calculation: 30.7 MB


           ************************************************************
           *        Program running with 16 parallel MPI-processes    *
           *              working on a common directory               *
           ************************************************************
-------------------------------------------------------------------------------
                                 ORCA SCF
-------------------------------------------------------------------------------

------------
SCF SETTINGS
------------
Hamiltonian:
 Density Functional     Method          .... DFT(GTOs)
 Exchange Functional    Exchange        .... M062X
 Correlation Functional Correlation     .... M062X
 Gradients option       PostSCFGGA      .... off
 Hybrid DFT is turned on
   Fraction HF Exchange ScalHFX         ....  0.540000
   Scaling of DF-GGA-X  ScalDFX         ....  0.460000
   Scaling of DF-GGA-C  ScalDFC         ....  1.000000
   Scaling of DF-LDA-C  ScalLDAC        ....  1.000000
   Perturbative correction              ....  0.000000
   Density functional embedding theory  .... OFF
 RI-approximation to the Coulomb term is turned on
   Number of AuxJ basis functions       .... 884
   RIJ-COSX (HFX calculated with COS-X)).... on


General Settings:
 Integral files         IntName         .... freq
 Hartree-Fock type      HFTyp           .... UHF
 Total Charge           Charge          ....    0
 Multiplicity           Mult            ....    2
 Number of Electrons    NEL             ....  109
 Basis Dimension        Dim             ....  542
 Nuclear Repulsion      ENuc            ....    910.6399439205 Eh

Convergence Acceleration:
 DIIS                   CNVDIIS         .... on
   Start iteration      DIISMaxIt       ....    12
   Startup error        DIISStart       ....  0.200000
   # of expansion vecs  DIISMaxEq       ....     5
   Bias factor          DIISBfac        ....   1.050
   Max. coefficient     DIISMaxC        ....  10.000
 Trust-Rad. Augm. Hess. CNVTRAH         .... auto
   Auto Start mean grad. ratio tolernc. ....  1.125000
   Auto Start start iteration           ....    20
   Auto Start num. interpolation iter.  ....    10
   Max. Number of Micro iterations      ....    16
   Max. Number of Macro iterations      .... Maxiter - #DIIS iter
   Number of Davidson start vectors     ....     2
   Converg. threshold I  (grad. norm)   ....   1.000e-05
   Converg. threshold II (energy diff.) ....   1.000e-08
   Grad. Scal. Fac. for Micro threshold ....   0.100
   Minimum threshold for Micro iter.    ....   0.010
   NR start threshold (gradient norm)   ....   0.001
   Initial trust radius                 ....   0.400
   Minimum AH scaling param. (alpha)    ....   1.000
   Maximum AH scaling param. (alpha)    .... 1000.000
   Orbital update algorithm             .... Taylor
   White noise on init. David. guess    .... on
   Maximum white noise                  ....   0.010
   Quad. conv. algorithm                .... NR
 SOSCF                  CNVSOSCF        .... off
 Level Shifting         CNVShift        .... on
   Level shift para.    LevelShift      ....    0.2500
   Turn off err/grad.   ShiftErr        ....    0.0010
 Zerner damping         CNVZerner       .... off
 Static damping         CNVDamp         .... on
   Fraction old density DampFac         ....    0.7000
   Max. Damping (<1)    DampMax         ....    0.9800
   Min. Damping (>=0)   DampMin         ....    0.0000
   Turn off err/grad.   DampErr         ....    0.1000
 Fernandez-Rico         CNVRico         .... off

SCF Procedure:
 Maximum # iterations   MaxIter         ....   125
 SCF integral mode      SCFMode         .... Direct
   Integral package                     .... SHARK and LIBINT hybrid scheme
 Reset frequency        DirectResetFreq ....    20
 Integral Threshold     Thresh          ....  2.500e-11 Eh
 Primitive CutOff       TCut            ....  2.500e-12 Eh

Convergence Tolerance:
 Convergence Check Mode ConvCheckMode   .... Total+1el-Energy
 Convergence forced     ConvForced      .... 0
 Energy Change          TolE            ....  1.000e-08 Eh
 1-El. energy change                    ....  1.000e-05 Eh
 DIIS Error             TolErr          ....  5.000e-07


Diagonalization of the overlap matrix:
Smallest eigenvalue                        ... 4.225e-05
Time for diagonalization                   ...    0.035 sec
Threshold for overlap eigenvalues          ... 1.000e-08
Number of eigenvalues below threshold      ... 0
Time for construction of square roots      ...    0.024 sec
Total time needed                          ...    0.061 sec

Time for model grid setup =    0.107 sec

------------------------------
INITIAL GUESS: MODEL POTENTIAL
------------------------------
Loading Hartree-Fock densities                     ... done
Calculating cut-offs                               ... done
Initializing the effective Hamiltonian             ... done
Setting up the integral package (SHARK)            ... done
Starting the Coulomb interaction                   ... done (   0.1 sec)
Reading the grid                                   ... done
Mapping shells                                     ... done
Starting the XC term evaluation                    ... done (   0.1 sec)
  promolecular density results
     # of electrons  =    108.997822357
     EX              =    -87.252210158
     EC              =     -3.616013977
     EX+EC           =    -90.868224135
Transforming the Hamiltonian                       ... done (   0.0 sec)
Diagonalizing the Hamiltonian                      ... done (   0.0 sec)
Back transforming the eigenvectors                 ... done (   0.0 sec)
Now organizing SCF variables                       ... done
                      ------------------
                      INITIAL GUESS DONE (   0.4 sec)
                      ------------------
-------------------
DFT GRID GENERATION
-------------------

General Integration Accuracy     IntAcc      ... 4.388
Radial Grid Type                 RadialGrid  ... OptM3 with GC (2021)
Angular Grid (max. ang.)         AngularGrid ... 4 (Lebedev-302)
Angular grid pruning method      GridPruning ... 4 (adaptive)
Weight generation scheme         WeightScheme... Becke
Basis function cutoff            BFCut       ... 1.0000e-11
Integration weight cutoff        WCut        ... 1.0000e-14
Angular grids for H and He will be reduced by one unit
Partially contracted basis set               ... off
Rotationally invariant grid construction     ... off

Total number of grid points                  ...   141699
Total number of batches                      ...     2224
Average number of points per batch           ...       63
Average number of grid points per atom       ...     4428
Time for grid setup =    0.586 sec

--------------------
COSX GRID GENERATION
--------------------

GRIDX 1
-------
General Integration Accuracy     IntAcc      ... 3.816
Radial Grid Type                 RadialGrid  ... OptM3 with GC (2021)
Angular Grid (max. ang.)         AngularGrid ... 1 (Lebedev-50)
Angular grid pruning method      GridPruning ... 4 (adaptive)
Weight generation scheme         WeightScheme... Becke
Basis function cutoff            BFCut       ... 1.0000e-11
Integration weight cutoff        WCut        ... 1.0000e-14
Angular grids for H and He will be reduced by one unit
Partially contracted basis set               ... on
Rotationally invariant grid construction     ... off

Total number of grid points                  ...    18099
Total number of batches                      ...      302
Average number of points per batch           ...       59
Average number of grid points per atom       ...      566
UseSFitting                                  ... on

GRIDX 2
-------
General Integration Accuracy     IntAcc      ... 4.020
Radial Grid Type                 RadialGrid  ... OptM3 with GC (2021)
Angular Grid (max. ang.)         AngularGrid ... 2 (Lebedev-110)
Angular grid pruning method      GridPruning ... 4 (adaptive)
Weight generation scheme         WeightScheme... Becke
Basis function cutoff            BFCut       ... 1.0000e-11
Integration weight cutoff        WCut        ... 1.0000e-14
Angular grids for H and He will be reduced by one unit
Partially contracted basis set               ... on
Rotationally invariant grid construction     ... off

Total number of grid points                  ...    38388
Total number of batches                      ...      616
Average number of points per batch           ...       62
Average number of grid points per atom       ...     1200
UseSFitting                                  ... on

GRIDX 3
-------
General Integration Accuracy     IntAcc      ... 4.338
Radial Grid Type                 RadialGrid  ... OptM3 with GC (2021)
Angular Grid (max. ang.)         AngularGrid ... 3 (Lebedev-194)
Angular grid pruning method      GridPruning ... 4 (adaptive)
Weight generation scheme         WeightScheme... Becke
Basis function cutoff            BFCut       ... 1.0000e-11
Integration weight cutoff        WCut        ... 1.0000e-14
Angular grids for H and He will be reduced by one unit
Partially contracted basis set               ... on
Rotationally invariant grid construction     ... off

Total number of grid points                  ...    83740
Total number of batches                      ...     1325
Average number of points per batch           ...       63
Average number of grid points per atom       ...     2617
UseSFitting                                  ... on

Time for X-Grid setup             =    0.855 sec

--------------
SCF ITERATIONS
--------------
ITER       Energy         Delta-E        Max-DP      RMS-DP      [F,P]     Damp
               ***  Starting incremental Fock matrix formation  ***
  0   -667.9312392295   0.000000000000 0.05087640  0.00049837  0.1477467 0.7000
  1   -668.1668002992  -0.235561069679 0.04641551  0.00040293  0.0692349 0.7000
                               ***Turning on DIIS***
  2   -668.2696574815  -0.102857182302 0.07335605  0.00072417  0.0269940 0.0000
  3   -668.4331411218  -0.163483640294 0.04042648  0.00030566  0.0372103 0.0000
  4   -668.4645778463  -0.031436724579 0.01271085  0.00008843  0.0057460 0.0000
  5   -668.4658793031  -0.001301456756 0.00444477  0.00003858  0.0038480 0.0000
  6   -668.4661667928  -0.000287489714 0.00182522  0.00001907  0.0015336 0.0000
  7   -668.4662643319  -0.000097539064 0.00183828  0.00002114  0.0008773 0.0000
               *** Restarting incremental Fock matrix formation ***
                                   *** Resetting DIIS ***
  8   -668.4663727918  -0.000108459950 0.00078304  0.00000910  0.0005002 0.0000
  9   -668.4663814080  -0.000008616195 0.00025280  0.00000289  0.0004249 0.0000
 10   -668.4663852691  -0.000003861095 0.00028063  0.00000398  0.0002144 0.0000
 11   -668.4663880292  -0.000002760139 0.00013371  0.00000108  0.0001219 0.0000
 12   -668.4663883169  -0.000000287626 0.00005852  0.00000063  0.0000945 0.0000
 13   -668.4663884130  -0.000000096144 0.00002379  0.00000020  0.0000291 0.0000
 14   -668.4663884371  -0.000000024064 0.00002038  0.00000017  0.0000170 0.0000
 15   -668.4663884381  -0.000000001057 0.00001276  0.00000012  0.0000068 0.0000
 16   -668.4663884646  -0.000000026501 0.00000624  0.00000005  0.0000040 0.0000
 17   -668.4663884635   0.000000001152 0.00000207  0.00000003  0.0000016 0.0000
                            ***DIIS convergence achieved***

               *****************************************************
               *                     SUCCESS                       *
               *           SCF CONVERGED AFTER  18 CYCLES          *
               *****************************************************

Old exchange energy                            =    -48.245224600 Eh
New exchange energy                            =    -48.245183734 Eh
Exchange energy change after final integration =      0.000040866 Eh
Total energy after final integration           =   -668.466347608 Eh
Final COS-X integration done in                =     5.396 sec

----------------
TOTAL SCF ENERGY
----------------

Total Energy       :         -668.46634761 Eh          -18189.89407 eV

Components:
Nuclear Repulsion  :          910.63994392 Eh           24779.77265 eV
Electronic Energy  :        -1579.10629153 Eh          -42969.66673 eV
One Electron Energy:        -2714.83955331 Eh          -73874.53995 eV
Two Electron Energy:         1135.73326178 Eh           30904.87323 eV
Max COSX asymmetry :            0.00000080 Eh               0.00002 eV

Virial components:
Potential Energy   :        -1333.26173014 Eh          -36279.89611 eV
Kinetic Energy     :          664.79538253 Eh           18090.00204 eV
Virial Ratio       :            2.00552195


DFT components:
N(Alpha)           :       55.000190975260 electrons
N(Beta)            :       54.000189435814 electrons
N(Total)           :      109.000380411073 electrons
E(XC)              :      -45.014820178990 Eh       
DFET-embed. en.    :        0.000000000000 Eh       

---------------
SCF CONVERGENCE
---------------

  Last Energy change         ...   -1.0904e-08  Tolerance :   1.0000e-08
  Last MAX-Density change    ...    0.0000e+00  Tolerance :   1.0000e-07
  Last RMS-Density change    ...    0.0000e+00  Tolerance :   5.0000e-09
  Last DIIS Error            ...    7.6542e-07  Tolerance :   5.0000e-07

             **** THE GBW FILE WAS UPDATED (freq.gbw) ****
             **** DENSITY freq.scfp WAS UPDATED ****
             **** ENERGY FILE WAS UPDATED (freq.en.tmp) ****
----------------------
UHF SPIN CONTAMINATION
----------------------

Warning: in a DFT calculation there is little theoretical justification to 
         calculate <S**2> as in Hartree-Fock theory. We will do it anyways
         but you should keep in mind that the values have only limited relevance

Expectation value of <S**2>     :     0.757607
Ideal value S*(S+1) for S=0.5   :     0.750000
Deviation                       :     0.007607

             **** THE GBW FILE WAS UPDATED (freq.gbw) ****
             **** DENSITY freq.scfp WAS UPDATED ****
----------------
ORBITAL ENERGIES
----------------
                 SPIN UP ORBITALS
  NO   OCC          E(Eh)            E(eV) 
   0   1.0000     -19.605762      -533.4999 
   1   1.0000     -19.594121      -533.1832 
   2   1.0000     -14.800336      -402.7376 
   3   1.0000     -14.778531      -402.1443 
   4   1.0000     -14.726190      -400.7200 
   5   1.0000     -10.659464      -290.0588 
   6   1.0000     -10.648368      -289.7568 
   7   1.0000     -10.603015      -288.5227 
   8   1.0000     -10.572295      -287.6868 
   9   1.0000     -10.558915      -287.3227 
  10   1.0000     -10.553086      -287.1641 
  11   1.0000     -10.549729      -287.0727 
  12   1.0000     -10.540797      -286.8297 
  13   1.0000     -10.532686      -286.6089 
  14   1.0000      -1.170424       -31.8489 
  15   1.0000      -1.155976       -31.4557 
  16   1.0000      -1.058112       -28.7927 
  17   1.0000      -1.032827       -28.1046 
  18   1.0000      -0.985088       -26.8056 
  19   1.0000      -0.910308       -24.7708 
  20   1.0000      -0.866338       -23.5743 
  21   1.0000      -0.831424       -22.6242 
  22   1.0000      -0.805184       -21.9102 
  23   1.0000      -0.766747       -20.8642 
  24   1.0000      -0.718443       -19.5498 
  25   1.0000      -0.681497       -18.5445 
  26   1.0000      -0.669664       -18.2225 
  27   1.0000      -0.644959       -17.5502 
  28   1.0000      -0.632640       -17.2150 
  29   1.0000      -0.567183       -15.4338 
  30   1.0000      -0.561658       -15.2835 
  31   1.0000      -0.551495       -15.0069 
  32   1.0000      -0.545003       -14.8303 
  33   1.0000      -0.534745       -14.5511 
  34   1.0000      -0.531461       -14.4618 
  35   1.0000      -0.525469       -14.2987 
  36   1.0000      -0.516164       -14.0455 
  37   1.0000      -0.497831       -13.5467 
  38   1.0000      -0.490042       -13.3347 
  39   1.0000      -0.478851       -13.0302 
  40   1.0000      -0.473881       -12.8950 
  41   1.0000      -0.472514       -12.8578 
  42   1.0000      -0.460703       -12.5364 
  43   1.0000      -0.450885       -12.2692 
  44   1.0000      -0.448447       -12.2029 
  45   1.0000      -0.426206       -11.5977 
  46   1.0000      -0.407982       -11.1017 
  47   1.0000      -0.404025       -10.9941 
  48   1.0000      -0.392374       -10.6770 
  49   1.0000      -0.384414       -10.4604 
  50   1.0000      -0.349334        -9.5059 
  51   1.0000      -0.342873        -9.3301 
  52   1.0000      -0.333109        -9.0644 
  53   1.0000      -0.310786        -8.4569 
  54   1.0000      -0.231011        -6.2861 
  55   0.0000       0.042425         1.1544 
  56   0.0000       0.044764         1.2181 
  57   0.0000       0.064442         1.7536 
  58   0.0000       0.069349         1.8871 
  59   0.0000       0.083600         2.2749 
  60   0.0000       0.093066         2.5325 
  61   0.0000       0.101988         2.7752 
  62   0.0000       0.105929         2.8825 
  63   0.0000       0.112508         3.0615 
  64   0.0000       0.116279         3.1641 
  65   0.0000       0.127579         3.4716 
  66   0.0000       0.130178         3.5423 
  67   0.0000       0.140681         3.8281 
  68   0.0000       0.150045         4.0829 
  69   0.0000       0.151998         4.1361 
  70   0.0000       0.154160         4.1949 
  71   0.0000       0.158048         4.3007 
  72   0.0000       0.161844         4.4040 
  73   0.0000       0.165574         4.5055 
  74   0.0000       0.174982         4.7615 
  75   0.0000       0.183006         4.9799 
  76   0.0000       0.185686         5.0528 
  77   0.0000       0.190085         5.1725 
  78   0.0000       0.202351         5.5063 
  79   0.0000       0.216294         5.8857 
  80   0.0000       0.222656         6.0588 
  81   0.0000       0.231760         6.3065 
  82   0.0000       0.234573         6.3830 
  83   0.0000       0.240260         6.5378 
  84   0.0000       0.250585         6.8188 
  85   0.0000       0.254254         6.9186 
  86   0.0000       0.261022         7.1028 
  87   0.0000       0.267034         7.2664 
  88   0.0000       0.271724         7.3940 
  89   0.0000       0.281275         7.6539 
  90   0.0000       0.291858         7.9419 
  91   0.0000       0.296311         8.0630 
  92   0.0000       0.302756         8.2384 
  93   0.0000       0.304449         8.2845 
  94   0.0000       0.321607         8.7514 
  95   0.0000       0.324487         8.8298 
  96   0.0000       0.332736         9.0542 
  97   0.0000       0.341356         9.2888 
  98   0.0000       0.344062         9.3624 
  99   0.0000       0.356071         9.6892 
 100   0.0000       0.364855         9.9282 
 101   0.0000       0.373364        10.1598 
 102   0.0000       0.388169        10.5626 
 103   0.0000       0.392027        10.6676 
 104   0.0000       0.400993        10.9116 
 105   0.0000       0.406478        11.0608 
 106   0.0000       0.415163        11.2972 
 107   0.0000       0.418892        11.3986 
 108   0.0000       0.423866        11.5340 
 109   0.0000       0.430062        11.7026 
 110   0.0000       0.432133        11.7589 
 111   0.0000       0.435939        11.8625 
 112   0.0000       0.439636        11.9631 
 113   0.0000       0.451886        12.2964 
 114   0.0000       0.454155        12.3582 
 115   0.0000       0.457681        12.4541 
 116   0.0000       0.474021        12.8988 
 117   0.0000       0.479727        13.0540 
 118   0.0000       0.482668        13.1341 
 119   0.0000       0.486346        13.2341 
 120   0.0000       0.492564        13.4034 
 121   0.0000       0.496003        13.4969 
 122   0.0000       0.500756        13.6263 
 123   0.0000       0.503252        13.6942 
 124   0.0000       0.509600        13.8669 
 125   0.0000       0.512941        13.9578 
 126   0.0000       0.519543        14.1375 
 127   0.0000       0.525124        14.2893 
 128   0.0000       0.528524        14.3819 
 129   0.0000       0.537013        14.6129 
 130   0.0000       0.542615        14.7653 
 131   0.0000       0.551470        15.0062 
 132   0.0000       0.555445        15.1144 
 133   0.0000       0.560570        15.2539 
 134   0.0000       0.569615        15.5000 
 135   0.0000       0.579278        15.7630 
 136   0.0000       0.580206        15.7882 
 137   0.0000       0.591076        16.0840 
 138   0.0000       0.594170        16.1682 
 139   0.0000       0.605225        16.4690 
 140   0.0000       0.617155        16.7936 
 141   0.0000       0.621758        16.9189 
 142   0.0000       0.626370        17.0444 
 143   0.0000       0.633566        17.2402 
 144   0.0000       0.647716        17.6253 
 145   0.0000       0.649335        17.6693 
 146   0.0000       0.654852        17.8194 
 147   0.0000       0.665804        18.1174 
 148   0.0000       0.668711        18.1965 
 149   0.0000       0.688464        18.7341 
 150   0.0000       0.690842        18.7988 
 151   0.0000       0.708905        19.2903 
 152   0.0000       0.712153        19.3787 
 153   0.0000       0.714364        19.4388 
 154   0.0000       0.732229        19.9250 
 155   0.0000       0.738430        20.0937 
 156   0.0000       0.752686        20.4816 
 157   0.0000       0.776223        21.1221 
 158   0.0000       0.779390        21.2083 
 159   0.0000       0.787817        21.4376 
 160   0.0000       0.792925        21.5766 
 161   0.0000       0.821900        22.3650 
 162   0.0000       0.837295        22.7839 
 163   0.0000       0.847382        23.0584 
 164   0.0000       0.860081        23.4040 
 165   0.0000       0.873411        23.7667 
 166   0.0000       0.880609        23.9626 
 167   0.0000       0.891649        24.2630 
 168   0.0000       0.893969        24.3261 
 169   0.0000       0.906283        24.6612 
 170   0.0000       0.918437        24.9919 
 171   0.0000       0.929983        25.3061 
 172   0.0000       0.944372        25.6977 
 173   0.0000       0.951099        25.8807 
 174   0.0000       0.973718        26.4962 
 175   0.0000       0.979445        26.6520 
 176   0.0000       0.981093        26.6969 
 177   0.0000       0.994516        27.0621 
 178   0.0000       1.001442        27.2506 
 179   0.0000       1.017686        27.6926 
 180   0.0000       1.028132        27.9769 
 181   0.0000       1.033476        28.1223 
 182   0.0000       1.047634        28.5076 
 183   0.0000       1.064378        28.9632 
 184   0.0000       1.072827        29.1931 
 185   0.0000       1.085594        29.5405 
 186   0.0000       1.096683        29.8423 
 187   0.0000       1.118492        30.4357 
 188   0.0000       1.128105        30.6973 
 189   0.0000       1.141144        31.0521 
 190   0.0000       1.143282        31.1103 
 191   0.0000       1.169107        31.8130 
 192   0.0000       1.179296        32.0903 
 193   0.0000       1.180251        32.1163 
 194   0.0000       1.207154        32.8483 
 195   0.0000       1.218272        33.1509 
 196   0.0000       1.245176        33.8830 
 197   0.0000       1.253158        34.1002 
 198   0.0000       1.270972        34.5849 
 199   0.0000       1.276972        34.7482 
 200   0.0000       1.297708        35.3124 
 201   0.0000       1.322246        35.9801 
 202   0.0000       1.327785        36.1309 
 203   0.0000       1.333658        36.2907 
 204   0.0000       1.351496        36.7761 
 205   0.0000       1.368918        37.2501 
 206   0.0000       1.375989        37.4426 
 207   0.0000       1.397629        38.0314 
 208   0.0000       1.401079        38.1253 
 209   0.0000       1.405633        38.2492 
 210   0.0000       1.410940        38.3936 
 211   0.0000       1.438812        39.1521 
 212   0.0000       1.444515        39.3073 
 213   0.0000       1.454064        39.5671 
 214   0.0000       1.488571        40.5061 
 215   0.0000       1.494389        40.6644 
 216   0.0000       1.499994        40.8169 
 217   0.0000       1.510665        41.1073 
 218   0.0000       1.517591        41.2957 
 219   0.0000       1.532839        41.7107 
 220   0.0000       1.547461        42.1085 
 221   0.0000       1.548933        42.1486 
 222   0.0000       1.559455        42.4349 
 223   0.0000       1.568269        42.6748 
 224   0.0000       1.568981        42.6941 
 225   0.0000       1.574458        42.8432 
 226   0.0000       1.594593        43.3911 
 227   0.0000       1.598385        43.4943 
 228   0.0000       1.600016        43.5386 
 229   0.0000       1.604488        43.6603 
 230   0.0000       1.615038        43.9474 
 231   0.0000       1.620297        44.0905 
 232   0.0000       1.631814        44.4039 
 233   0.0000       1.634108        44.4663 
 234   0.0000       1.645019        44.7633 
 235   0.0000       1.656753        45.0825 
 236   0.0000       1.670477        45.4560 
 237   0.0000       1.684291        45.8319 
 238   0.0000       1.689061        45.9617 
 239   0.0000       1.695912        46.1481 
 240   0.0000       1.709736        46.5243 
 241   0.0000       1.741562        47.3903 
 242   0.0000       1.756947        47.8090 
 243   0.0000       1.762076        47.9485 
 244   0.0000       1.779132        48.4126 
 245   0.0000       1.787229        48.6330 
 246   0.0000       1.804556        49.1045 
 247   0.0000       1.808380        49.2085 
 248   0.0000       1.815971        49.4151 
 249   0.0000       1.825998        49.6879 
 250   0.0000       1.835518        49.9470 
 251   0.0000       1.861913        50.6652 
 252   0.0000       1.867724        50.8234 
 253   0.0000       1.875059        51.0229 
 254   0.0000       1.882101        51.2146 
 255   0.0000       1.891945        51.4824 
 256   0.0000       1.896555        51.6079 
 257   0.0000       1.908311        51.9278 
 258   0.0000       1.920028        52.2466 
 259   0.0000       1.928955        52.4895 
 260   0.0000       1.936309        52.6896 
 261   0.0000       1.956600        53.2418 
 262   0.0000       1.961639        53.3789 
 263   0.0000       1.971283        53.6413 
 264   0.0000       1.977818        53.8192 
 265   0.0000       1.988546        54.1111 
 266   0.0000       2.000408        54.4339 
 267   0.0000       2.013546        54.7914 
 268   0.0000       2.026198        55.1357 
 269   0.0000       2.036671        55.4206 
 270   0.0000       2.038190        55.4620 
 271   0.0000       2.051232        55.8169 
 272   0.0000       2.065206        56.1971 
 273   0.0000       2.076311        56.4993 
 274   0.0000       2.091868        56.9226 
 275   0.0000       2.107304        57.3427 
 276   0.0000       2.112989        57.4974 
 277   0.0000       2.133635        58.0591 
 278   0.0000       2.140201        58.2378 
 279   0.0000       2.149274        58.4847 
 280   0.0000       2.165826        58.9351 
 281   0.0000       2.175316        59.1933 
 282   0.0000       2.190142        59.5968 
 283   0.0000       2.207119        60.0588 
 284   0.0000       2.225817        60.5676 
 285   0.0000       2.238377        60.9093 
 286   0.0000       2.259293        61.4785 
 287   0.0000       2.263099        61.5821 
 288   0.0000       2.271916        61.8220 
 289   0.0000       2.285691        62.1968 
 290   0.0000       2.300671        62.6044 
 291   0.0000       2.309667        62.8492 
 292   0.0000       2.318751        63.0964 
 293   0.0000       2.333236        63.4906 
 294   0.0000       2.343100        63.7590 
 295   0.0000       2.358025        64.1651 
 296   0.0000       2.362937        64.2988 
 297   0.0000       2.376246        64.6609 
 298   0.0000       2.385565        64.9145 
 299   0.0000       2.388522        64.9950 
 300   0.0000       2.397420        65.2371 
 301   0.0000       2.423217        65.9391 
 302   0.0000       2.430423        66.1352 
 303   0.0000       2.441037        66.4240 
 304   0.0000       2.444137        66.5084 
 305   0.0000       2.468642        67.1752 
 306   0.0000       2.485467        67.6330 
 307   0.0000       2.498010        67.9743 
 308   0.0000       2.506457        68.2042 
 309   0.0000       2.520060        68.5743 
 310   0.0000       2.526656        68.7538 
 311   0.0000       2.534997        68.9808 
 312   0.0000       2.548544        69.3494 
 313   0.0000       2.550993        69.4160 
 314   0.0000       2.566090        69.8268 
 315   0.0000       2.568518        69.8929 
 316   0.0000       2.571354        69.9701 
 317   0.0000       2.586556        70.3838 
 318   0.0000       2.595723        70.6332 
 319   0.0000       2.611127        71.0524 
 320   0.0000       2.616635        71.2023 
 321   0.0000       2.623123        71.3788 
 322   0.0000       2.626333        71.4662 
 323   0.0000       2.648187        72.0608 
 324   0.0000       2.655463        72.2588 
 325   0.0000       2.663572        72.4795 
 326   0.0000       2.666891        72.5698 
 327   0.0000       2.677269        72.8522 
 328   0.0000       2.687938        73.1425 
 329   0.0000       2.706368        73.6440 
 330   0.0000       2.720388        74.0255 
 331   0.0000       2.739181        74.5369 
 332   0.0000       2.742214        74.6194 
 333   0.0000       2.748367        74.7869 
 334   0.0000       2.753693        74.9318 
 335   0.0000       2.761413        75.1419 
 336   0.0000       2.775157        75.5159 
 337   0.0000       2.788028        75.8661 
 338   0.0000       2.795487        76.0691 
 339   0.0000       2.812140        76.5222 
 340   0.0000       2.826726        76.9191 
 341   0.0000       2.836386        77.1820 
 342   0.0000       2.843711        77.3813 
 343   0.0000       2.865592        77.9767 
 344   0.0000       2.870874        78.1204 
 345   0.0000       2.876359        78.2697 
 346   0.0000       2.911823        79.2347 
 347   0.0000       2.921880        79.5084 
 348   0.0000       2.930537        79.7440 
 349   0.0000       2.941061        80.0303 
 350   0.0000       2.959499        80.5321 
 351   0.0000       2.965852        80.7049 
 352   0.0000       2.992038        81.4175 
 353   0.0000       2.998023        81.5804 
 354   0.0000       3.004680        81.7615 
 355   0.0000       3.028365        82.4060 
 356   0.0000       3.037187        82.6461 
 357   0.0000       3.053781        83.0976 
 358   0.0000       3.064030        83.3765 
 359   0.0000       3.090472        84.0960 
 360   0.0000       3.095619        84.2361 
 361   0.0000       3.103835        84.4597 
 362   0.0000       3.107875        84.5696 
 363   0.0000       3.115656        84.7813 
 364   0.0000       3.121167        84.9313 
 365   0.0000       3.139936        85.4420 
 366   0.0000       3.145459        85.5923 
 367   0.0000       3.156107        85.8820 
 368   0.0000       3.159900        85.9852 
 369   0.0000       3.167189        86.1836 
 370   0.0000       3.178311        86.4862 
 371   0.0000       3.192658        86.8766 
 372   0.0000       3.203319        87.1668 
 373   0.0000       3.212083        87.4052 
 374   0.0000       3.219925        87.6186 
 375   0.0000       3.234082        88.0038 
 376   0.0000       3.245962        88.3271 
 377   0.0000       3.249793        88.4314 
 378   0.0000       3.253961        88.5448 
 379   0.0000       3.263894        88.8151 
 380   0.0000       3.281714        89.3000 
 381   0.0000       3.290682        89.5440 
 382   0.0000       3.301564        89.8401 
 383   0.0000       3.306965        89.9871 
 384   0.0000       3.311631        90.1141 
 385   0.0000       3.318610        90.3040 
 386   0.0000       3.325885        90.5019 
 387   0.0000       3.337122        90.8077 
 388   0.0000       3.339923        90.8839 
 389   0.0000       3.357997        91.3758 
 390   0.0000       3.361014        91.4578 
 391   0.0000       3.370869        91.7260 
 392   0.0000       3.378388        91.9306 
 393   0.0000       3.391402        92.2847 
 394   0.0000       3.398737        92.4843 
 395   0.0000       3.406731        92.7019 
 396   0.0000       3.419358        93.0455 
 397   0.0000       3.437172        93.5302 
 398   0.0000       3.444584        93.7319 
 399   0.0000       3.450747        93.8996 
 400   0.0000       3.465956        94.3134 
 401   0.0000       3.478367        94.6512 
 402   0.0000       3.492607        95.0387 
 403   0.0000       3.509505        95.4985 
 404   0.0000       3.514793        95.6424 
 405   0.0000       3.523967        95.8920 
 406   0.0000       3.533295        96.1458 
 407   0.0000       3.551458        96.6401 
 408   0.0000       3.555793        96.7580 
 409   0.0000       3.588804        97.6563 
 410   0.0000       3.592692        97.7621 
 411   0.0000       3.603299        98.0508 
 412   0.0000       3.620915        98.5301 
 413   0.0000       3.631748        98.8249 
 414   0.0000       3.658704        99.5584 
 415   0.0000       3.679080       100.1129 
 416   0.0000       3.710013       100.9546 
 417   0.0000       3.729417       101.4826 
 418   0.0000       3.736562       101.6770 
 419   0.0000       3.764952       102.4496 
 420   0.0000       3.777237       102.7839 
 421   0.0000       3.793372       103.2229 
 422   0.0000       3.806747       103.5868 
 423   0.0000       3.820066       103.9493 
 424   0.0000       3.842083       104.5484 
 425   0.0000       3.849546       104.7515 
 426   0.0000       3.857545       104.9691 
 427   0.0000       3.871845       105.3583 
 428   0.0000       3.886725       105.7632 
 429   0.0000       3.892582       105.9226 
 430   0.0000       3.902118       106.1820 
 431   0.0000       3.918118       106.6174 
 432   0.0000       3.941921       107.2651 
 433   0.0000       3.975481       108.1783 
 434   0.0000       3.993833       108.6777 
 435   0.0000       4.019061       109.3642 
 436   0.0000       4.040194       109.9393 
 437   0.0000       4.059469       110.4638 
 438   0.0000       4.082280       111.0845 
 439   0.0000       4.088675       111.2585 
 440   0.0000       4.128127       112.3320 
 441   0.0000       4.138978       112.6273 
 442   0.0000       4.158786       113.1663 
 443   0.0000       4.167579       113.4056 
 444   0.0000       4.213547       114.6564 
 445   0.0000       4.231040       115.1324 
 446   0.0000       4.240162       115.3807 
 447   0.0000       4.265877       116.0804 
 448   0.0000       4.284501       116.5872 
 449   0.0000       4.322795       117.6292 
 450   0.0000       4.340824       118.1198 
 451   0.0000       4.350136       118.3732 
 452   0.0000       4.365535       118.7922 
 453   0.0000       4.388052       119.4050 
 454   0.0000       4.411003       120.0295 
 455   0.0000       4.414011       120.1113 
 456   0.0000       4.440960       120.8447 
 457   0.0000       4.473131       121.7201 
 458   0.0000       4.501919       122.5034 
 459   0.0000       4.518166       122.9455 
 460   0.0000       4.531041       123.2959 
 461   0.0000       4.560526       124.0982 
 462   0.0000       4.567449       124.2866 
 463   0.0000       4.576782       124.5406 
 464   0.0000       4.625185       125.8577 
 465   0.0000       4.648662       126.4965 
 466   0.0000       4.687658       127.5576 
 467   0.0000       4.698843       127.8620 
 468   0.0000       4.709505       128.1521 
 469   0.0000       4.724543       128.5613 
 470   0.0000       4.735638       128.8633 
 471   0.0000       4.749735       129.2469 
 472   0.0000       4.778902       130.0405 
 473   0.0000       4.788967       130.3144 
 474   0.0000       4.813962       130.9946 
 475   0.0000       4.835319       131.5757 
 476   0.0000       4.853373       132.0670 
 477   0.0000       4.884240       132.9069 
 478   0.0000       4.958401       134.9249 
 479   0.0000       4.978895       135.4826 
 480   0.0000       5.014174       136.4426 
 481   0.0000       5.029156       136.8503 
 482   0.0000       5.057467       137.6207 
 483   0.0000       5.058593       137.6513 
 484   0.0000       5.075945       138.1235 
 485   0.0000       5.096138       138.6730 
 486   0.0000       5.103789       138.8812 
 487   0.0000       5.111357       139.0871 
 488   0.0000       5.129410       139.5783 
 489   0.0000       5.156701       140.3210 
 490   0.0000       5.197600       141.4339 
 491   0.0000       5.237530       142.5204 
 492   0.0000       5.246933       142.7763 
 493   0.0000       5.266122       143.2985 
 494   0.0000       5.272770       143.4794 
 495   0.0000       5.277102       143.5972 
 496   0.0000       5.289767       143.9419 
 497   0.0000       5.320516       144.7786 
 498   0.0000       5.385349       146.5428 
 499   0.0000       5.407332       147.1410 
 500   0.0000       5.476033       149.0104 
 501   0.0000       5.513134       150.0200 
 502   0.0000       5.525188       150.3480 
 503   0.0000       5.565876       151.4552 
 504   0.0000       5.615760       152.8126 
 505   0.0000       5.665392       154.1631 
 506   0.0000       5.671767       154.3366 
 507   0.0000       5.734566       156.0455 
 508   0.0000       5.790787       157.5753 
 509   0.0000       5.831764       158.6904 
 510   0.0000       5.886127       160.1697 
 511   0.0000       5.979942       162.7225 
 512   0.0000       6.049429       164.6133 
 513   0.0000       6.073819       165.2770 
 514   0.0000       6.276730       170.7985 
 515   0.0000       6.302466       171.4988 
 516   0.0000       6.397257       174.0782 
 517   0.0000       6.410651       174.4427 
 518   0.0000       6.547683       178.1715 
 519   0.0000       6.583932       179.1579 
 520   0.0000       6.653135       181.0410 
 521   0.0000       6.719443       182.8453 
 522   0.0000       6.812440       185.3759 
 523   0.0000       6.821784       185.6302 
 524   0.0000       7.045893       191.7285 
 525   0.0000       7.062353       192.1764 
 526   0.0000       7.069132       192.3609 
 527   0.0000       7.141893       194.3408 
 528   0.0000      22.400850       609.5581 
 529   0.0000      22.463128       611.2528 
 530   0.0000      22.476093       611.6056 
 531   0.0000      22.547661       613.5531 
 532   0.0000      22.570715       614.1804 
 533   0.0000      22.650529       616.3522 
 534   0.0000      22.999723       625.8543 
 535   0.0000      23.343381       635.2057 
 536   0.0000      23.369311       635.9113 
 537   0.0000      32.047513       872.0572 
 538   0.0000      32.522114       884.9717 
 539   0.0000      32.735527       890.7790 
 540   0.0000      44.057830      1198.8745 
 541   0.0000      44.130526      1200.8527 

                 SPIN DOWN ORBITALS
  NO   OCC          E(Eh)            E(eV) 
   0   1.0000     -19.603857      -533.4481 
   1   1.0000     -19.592117      -533.1286 
   2   1.0000     -14.799443      -402.7133 
   3   1.0000     -14.777535      -402.1172 
   4   1.0000     -14.726173      -400.7195 
   5   1.0000     -10.659479      -290.0592 
   6   1.0000     -10.648811      -289.7689 
   7   1.0000     -10.598135      -288.3899 
   8   1.0000     -10.572355      -287.6884 
   9   1.0000     -10.558899      -287.3223 
  10   1.0000     -10.553552      -287.1767 
  11   1.0000     -10.549790      -287.0744 
  12   1.0000     -10.540101      -286.8107 
  13   1.0000     -10.532638      -286.6076 
  14   1.0000      -1.165112       -31.7043 
  15   1.0000      -1.150926       -31.3183 
  16   1.0000      -1.049956       -28.5707 
  17   1.0000      -1.028647       -27.9909 
  18   1.0000      -0.985001       -26.8032 
  19   1.0000      -0.904435       -24.6109 
  20   1.0000      -0.860552       -23.4168 
  21   1.0000      -0.829060       -22.5599 
  22   1.0000      -0.803838       -21.8735 
  23   1.0000      -0.759163       -20.6579 
  24   1.0000      -0.715996       -19.4832 
  25   1.0000      -0.678627       -18.4664 
  26   1.0000      -0.668704       -18.1964 
  27   1.0000      -0.640075       -17.4173 
  28   1.0000      -0.628133       -17.0924 
  29   1.0000      -0.565039       -15.3755 
  30   1.0000      -0.560867       -15.2620 
  31   1.0000      -0.546449       -14.8696 
  32   1.0000      -0.534620       -14.5477 
  33   1.0000      -0.532276       -14.4840 
  34   1.0000      -0.525701       -14.3051 
  35   1.0000      -0.520661       -14.1679 
  36   1.0000      -0.514804       -14.0085 
  37   1.0000      -0.494216       -13.4483 
  38   1.0000      -0.484500       -13.1839 
  39   1.0000      -0.472799       -12.8655 
  40   1.0000      -0.471405       -12.8276 
  41   1.0000      -0.467620       -12.7246 
  42   1.0000      -0.459481       -12.5031 
[...]
     62       0.000004  -0.000562   0.000003  -0.000121   0.000001   0.000027
     63      -0.000797   0.000011  -0.000001   0.000221  -0.000004   0.068106
     64       0.001277  -0.000048   0.000001  -0.000107   0.000003   0.007628
     65       0.000344  -0.000019   0.000001  -0.000183   0.000001  -0.026256
     66       0.012860   0.000109   0.000089   0.002071   0.000002  -0.928527
     67      -0.003758  -0.000025   0.000013  -0.000974  -0.000023  -0.104490
     68      -0.003003  -0.000042  -0.000031  -0.001001  -0.000011   0.348196
     69      -0.000029   0.000462  -0.000007  -0.001283  -0.000003   0.000131
     70      -0.000017   0.000366   0.000003  -0.001121  -0.000009   0.000049
     71       0.000005   0.000033   0.000008   0.000148   0.000002  -0.000050
     72      -0.000402  -0.065920  -0.000016   0.000347   0.000005  -0.000002
     73      -0.000355  -0.062819  -0.000003   0.000301   0.000001  -0.000011
     74      -0.000159  -0.022152  -0.000000  -0.000134   0.000002  -0.000012
     75       0.001987   0.321439  -0.000024  -0.000122   0.000005   0.000028
     76       0.002372   0.384372  -0.000000  -0.001061  -0.000004   0.000089
     77       0.003316   0.540860  -0.000001  -0.001138  -0.000010   0.000130
     78       0.000028  -0.014024  -0.000010   0.000583   0.000012  -0.000071
     79      -0.000228  -0.010352  -0.000005  -0.000821  -0.000004   0.000082
     80       0.000115  -0.007959   0.000003   0.000125   0.000005  -0.000022
     81       0.002817   0.480592  -0.000012  -0.005228  -0.000005   0.000041
     82       0.002290   0.384281  -0.000005  -0.006689  -0.000006  -0.000017
     83      -0.001535  -0.261732  -0.000005   0.001513   0.000006  -0.000049
     84       0.074664  -0.000431   0.000007  -0.000020  -0.000005   0.000111
     85      -0.040804   0.000240   0.000001   0.000059  -0.000002  -0.001765
     86      -0.040036   0.000225  -0.000004   0.000021  -0.000001   0.000120
     87      -0.455685   0.002688   0.000015   0.000019   0.000001  -0.008832
     88       0.004616  -0.000055   0.000001   0.000139   0.000006  -0.002646
     89      -0.168185   0.000988  -0.000006   0.000251   0.000000  -0.002423
     90      -0.457211   0.002818   0.000012   0.000355  -0.000011  -0.004380
     91       0.527320  -0.003249  -0.000001  -0.000146   0.000009   0.006226
     92       0.489188  -0.002999  -0.000005  -0.000279   0.000006   0.003926
     93       0.020510  -0.000121   0.000004  -0.000217  -0.000002  -0.000430
     94      -0.060370   0.000280   0.000002   0.000128   0.000006  -0.003657
     95       0.156493  -0.000755  -0.000011   0.000011  -0.000008   0.003873


-----------
IR SPECTRUM
-----------

 Mode   freq       eps      Int      T**2         TX        TY        TZ
       cm**-1   L/(mol*cm) km/mol    a.u.
----------------------------------------------------------------------------
  6:     21.47   0.000164    0.83  0.002381  (-0.019050 -0.031182  0.032333)
  7:     49.79   0.000111    0.56  0.000695  ( 0.018826 -0.014828  0.011006)
  8:     61.24   0.000085    0.43  0.000434  ( 0.006756  0.012177 -0.015495)
  9:     74.67   0.000544    2.75  0.002275  ( 0.018422  0.028529  0.033488)
 10:     84.64   0.003853   19.47  0.014206  ( 0.050698 -0.047409  0.096894)
 11:    112.68   0.000215    1.08  0.000594  (-0.007302  0.018674 -0.013858)
 12:    120.54   0.000850    4.30  0.002201  (-0.007154 -0.013320 -0.044413)
 13:    126.91   0.001291    6.52  0.003174  (-0.008913 -0.055622 -0.001093)
 14:    135.39   0.000572    2.89  0.001318  (-0.007050 -0.010932 -0.033887)
 15:    144.26   0.000050    0.25  0.000109  (-0.004485 -0.009345  0.001118)
 16:    161.55   0.001402    7.09  0.002709  (-0.014408 -0.012931 -0.048310)
 17:    174.03   0.000107    0.54  0.000192  ( 0.009774 -0.003074 -0.009320)
 18:    221.08   0.000488    2.47  0.000689  ( 0.008746  0.017281  0.017728)
 19:    262.55   0.007834   39.59  0.009312  (-0.065323  0.070955 -0.003177)
 20:    267.99   0.003732   18.86  0.004346  ( 0.035448 -0.000020  0.055581)
 21:    302.06   0.002954   14.93  0.003052  (-0.001484  0.025411  0.049027)
 22:    316.79   0.001587    8.02  0.001563  ( 0.007999  0.004790  0.038423)
 23:    348.10   0.004190   21.17  0.003756  (-0.023845 -0.013971 -0.054702)
 24:    383.84   0.002503   12.65  0.002035  ( 0.013331 -0.014249  0.040669)
 25:    390.98   0.002491   12.59  0.001988  ( 0.010434 -0.043336  0.001165)
 26:    419.05   0.003225   16.30  0.002402  (-0.012139 -0.004725  0.047246)
 27:    496.59   0.002754   13.92  0.001731  ( 0.041222 -0.001449  0.005416)
 28:    532.66   0.003130   15.82  0.001834  ( 0.022719 -0.027098 -0.024150)
 29:    608.71   0.001597    8.07  0.000819  (-0.011324  0.024561 -0.009334)
 30:    626.05   0.001604    8.10  0.000799  (-0.005205 -0.015343 -0.023169)
 31:    718.29   0.000858    4.34  0.000373  ( 0.009769 -0.016570 -0.001701)
 32:    747.04   0.001334    6.74  0.000557  (-0.009850 -0.004936 -0.020879)
 33:    750.78   0.001723    8.71  0.000716  (-0.020835  0.013997 -0.009276)
 34:    763.83   0.008888   44.92  0.003631  (-0.033716  0.007052 -0.049445)
 35:    798.08   0.001699    8.59  0.000664  (-0.010278  0.001360  0.023601)
 36:    853.80   0.025210  127.40  0.009214  (-0.049837  0.029630  0.076502)
 37:    862.66   0.000551    2.78  0.000199  ( 0.006712  0.010868  0.006008)
 38:    935.56   0.003315   16.75  0.001106  ( 0.021084 -0.004340 -0.025345)
 39:    944.85   0.000493    2.49  0.000163  (-0.011537  0.004614  0.002913)
 40:    993.26   0.000478    2.42  0.000150  ( 0.007755  0.003901 -0.008650)
 41:   1023.50   0.003462   17.50  0.001056  (-0.003189  0.030903  0.009516)
 42:   1038.65   0.000691    3.49  0.000208  ( 0.009731  0.009248 -0.005229)
 43:   1057.07   0.001601    8.09  0.000473  (-0.013399  0.013137 -0.010983)
 44:   1072.44   0.000441    2.23  0.000128  (-0.006530  0.002070  0.009023)
 45:   1076.14   0.000174    0.88  0.000051  (-0.006964 -0.001168  0.000838)
 46:   1105.57   0.001441    7.28  0.000407  (-0.012998  0.007754  0.013334)
 47:   1117.97   0.002090   10.56  0.000583  ( 0.021572  0.010655  0.002126)
 48:   1154.98   0.000998    5.04  0.000270  (-0.014193 -0.004823 -0.006708)
 49:   1160.60   0.000267    1.35  0.000072  ( 0.001400 -0.007214 -0.004219)
 50:   1184.93   0.003359   16.97  0.000885  ( 0.009106  0.028057  0.003800)
 51:   1212.13   0.003519   17.78  0.000906  (-0.006261 -0.029436  0.000412)
 52:   1237.65   0.002002   10.12  0.000505  (-0.006005 -0.021649 -0.000027)
 53:   1258.54   0.001791    9.05  0.000444  ( 0.014342 -0.011501 -0.010297)
 54:   1271.75   0.003378   17.07  0.000829  ( 0.010843  0.026381  0.003923)
 55:   1302.65   0.011005   55.62  0.002636  (-0.010427 -0.049102 -0.010804)
 56:   1326.35   0.000167    0.84  0.000039  ( 0.000361  0.005755 -0.002448)
 57:   1331.93   0.002976   15.04  0.000697  (-0.004515  0.025205  0.006448)
 58:   1347.68   0.003551   17.95  0.000822  (-0.004541  0.025675  0.011937)
 59:   1357.48   0.045087  227.85  0.010365  ( 0.004715  0.097989  0.027219)
 60:   1391.35   0.000231    1.17  0.000052  (-0.006199 -0.002763  0.002405)
 61:   1405.13   0.010422   52.67  0.002315  ( 0.014459 -0.042790 -0.016568)
 62:   1420.52   0.004605   23.27  0.001012  ( 0.023581 -0.019546 -0.008579)
 63:   1436.65   0.002751   13.90  0.000597  (-0.018852 -0.014470  0.005717)
 64:   1457.47   0.002847   14.39  0.000610  ( 0.009813 -0.021547 -0.007000)
 65:   1476.83   0.003603   18.21  0.000761  (-0.019679 -0.014055 -0.013288)
 66:   1481.91   0.005149   26.02  0.001084  ( 0.012090  0.023894  0.019160)
 67:   1486.07   0.001231    6.22  0.000259  (-0.010564 -0.011958  0.001989)
 68:   1491.28   0.002753   13.91  0.000576  (-0.010687 -0.021439 -0.001515)
 69:   1494.70   0.002875   14.53  0.000600  (-0.015244 -0.013969  0.013142)
 70:   1504.17   0.008562   43.27  0.001776  (-0.011386 -0.037175  0.016269)
 71:   1518.85   0.011280   57.00  0.002318  ( 0.002829  0.046994  0.010055)
 72:   1522.57   0.000657    3.32  0.000135  ( 0.008067 -0.003350  0.007646)
 73:   1549.94   0.135177  683.13  0.027216  ( 0.012393 -0.156518 -0.050647)
 74:   1596.57   0.003005   15.19  0.000587  (-0.020090  0.007778  0.011100)
 75:   1655.51   0.007570   38.26  0.001427  ( 0.024886  0.028267  0.002945)
 76:   1704.39   0.070357  355.56  0.012882  (-0.100405 -0.030456  0.043282)
 77:   1782.79   0.042419  214.37  0.007425  ( 0.060116  0.061564 -0.004601)
 78:   3009.46   0.009422   47.61  0.000977  (-0.009806  0.004919  0.029268)
 79:   3048.15   0.000573    2.89  0.000059  (-0.003149  0.003484  0.006049)
 80:   3057.34   0.006489   32.79  0.000662  ( 0.000381  0.015037 -0.020882)
 81:   3074.24   0.008577   43.34  0.000871  (-0.004122 -0.029205  0.000846)
 82:   3076.89   0.003585   18.11  0.000364  ( 0.003858 -0.005023 -0.017984)
 83:   3084.55   0.002297   11.61  0.000232  ( 0.001231 -0.010587  0.010899)
 84:   3086.88   0.000428    2.16  0.000043  ( 0.005452 -0.002324 -0.002851)
 85:   3103.33   0.003967   20.05  0.000399  ( 0.002399 -0.019759  0.001657)
 86:   3125.96   0.004068   20.56  0.000406  ( 0.001020 -0.016643 -0.011318)
 87:   3144.17   0.002466   12.46  0.000245  ( 0.005532  0.001907  0.014508)
 88:   3150.03   0.000778    3.93  0.000077  ( 0.000973 -0.008706 -0.000546)
 89:   3165.81   0.000541    2.74  0.000053  (-0.004157 -0.002291  0.005552)
 90:   3183.14   0.001598    8.08  0.000157  ( 0.008844 -0.006537 -0.005979)
 91:   3186.37   0.000830    4.20  0.000081  (-0.006642 -0.006090  0.000346)
 92:   3524.17   0.000075    0.38  0.000007  ( 0.001686  0.001819  0.000688)
 93:   3535.97   0.019189   96.97  0.001693  (-0.030317 -0.026600  0.008176)
 94:   3608.30   0.000708    3.58  0.000061  (-0.003786  0.004950 -0.004736)
 95:   3686.88   0.007816   39.50  0.000662  (-0.022645  0.005652  0.010809)

* The epsilon (eps) is given for a Dirac delta lineshape.
** The dipole moment derivative (T) already includes vibrational overlap.

The first frequency considered to be a vibration is 6
The total number of vibrations considered is 90


--------------------------
THERMOCHEMISTRY AT 298.15K
--------------------------

Temperature         ... 298.15 K
Pressure            ... 1.00 atm
Total Mass          ... 200.26 AMU

Throughout the following assumptions are being made:
  (1) The electronic state is orbitally nondegenerate
      but the spin degeneracy is treated
  (2) There are no thermally accessible electronically excited states
  (3) Hindered rotations indicated by low frequency modes are not
      treated as such but are treated as vibrations and this may
      cause some error
  (4) All equations used are the standard statistical mechanics
      equations for an ideal gas
  (5) All vibrations are strictly harmonic

freq.      21.47  E(vib)   ...       0.56 
freq.      49.79  E(vib)   ...       0.52 
freq.      61.24  E(vib)   ...       0.51 
freq.      74.67  E(vib)   ...       0.49 
freq.      84.64  E(vib)   ...       0.48 
freq.     112.68  E(vib)   ...       0.45 
freq.     120.54  E(vib)   ...       0.44 
freq.     126.91  E(vib)   ...       0.43 
freq.     135.39  E(vib)   ...       0.42 
freq.     144.26  E(vib)   ...       0.41 
freq.     161.55  E(vib)   ...       0.39 
freq.     174.03  E(vib)   ...       0.38 
freq.     221.08  E(vib)   ...       0.33 
freq.     262.55  E(vib)   ...       0.29 
freq.     267.99  E(vib)   ...       0.29 
freq.     302.06  E(vib)   ...       0.26 
freq.     316.79  E(vib)   ...       0.25 
freq.     348.10  E(vib)   ...       0.23 
freq.     383.84  E(vib)   ...       0.20 
freq.     390.98  E(vib)   ...       0.20 
freq.     419.05  E(vib)   ...       0.18 
freq.     496.59  E(vib)   ...       0.14 
freq.     532.66  E(vib)   ...       0.13 
freq.     608.71  E(vib)   ...       0.10 
freq.     626.05  E(vib)   ...       0.09 
freq.     718.29  E(vib)   ...       0.07 
freq.     747.04  E(vib)   ...       0.06 
freq.     750.78  E(vib)   ...       0.06 
freq.     763.83  E(vib)   ...       0.06 
freq.     798.08  E(vib)   ...       0.05 
freq.     853.80  E(vib)   ...       0.04 
freq.     862.66  E(vib)   ...       0.04 
freq.     935.56  E(vib)   ...       0.03 
freq.     944.85  E(vib)   ...       0.03 
freq.     993.26  E(vib)   ...       0.02 
freq.    1023.50  E(vib)   ...       0.02 
freq.    1038.65  E(vib)   ...       0.02 
freq.    1057.07  E(vib)   ...       0.02 
freq.    1072.44  E(vib)   ...       0.02 
freq.    1076.14  E(vib)   ...       0.02 
freq.    1105.57  E(vib)   ...       0.02 
freq.    1117.97  E(vib)   ...       0.01 
freq.    1154.98  E(vib)   ...       0.01 
freq.    1160.60  E(vib)   ...       0.01 
freq.    1184.93  E(vib)   ...       0.01 
freq.    1212.13  E(vib)   ...       0.01 
freq.    1237.65  E(vib)   ...       0.01 
freq.    1258.54  E(vib)   ...       0.01 
freq.    1271.75  E(vib)   ...       0.01 
freq.    1302.65  E(vib)   ...       0.01 
freq.    1326.35  E(vib)   ...       0.01 
freq.    1331.93  E(vib)   ...       0.01 
freq.    1347.68  E(vib)   ...       0.01 
freq.    1357.48  E(vib)   ...       0.01 
freq.    1391.35  E(vib)   ...       0.00 
freq.    1405.13  E(vib)   ...       0.00 
freq.    1420.52  E(vib)   ...       0.00 
freq.    1436.65  E(vib)   ...       0.00 
freq.    1457.47  E(vib)   ...       0.00 
freq.    1476.83  E(vib)   ...       0.00 
freq.    1481.91  E(vib)   ...       0.00 
freq.    1486.07  E(vib)   ...       0.00 
freq.    1491.28  E(vib)   ...       0.00 
freq.    1494.70  E(vib)   ...       0.00 
freq.    1504.17  E(vib)   ...       0.00 
freq.    1518.85  E(vib)   ...       0.00 
freq.    1522.57  E(vib)   ...       0.00 
freq.    1549.94  E(vib)   ...       0.00 
freq.    1596.57  E(vib)   ...       0.00 
freq.    1655.51  E(vib)   ...       0.00 
freq.    1704.39  E(vib)   ...       0.00 
freq.    1782.79  E(vib)   ...       0.00 
freq.    3009.46  E(vib)   ...       0.00 
freq.    3048.15  E(vib)   ...       0.00 
freq.    3057.34  E(vib)   ...       0.00 
freq.    3074.24  E(vib)   ...       0.00 
freq.    3076.89  E(vib)   ...       0.00 
freq.    3084.55  E(vib)   ...       0.00 
freq.    3086.88  E(vib)   ...       0.00 
freq.    3103.33  E(vib)   ...       0.00 
freq.    3125.96  E(vib)   ...       0.00 
freq.    3144.17  E(vib)   ...       0.00 
freq.    3150.03  E(vib)   ...       0.00 
freq.    3165.81  E(vib)   ...       0.00 
freq.    3183.14  E(vib)   ...       0.00 
freq.    3186.37  E(vib)   ...       0.00 
freq.    3524.17  E(vib)   ...       0.00 
freq.    3535.97  E(vib)   ...       0.00 
freq.    3608.30  E(vib)   ...       0.00 
freq.    3686.88  E(vib)   ...       0.00 

------------
INNER ENERGY
------------

The inner energy is: U= E(el) + E(ZPE) + E(vib) + E(rot) + E(trans)
    E(el)   - is the total energy from the electronic structure calculation
              = E(kin-el) + E(nuc-el) + E(el-el) + E(nuc-nuc)
    E(ZPE)  - the the zero temperature vibrational energy from the frequency calculation
    E(vib)  - the the finite temperature correction to E(ZPE) due to population
              of excited vibrational states
    E(rot)  - is the rotational thermal energy
    E(trans)- is the translational thermal energy

Summary of contributions to the inner energy U:
Electronic energy                ...   -668.46950569 Eh
Zero point energy                ...      0.27948129 Eh     175.38 kcal/mol
Thermal vibrational correction   ...      0.01420325 Eh       8.91 kcal/mol
Thermal rotational correction    ...      0.00141627 Eh       0.89 kcal/mol
Thermal translational correction ...      0.00141627 Eh       0.89 kcal/mol
-----------------------------------------------------------------------
Total thermal energy                   -668.17298861 Eh


Summary of corrections to the electronic energy:
(perhaps to be used in another calculation)
Total thermal correction                  0.01703579 Eh      10.69 kcal/mol
Non-thermal (ZPE) correction              0.27948129 Eh     175.38 kcal/mol
-----------------------------------------------------------------------
Total correction                          0.29651708 Eh     186.07 kcal/mol


--------
ENTHALPY
--------

The enthalpy is H = U + kB*T
                kB is Boltzmann's constant
Total free energy                 ...   -668.17298861 Eh 
Thermal Enthalpy correction       ...      0.00094421 Eh       0.59 kcal/mol
-----------------------------------------------------------------------
Total Enthalpy                    ...   -668.17204440 Eh


Note: Only C1 symmetry has been detected, increase convergence thresholds 
      if your molecule has a higher symmetry. Symmetry factor of 1.0 is   
      used for the rotational entropy correction. 
 

Note: Rotational entropy computed according to Herzberg 
Infrared and Raman Spectra, Chapter V,1, Van Nostrand Reinhold, 1945 
Point Group:  C1, Symmetry Number:   1  
Rotational constants in cm-1:     0.022061     0.013094     0.008555 

Vibrational entropy computed according to the QRRHO of S. Grimme
Chem.Eur.J. 2012 18 9955


-------
ENTROPY
-------

The entropy contributions are T*S = T*(S(el)+S(vib)+S(rot)+S(trans))
     S(el)   - electronic entropy
     S(vib)  - vibrational entropy
     S(rot)  - rotational entropy
     S(trans)- translational entropy
The entropies will be listed as multiplied by the temperature to get
units of energy

Electronic entropy                ...      0.00065446 Eh      0.41 kcal/mol
Vibrational entropy               ...      0.02591871 Eh     16.26 kcal/mol
Rotational entropy                ...      0.01560590 Eh      9.79 kcal/mol
Translational entropy             ...      0.01985478 Eh     12.46 kcal/mol
-----------------------------------------------------------------------
Final entropy term                ...      0.06203384 Eh     38.93 kcal/mol

In case the symmetry of your molecule has not been determined correctly
or in case you have a reason to use a different symmetry number we print 
out the resulting rotational entropy values for sn=1,12 :
 --------------------------------------------------------
|  sn= 1 | S(rot)=       0.01560590 Eh      9.79 kcal/mol|
|  sn= 2 | S(rot)=       0.01495144 Eh      9.38 kcal/mol|
|  sn= 3 | S(rot)=       0.01456861 Eh      9.14 kcal/mol|
|  sn= 4 | S(rot)=       0.01429699 Eh      8.97 kcal/mol|
|  sn= 5 | S(rot)=       0.01408630 Eh      8.84 kcal/mol|
|  sn= 6 | S(rot)=       0.01391415 Eh      8.73 kcal/mol|
|  sn= 7 | S(rot)=       0.01376861 Eh      8.64 kcal/mol|
|  sn= 8 | S(rot)=       0.01364253 Eh      8.56 kcal/mol|
|  sn= 9 | S(rot)=       0.01353132 Eh      8.49 kcal/mol|
|  sn=10 | S(rot)=       0.01343184 Eh      8.43 kcal/mol|
|  sn=11 | S(rot)=       0.01334185 Eh      8.37 kcal/mol|
|  sn=12 | S(rot)=       0.01325970 Eh      8.32 kcal/mol|
 --------------------------------------------------------


-------------------
GIBBS FREE ENERGY
-------------------

The Gibbs free energy is G = H - T*S

Total enthalpy                    ...   -668.17204440 Eh 
Total entropy correction          ...     -0.06203384 Eh    -38.93 kcal/mol
-----------------------------------------------------------------------
Final Gibbs free energy         ...   -668.23407825 Eh

For completeness - the Gibbs free energy minus the electronic energy
G-E(el)                           ...      0.23542744 Eh    147.73 kcal/mol


Timings for individual modules:

Sum of individual times         ...     1937.024 sec (=  32.284 min)
GTO integral calculation        ...       56.990 sec (=   0.950 min)   2.9 %
SCF iterations                  ...      871.835 sec (=  14.531 min)  45.0 %
SCF Gradient evaluation         ...      253.249 sec (=   4.221 min)  13.1 %
Geometry relaxation             ...        0.951 sec (=   0.016 min)   0.0 %
Analytical frequency calculation...      753.999 sec (=  12.567 min)  38.9 %
                             ****ORCA TERMINATED NORMALLY****
TOTAL RUN TIME: 0 days 0 hours 33 minutes 6 seconds 386 msec
