
                                 *****************
                                 * O   R   C   A *
                                 *****************

                                            #,                                       
                                            ###                                      
                                            ####                                     
                                            #####                                    
                                            ######                                   
                                           ########,                                 
                                     ,,################,,,,,                         
                               ,,#################################,,                 
                          ,,##########################################,,             
                       ,#########################################, ''#####,          
                    ,#############################################,,   '####,        
                  ,##################################################,,,,####,       
                ,###########''''           ''''###############################       
              ,#####''   ,,,,##########,,,,          '''####'''          '####       
            ,##' ,,,,###########################,,,                        '##       
           ' ,,###''''                  '''############,,,                           
         ,,##''                                '''############,,,,        ,,,,,,###''
      ,#''                                            '''#######################'''  
     '                                                          ''''####''''         
             ,#######,   #######,   ,#######,      ##                                
            ,#'     '#,  ##    ##  ,#'     '#,    #''#        ######   ,####,        
            ##       ##  ##   ,#'  ##            #'  '#       #        #'  '#        
            ##       ##  #######   ##           ,######,      #####,   #    #        
            '#,     ,#'  ##    ##  '#,     ,#' ,#      #,         ##   #,  ,#        
             '#######'   ##     ##  '#######'  #'      '#     #####' # '####'        



                  #######################################################
                  #                        -***-                        #
                  #          Department of theory and spectroscopy      #
                  #    Directorship and core code : Frank Neese         #
                  #        Max Planck Institute fuer Kohlenforschung    #
                  #                Kaiser Wilhelm Platz 1               #
                  #                 D-45470 Muelheim/Ruhr               #
                  #                      Germany                        #
                  #                                                     #
                  #                  All rights reserved                #
                  #                        -***-                        #
                  #######################################################


                         Program Version 5.0.4 -  RELEASE  -


 With contributions from (in alphabetic order):
   Daniel Aravena         : Magnetic Suceptibility
   Michael Atanasov       : Ab Initio Ligand Field Theory (pilot matlab implementation)
   Alexander A. Auer      : GIAO ZORA, VPT2 properties, NMR spectrum
   Ute Becker             : Parallelization
   Giovanni Bistoni       : ED, misc. LED, open-shell LED, HFLD
   Martin Brehm           : Molecular dynamics
   Dmytro Bykov           : SCF Hessian
   Vijay G. Chilkuri      : MRCI spin determinant printing, contributions to CSF-ICE
   Dipayan Datta          : RHF DLPNO-CCSD density
   Achintya Kumar Dutta   : EOM-CC, STEOM-CC
   Dmitry Ganyushin       : Spin-Orbit,Spin-Spin,Magnetic field MRCI
   Miquel Garcia          : C-PCM and meta-GGA Hessian, CC/C-PCM, Gaussian charge scheme
   Yang Guo               : DLPNO-NEVPT2, F12-NEVPT2, CIM, IAO-localization
   Andreas Hansen         : Spin unrestricted coupled pair/coupled cluster methods
   Benjamin Helmich-Paris : MC-RPA, TRAH-SCF, COSX integrals
   Lee Huntington         : MR-EOM, pCC
   Robert Izsak           : Overlap fitted RIJCOSX, COSX-SCS-MP3, EOM
   Marcus Kettner         : VPT2
   Christian Kollmar      : KDIIS, OOCD, Brueckner-CCSD(T), CCSD density, CASPT2, CASPT2-K
   Simone Kossmann        : Meta GGA functionals, TD-DFT gradient, OOMP2, MP2 Hessian
   Martin Krupicka        : Initial AUTO-CI
   Lucas Lang             : DCDCAS
   Marvin Lechner         : AUTO-CI (C++ implementation), FIC-MRCC
   Dagmar Lenk            : GEPOL surface, SMD
   Dimitrios Liakos       : Extrapolation schemes; Compound Job, initial MDCI parallelization
   Dimitrios Manganas     : Further ROCIS development; embedding schemes
   Dimitrios Pantazis     : SARC Basis sets
   Anastasios Papadopoulos: AUTO-CI, single reference methods and gradients
   Taras Petrenko         : DFT Hessian,TD-DFT gradient, ASA, ECA, R-Raman, ABS, FL, XAS/XES, NRVS
   Peter Pinski           : DLPNO-MP2, DLPNO-MP2 Gradient
   Christoph Reimann      : Effective Core Potentials
   Marius Retegan         : Local ZFS, SOC
   Christoph Riplinger    : Optimizer, TS searches, QM/MM, DLPNO-CCSD(T), (RO)-DLPNO pert. Triples
   Tobias Risthaus        : Range-separated hybrids, TD-DFT gradient, RPA, STAB
   Michael Roemelt        : Original ROCIS implementation
   Masaaki Saitow         : Open-shell DLPNO-CCSD energy and density
   Barbara Sandhoefer     : DKH picture change effects
   Avijit Sen             : IP-ROCIS
   Kantharuban Sivalingam : CASSCF convergence, NEVPT2, FIC-MRCI
   Bernardo de Souza      : ESD, SOC TD-DFT
   Georgi Stoychev        : AutoAux, RI-MP2 NMR, DLPNO-MP2 response
   Willem Van den Heuvel  : Paramagnetic NMR
   Boris Wezisla          : Elementary symmetry handling
   Frank Wennmohs         : Technical directorship


 We gratefully acknowledge several colleagues who have allowed us to
 interface, adapt or use parts of their codes:
   Stefan Grimme, W. Hujo, H. Kruse, P. Pracht,  : VdW corrections, initial TS optimization,
                  C. Bannwarth, S. Ehlert          DFT functionals, gCP, sTDA/sTD-DF
   Ed Valeev, F. Pavosevic, A. Kumar             : LibInt (2-el integral package), F12 methods
   Garnet Chan, S. Sharma, J. Yang, R. Olivares  : DMRG
   Ulf Ekstrom                                   : XCFun DFT Library
   Mihaly Kallay                                 : mrcc  (arbitrary order and MRCC methods)
   Jiri Pittner, Ondrej Demel                    : Mk-CCSD
   Frank Weinhold                                : gennbo (NPA and NBO analysis)
   Christopher J. Cramer and Donald G. Truhlar   : smd solvation model
   Lars Goerigk                                  : TD-DFT with DH, B97 family of functionals
   V. Asgeirsson, H. Jonsson                     : NEB implementation
   FAccTs GmbH                                   : IRC, NEB, NEB-TS, DLPNO-Multilevel, CI-OPT
                                                   MM, QMMM, 2- and 3-layer-ONIOM, Crystal-QMMM,
                                                   LR-CPCM, SF, NACMEs, symmetry and pop. for TD-DFT,
                                                   nearIR, NL-DFT gradient (VV10), updates on ESD,
                                                   ML-optimized integration grids
   S Lehtola, MJT Oliveira, MAL Marques          : LibXC Library
   Liviu Ungur et al                             : ANISO software


 Your calculation uses the libint2 library for the computation of 2-el integrals
 For citations please refer to: http://libint.valeyev.net

 Your ORCA version has been built with support for libXC version: 5.1.0
 For citations please refer to: https://tddft.org/programs/libxc/

 This ORCA versions uses:
   CBLAS   interface :  Fast vector & matrix operations
   LAPACKE interface :  Fast linear algebra routines
   SCALAPACK package :  Parallel linear algebra routines
   Shared memory     :  Shared parallel matrices
   BLAS/LAPACK       :  OpenBLAS 0.3.15  USE64BITINT DYNAMIC_ARCH NO_AFFINITY Zen SINGLE_THREADED
        Core in use  :  Zen
   Copyright (c) 2011-2014, The OpenBLAS Project




***************************************
The coordinates will be read from file: model.xyz
***************************************


================================================================================

----- Orbital basis set information -----
Your calculation utilizes the basis: EPR-II
   V. Barone, in Recent Advances in Density Functional Methods, Part 1 (ed. D. P. Chong), World Scientific, Singapore, 1995, p. 287.

----- AuxJ basis set information -----
Your calculation utilizes the auxiliary basis: def2/J
   F. Weigend, Phys. Chem. Chem. Phys. 8, 1057 (2006).

================================================================================
                                        WARNINGS
                       Please study these warnings very carefully!
================================================================================


WARNING: your system is open-shell and RHF/RKS was chosen
  ===> : WILL SWITCH to UHF/UKS


WARNING: Geometry Optimization
  ===> : Switching off AutoStart
         For restart on a previous wavefunction, please use MOREAD

INFO   : the flag for use of the SHARK integral package has been found!

================================================================================
                                       INPUT FILE
================================================================================
NAME = opt.inp
|  1> ! B3LYP EPR-II OPT
|  2> %pal nprocs 16 end
|  3> *XYZFile 0 2 model.xyz
|  4> 
|  5>                          ****END OF INPUT****
================================================================================

                       *****************************
                       * Geometry Optimization Run *
                       *****************************

Geometry optimization settings:
Update method            Update   .... BFGS
Choice of coordinates    CoordSys .... Z-matrix Internals
Initial Hessian          InHess   .... Almoef's Model

Convergence Tolerances:
Energy Change            TolE     ....  5.0000e-06 Eh
Max. Gradient            TolMAXG  ....  3.0000e-04 Eh/bohr
RMS Gradient             TolRMSG  ....  1.0000e-04 Eh/bohr
Max. Displacement        TolMAXD  ....  4.0000e-03 bohr
RMS Displacement         TolRMSD  ....  2.0000e-03 bohr
Strict Convergence                ....  False
------------------------------------------------------------------------------
                        ORCA OPTIMIZATION COORDINATE SETUP
------------------------------------------------------------------------------

The optimization will be done in new redundant internal coordinates
Making redundant internal coordinates   ...  (new redundants) done
Evaluating the initial hessian          ...  (Almloef) done
Evaluating the coordinates              ...  done
Calculating the B-matrix                .... done
Calculating the G-matrix                .... done
Diagonalizing the G-matrix              .... done
Small eigenvalue found = 4.670e-03
Small eigenvalue found = 5.956e-03
Small eigenvalue found = 8.354e-03
The first mode is                       ....   62
The number of degrees of freedom        ....   90

    -----------------------------------------------------------------
                    Redundant Internal Coordinates


    -----------------------------------------------------------------
         Definition                    Initial Value    Approx d2E/dq
    -----------------------------------------------------------------
      1. B(C   1,N   0)                  1.3739         0.593783   
      2. B(C   2,C   1)                  1.4728         0.461015   
      3. B(O   3,C   2)                  1.2310         1.003625   
      4. B(C   4,C   1)                  1.5002         0.416751   
      5. B(C   5,C   4)                  1.5497         0.347529   
      6. B(C   6,C   5)                  1.5353         0.366318   
      7. B(C   7,C   6)                  1.5337         0.368469   
      8. B(N   8,C   7)                  1.4647         0.425239   
      9. B(H   9,C   4)                  1.0951         0.353433   
     10. B(H  10,C   4)                  1.0987         0.348798   
     11. B(H  11,C   5)                  1.1009         0.346020   
     12. B(H  12,C   5)                  1.0976         0.350153   
     13. B(H  13,C   6)                  1.1011         0.345723   
     14. B(H  14,C   6)                  1.0997         0.347444   
     15. B(H  15,C   7)                  1.0989         0.348470   
     16. B(H  16,C   7)                  1.1049         0.340896   
     17. B(H  17,N   8)                  1.0147         0.425264   
     18. B(H  18,N   8)                  1.0158         0.423641   
     19. B(H  19,N   0)                  1.0180         0.420115   
     20. B(C  20,N   0)                  1.3766         0.587864   
     21. B(N  21,C   2)                  1.3616         0.621168   
     22. B(H  22,N  21)                  1.0052         0.440440   
     23. B(O  23,C  20)                  1.2130         1.072341   
     24. B(C  24,C  20)                  1.5232         0.383008   
     25. B(H  25,C  24)                  1.0921         0.357330   
     26. B(H  26,C  24)                  1.0975         0.350333   
     27. B(H  27,C  24)                  1.0976         0.350166   
     28. B(C  28,N  21)                  1.4486         0.451274   
     29. B(H  29,C  28)                  1.0963         0.351877   
     30. B(H  30,C  28)                  1.0941         0.354720   
     31. B(H  31,C  28)                  1.0981         0.349600   
     32. A(C   1,N   0,C  20)          130.4175         0.421083   
     33. A(H  19,N   0,C  20)          118.0033         0.353664   
     34. A(C   1,N   0,H  19)          111.5690         0.354265   
     35. A(N   0,C   1,C   2)          111.5075         0.405915   
     36. A(C   2,C   1,C   4)          125.5785         0.383938   
     37. A(N   0,C   1,C   4)          122.8852         0.398756   
     38. A(C   1,C   2,O   3)          120.9349         0.445890   
     39. A(C   1,C   2,N  21)          117.7822         0.409165   
     40. A(O   3,C   2,N  21)          121.2823         0.467665   
     41. A(H   9,C   4,H  10)          106.8707         0.288542   
     42. A(C   1,C   4,H  10)          109.0233         0.328482   
     43. A(C   1,C   4,C   5)          113.5197         0.365665   
     44. A(C   5,C   4,H  10)          109.5486         0.318836   
     45. A(C   1,C   4,H   9)          109.2927         0.329199   
     46. A(C   5,C   4,H   9)          108.3721         0.319524   
     47. A(C   6,C   5,H  11)          110.0127         0.321171   
     48. A(C   4,C   5,H  11)          109.5548         0.318420   
     49. A(C   4,C   5,C   6)          111.7311         0.357705   
     50. A(H  11,C   5,H  12)          107.4723         0.287761   
     51. A(C   6,C   5,H  12)          109.7110         0.321796   
     52. A(C   4,C   5,H  12)          108.2482         0.319038   
     53. A(C   5,C   6,C   7)          112.5593         0.361287   
     54. A(H  13,C   6,H  14)          106.9141         0.287374   
     55. A(C   7,C   6,H  14)          108.6244         0.321695   
     56. A(C   5,C   6,H  14)          110.7065         0.321387   
     57. A(C   7,C   6,H  13)          109.1062         0.321434   
     58. A(C   5,C   6,H  13)          108.7629         0.321126   
     59. A(H  15,C   7,H  16)          107.0913         0.286875   
     60. A(N   8,C   7,H  16)          113.4647         0.326363   
     61. A(C   6,C   7,H  16)          108.8689         0.320695   
     62. A(N   8,C   7,H  15)          107.7365         0.327547   
     63. A(C   6,C   7,H  15)          109.2484         0.321850   
     64. A(C   6,C   7,N   8)          110.3120         0.368318   
     65. A(H  17,N   8,H  18)          107.0976         0.301397   
     66. A(C   7,N   8,H  18)          110.4154         0.335425   
     67. A(C   7,N   8,H  17)          111.0798         0.335638   
     68. A(O  23,C  20,C  24)          122.8698         0.436394   
     69. A(N   0,C  20,C  24)          113.5608         0.392205   
     70. A(N   0,C  20,O  23)          123.5690         0.468620   
     71. A(H  22,N  21,C  28)          119.2332         0.340969   
     72. A(C   2,N  21,C  28)          120.4840         0.405000   
     73. A(C   2,N  21,H  22)          119.8067         0.359867   
     74. A(H  26,C  24,H  27)          108.0515         0.288321   
     75. A(H  25,C  24,H  27)          109.5446         0.289215   
     76. A(C  20,C  24,H  27)          110.6617         0.324157   
     77. A(H  25,C  24,H  26)          109.5743         0.289237   
     78. A(C  20,C  24,H  26)          110.6649         0.324182   
     79. A(C  20,C  24,H  25)          108.3338         0.325237   
     80. A(H  30,C  28,H  31)          109.3900         0.288810   
     81. A(H  29,C  28,H  31)          107.9268         0.288447   
     82. A(N  21,C  28,H  31)          111.2615         0.330954   
     83. A(H  29,C  28,H  30)          109.2147         0.289104   
     84. A(N  21,C  28,H  30)          108.7910         0.331752   
     85. A(N  21,C  28,H  29)          110.2295         0.331310   
     86. D(C   4,C   1,N   0,H  19)    178.5784         0.028368   
     87. D(C   4,C   1,N   0,C  20)     -2.6248         0.028368   
     88. D(C   2,C   1,N   0,C  20)    175.5208         0.028368   
     89. D(C   2,C   1,N   0,H  19)     -3.2760         0.028368   
     90. D(O   3,C   2,C   1,C   4)   -178.5969         0.014477   
     91. D(N  21,C   2,C   1,C   4)      1.1233         0.014477   
     92. D(N  21,C   2,C   1,N   0)   -176.9620         0.014477   
     93. D(O   3,C   2,C   1,N   0)      3.3178         0.014477   
     94. D(H  10,C   4,C   1,C   2)     27.5107         0.012849   
     95. D(H  10,C   4,C   1,N   0)   -154.6107         0.012849   
     96. D(H   9,C   4,C   1,C   2)    143.9939         0.012849   
     97. D(C   5,C   4,C   1,N   0)     82.9734         0.012849   
     98. D(H   9,C   4,C   1,N   0)    -38.1275         0.012849   
     99. D(C   5,C   4,C   1,C   2)    -94.9053         0.012849   
    100. D(C   6,C   5,C   4,C   1)   -177.6714         0.009742   
    101. D(H  12,C   5,C   4,H   9)     64.8568         0.009742   
    102. D(H  12,C   5,C   4,C   1)    -56.7593         0.009742   
    103. D(H  11,C   5,C   4,H  10)    -61.9730         0.009742   
    104. D(H  11,C   5,C   4,H   9)   -178.2321         0.009742   
    105. D(H  11,C   5,C   4,C   1)     60.1518         0.009742   
    106. D(C   6,C   5,C   4,H  10)     60.2038         0.009742   
    107. D(H  12,C   5,C   4,H  10)   -178.8842         0.009742   
    108. D(C   6,C   5,C   4,H   9)    -56.0553         0.009742   
    109. D(H  14,C   6,C   5,C   4)    -58.2279         0.010741   
    110. D(H  13,C   6,C   5,H  12)    -61.0985         0.010741   
    111. D(H  13,C   6,C   5,H  11)   -179.1274         0.010741   
    112. D(H  13,C   6,C   5,C   4)     58.9589         0.010741   
    113. D(C   7,C   6,C   5,H  12)     59.9294         0.010741   
    114. D(C   7,C   6,C   5,H  11)    -58.0994         0.010741   
    115. D(H  14,C   6,C   5,H  11)     63.6858         0.010741   
    116. D(C   7,C   6,C   5,C   4)    179.9869         0.010741   
    117. D(H  14,C   6,C   5,H  12)   -178.2853         0.010741   
    118. D(H  16,C   7,C   6,H  14)   -178.2866         0.010859   
    119. D(H  16,C   7,C   6,H  13)     65.5039         0.010859   
    120. D(H  16,C   7,C   6,C   5)    -55.3276         0.010859   
    121. D(H  15,C   7,C   6,H  14)    -61.6509         0.010859   
    122. D(H  15,C   7,C   6,H  13)   -177.8604         0.010859   
    123. D(H  15,C   7,C   6,C   5)     61.3082         0.010859   
    124. D(N   8,C   7,C   6,H  14)     56.5994         0.010859   
    125. D(N   8,C   7,C   6,H  13)    -59.6101         0.010859   
    126. D(N   8,C   7,C   6,C   5)    179.5584         0.010859   
    127. D(H  18,N   8,C   7,H  15)   -177.5028         0.015417   
    128. D(H  18,N   8,C   7,C   6)     63.3238         0.015417   
    129. D(H  17,N   8,C   7,H  16)     59.5347         0.015417   
    130. D(H  17,N   8,C   7,H  15)    -58.8387         0.015417   
    131. D(H  18,N   8,C   7,H  16)    -59.1293         0.015417   
    132. D(H  17,N   8,C   7,C   6)   -178.0122         0.015417   
    133. D(C  24,C  20,N   0,H  19)     -2.6181         0.027767   
    134. D(C  24,C  20,N   0,C   1)    178.6492         0.027767   
    135. D(O  23,C  20,N   0,H  19)    177.1725         0.027767   
    136. D(O  23,C  20,N   0,C   1)     -1.5602         0.027767   
    137. D(C  28,N  21,C   2,O   3)     -1.8521         0.031253   
    138. D(C  28,N  21,C   2,C   1)    178.4287         0.031253   
    139. D(H  22,N  21,C   2,O   3)   -173.8758         0.031253   
    140. D(H  22,N  21,C   2,C   1)      6.4050         0.031253   
    141. D(H  27,C  24,C  20,O  23)   -120.7685         0.010936   
    142. D(H  27,C  24,C  20,N   0)     59.0238         0.010936   
    143. D(H  26,C  24,C  20,O  23)    119.4841         0.010936   
    144. D(H  26,C  24,C  20,N   0)    -60.7236         0.010936   
    145. D(H  25,C  24,C  20,O  23)     -0.6614         0.010936   
    146. D(H  25,C  24,C  20,N   0)    179.1309         0.010936   
    147. D(H  29,C  28,N  21,H  22)   -130.1824         0.017374   
    148. D(H  29,C  28,N  21,C   2)     57.7486         0.017374   
    149. D(H  31,C  28,N  21,H  22)    110.1224         0.017374   
    150. D(H  31,C  28,N  21,C   2)    -61.9467         0.017374   
    151. D(H  30,C  28,N  21,H  22)    -10.4546         0.017374   
    152. D(H  30,C  28,N  21,C   2)    177.4763         0.017374   
    -----------------------------------------------------------------

Number of atoms                         .... 32
Number of degrees of freedom            .... 152

         *************************************************************
         *                GEOMETRY OPTIMIZATION CYCLE   1            *
         *************************************************************
---------------------------------
CARTESIAN COORDINATES (ANGSTROEM)
---------------------------------
  N     -2.022971    0.688725    0.704804
  C     -1.342970   -0.272526   -0.003068
  C     -2.021907   -1.577467    0.068823
  O     -3.098139   -1.699479    0.653772
  C     -0.048781    0.000227   -0.711140
  C      1.191092   -0.076212    0.215336
  C      2.485006    0.265359   -0.537249
  C      3.725013    0.195771    0.362705
  N      4.929522    0.519293   -0.405380
  H     -0.084519    0.999257   -1.158216
  H      0.065033   -0.714957   -1.537371
  H      1.263749   -1.084479    0.651231
  H      1.046246    0.630727    1.042402
  H      2.396377    1.282003   -0.950747
  H      2.630582   -0.414910   -1.388993
  H      3.837377   -0.827954    0.746140
  H      3.570045    0.854498    1.236151
  H      5.761077    0.445018    0.171390
  H      4.886569    1.475378   -0.745724
  H     -2.889452    0.323409    1.094881
  C     -1.700042    2.001425    0.964659
  N     -1.422318   -2.639080   -0.537301
  H     -0.502002   -2.536836   -0.928388
  O     -0.671093    2.525219    0.592942
  C     -2.759049    2.740551    1.772354
  H     -2.411244    3.761859    1.941614
  H     -3.713681    2.762132    1.231349
  H     -2.926098    2.244868    2.737316
  C     -2.021705   -3.956295   -0.473915
  H     -3.035851   -3.931694   -0.889547
  H     -1.409944   -4.650347   -1.057944
  H     -2.089655   -4.313402    0.562223

----------------------------
CARTESIAN COORDINATES (A.U.)
----------------------------
  NO LB      ZA    FRAG     MASS         X           Y           Z
   0 N     7.0000    0    14.007   -3.822861    1.301502    1.331887
   1 C     6.0000    0    12.011   -2.537846   -0.515000   -0.005798
   2 C     6.0000    0    12.011   -3.820850   -2.980981    0.130057
   3 O     8.0000    0    15.999   -5.854634   -3.211550    1.235450
   4 C     6.0000    0    12.011   -0.092183    0.000429   -1.343860
   5 C     6.0000    0    12.011    2.250838   -0.144020    0.406926
   6 C     6.0000    0    12.011    4.695981    0.501456   -1.015253
   7 C     6.0000    0    12.011    7.039254    0.369954    0.685413
   8 N     7.0000    0    14.007    9.315447    0.981322   -0.766057
   9 H     1.0000    0     1.008   -0.159718    1.888322   -2.188711
  10 H     1.0000    0     1.008    0.122895   -1.351073   -2.905210
  11 H     1.0000    0     1.008    2.388140   -2.049368    1.230648
  12 H     1.0000    0     1.008    1.977118    1.191901    1.969854
  13 H     1.0000    0     1.008    4.528496    2.422635   -1.796651
  14 H     1.0000    0     1.008    4.971080   -0.784066   -2.624816
  15 H     1.0000    0     1.008    7.251592   -1.564606    1.410000
  16 H     1.0000    0     1.008    6.746407    1.614767    2.335987
  17 H     1.0000    0     1.008   10.886858    0.840962    0.323880
  18 H     1.0000    0     1.008    9.234277    2.788060   -1.409214
  19 H     1.0000    0     1.008   -5.460273    0.611154    2.069025
  20 C     6.0000    0    12.011   -3.212614    3.782145    1.822941
  21 N     7.0000    0    14.007   -2.687791   -4.987138   -1.015352
  22 H     1.0000    0     1.008   -0.948646   -4.793925   -1.754399
  23 O     8.0000    0    15.999   -1.268182    4.771972    1.120498
  24 C     6.0000    0    12.011   -5.213847    5.178891    3.349264
  25 H     1.0000    0     1.008   -4.556591    7.108883    3.669119
  26 H     1.0000    0     1.008   -7.017840    5.219673    2.326912
  27 H     1.0000    0     1.008   -5.529524    4.242186    5.172778
  28 C     6.0000    0    12.011   -3.820469   -7.476314   -0.895570
  29 H     1.0000    0     1.008   -5.736927   -7.429825   -1.681000
  30 H     1.0000    0     1.008   -2.664408   -8.787882   -1.999224
  31 H     1.0000    0     1.008   -3.948876   -8.151148    1.062447

--------------------------------
INTERNAL COORDINATES (ANGSTROEM)
--------------------------------
 N      0   0   0     0.000000000000     0.00000000     0.00000000
 C      1   0   0     1.373858658446     0.00000000     0.00000000
 C      2   1   0     1.472750752616   111.50753639     0.00000000
 O      3   2   1     1.230986425014   120.93489458     3.31775157
 C      2   1   3     1.500228423912   122.88517592   181.85437079
 C      5   2   1     1.549672789793   113.51968092    82.97338449
 C      6   5   2     1.535339822209   111.73107307   182.32859767
 C      7   6   5     1.533746084562   112.55927238   179.98690415
 N      8   7   6     1.464739902778   110.31198364   179.55844657
 H      5   2   1     1.095086798076   109.29272443   321.87249736
 H      5   2   1     1.098680775209   109.02332356   205.38932907
 H      6   5   2     1.100856863522   109.55483662    60.15180082
 H      6   5   2     1.097625292071   108.24820251   303.24068399
 H      7   6   5     1.101090694893   108.76292920    58.95893502
 H      7   6   5     1.099739117097   110.70651511   301.77213603
 H      8   7   6     1.098936278110   109.24837817    61.30819356
 H      8   7   6     1.104918212570   108.86888165   304.67243146
 H      9   8   7     1.014723670045   111.07983723   181.98783680
 H      9   8   7     1.015764503106   110.41537326    63.32381149
 H      1   2   3     1.018039866187   111.56904621   356.72399335
 C      1   2   3     1.376586012593   130.41748376   175.52083449
 N      3   2   1     1.361585632293   117.78224426   183.03800039
 H     22   3   2     1.005178798504   119.80666020     6.40498345
 O     21   1   2     1.212959078917   123.56902287   358.43983820
 C     21   1   2     1.523211831280   113.56080921   178.64919670
 H     25  21   1     1.092102237196   108.33375649   179.13088532
 H     25  21   1     1.097485491936   110.66487071   299.27640601
 H     25  21   1     1.097614990028   110.66169245    59.02378887
 C     22   3   2     1.448564087982   120.48404311   178.42869055
 H     29  22   3     1.096287953934   110.22950323    57.74856403
 H     29  22   3     1.094097606553   108.79104330   177.47633065
 H     29  22   3     1.098054901630   111.26146742   298.05334990

---------------------------
INTERNAL COORDINATES (A.U.)
---------------------------
 N      0   0   0     0.000000000000     0.00000000     0.00000000
 C      1   0   0     2.596216611179     0.00000000     0.00000000
 C      2   1   0     2.783095585971   111.50753639     0.00000000
 O      3   2   1     2.326227217851   120.93489458     3.31775157
 C      2   1   3     2.835020859518   122.88517592   181.85437079
 C      5   2   1     2.928457169899   113.51968092    82.97338449
 C      6   5   2     2.901371786479   111.73107307   182.32859767
 C      7   6   5     2.898360058796   112.55927238   179.98690415
 N      8   7   6     2.767957273677   110.31198364   179.55844657
 H      5   2   1     2.069414141236   109.29272443   321.87249736
 H      5   2   1     2.076205773749   109.02332356   205.38932907
 H      6   5   2     2.080317984704   109.55483662    60.15180082
 H      6   5   2     2.074211199679   108.24820251   303.24068399
 H      7   6   5     2.080759861958   108.76292920    58.95893502
 H      7   6   5     2.078205750073   110.70651511   301.77213603
 H      8   7   6     2.076688604258   109.24837817    61.30819356
 H      8   7   6     2.087992822139   108.86888165   304.67243146
 H      9   8   7     1.917549837993   111.07983723   181.98783680
 H      9   8   7     1.919516727429   110.41537326    63.32381149
 H      1   2   3     1.923816540507   111.56904621   356.72399335
 C      1   2   3     2.601370563587   130.41748376   175.52083449
 N      3   2   1     2.573023952915   117.78224426   183.03800039
 H     22   3   2     1.899512644796   119.80666020     6.40498345
 O     21   1   2     2.292160470806   123.56902287   358.43983820
 C     21   1   2     2.878453205067   113.56080921   178.64919670
 H     25  21   1     2.063774138544   108.33375649   179.13088532
 H     25  21   1     2.073947015711   110.66487071   299.27640601
 H     25  21   1     2.074191731639   110.66169245    59.02378887
 C     22   3   2     2.737389413719   120.48404311   178.42869055
 H     29  22   3     2.071683996852   110.22950323    57.74856403
 H     29  22   3     2.067544840165   108.79104330   177.47633065
 H     29  22   3     2.075023044090   111.26146742   298.05334990

---------------------
BASIS SET INFORMATION
---------------------
There are 4 groups of distinct atoms

 Group   1 Type N   : 10s5p1d contracted to 6s2p1d pattern {511111/41/1}
 Group   2 Type C   : 10s5p1d contracted to 6s2p1d pattern {511111/41/1}
 Group   3 Type O   : 10s5p1d contracted to 6s2p1d pattern {511111/41/1}
 Group   4 Type H   : 6s1p contracted to 4s1p pattern {3111/1}

Atom   0N    basis set group =>   1
Atom   1C    basis set group =>   2
Atom   2C    basis set group =>   2
Atom   3O    basis set group =>   3
Atom   4C    basis set group =>   2
Atom   5C    basis set group =>   2
Atom   6C    basis set group =>   2
Atom   7C    basis set group =>   2
Atom   8N    basis set group =>   1
Atom   9H    basis set group =>   4
Atom  10H    basis set group =>   4
Atom  11H    basis set group =>   4
Atom  12H    basis set group =>   4
Atom  13H    basis set group =>   4
Atom  14H    basis set group =>   4
Atom  15H    basis set group =>   4
Atom  16H    basis set group =>   4
Atom  17H    basis set group =>   4
Atom  18H    basis set group =>   4
Atom  19H    basis set group =>   4
Atom  20C    basis set group =>   2
Atom  21N    basis set group =>   1
Atom  22H    basis set group =>   4
Atom  23O    basis set group =>   3
Atom  24C    basis set group =>   2
Atom  25H    basis set group =>   4
Atom  26H    basis set group =>   4
Atom  27H    basis set group =>   4
Atom  28C    basis set group =>   2
Atom  29H    basis set group =>   4
Atom  30H    basis set group =>   4
Atom  31H    basis set group =>   4
---------------------------------
AUXILIARY/J BASIS SET INFORMATION
---------------------------------
There are 4 groups of distinct atoms

 Group   1 Type N   : 12s5p4d2f1g contracted to 6s4p3d1f1g pattern {711111/2111/211/2/1}
 Group   2 Type C   : 12s5p4d2f1g contracted to 6s4p3d1f1g pattern {711111/2111/211/2/1}
 Group   3 Type O   : 12s5p4d2f1g contracted to 6s4p3d1f1g pattern {711111/2111/211/2/1}
 Group   4 Type H   : 5s2p1d contracted to 3s1p1d pattern {311/2/1}

Atom   0N    basis set group =>   1
Atom   1C    basis set group =>   2
Atom   2C    basis set group =>   2
Atom   3O    basis set group =>   3
Atom   4C    basis set group =>   2
Atom   5C    basis set group =>   2
Atom   6C    basis set group =>   2
Atom   7C    basis set group =>   2
Atom   8N    basis set group =>   1
Atom   9H    basis set group =>   4
Atom  10H    basis set group =>   4
Atom  11H    basis set group =>   4
Atom  12H    basis set group =>   4
Atom  13H    basis set group =>   4
Atom  14H    basis set group =>   4
Atom  15H    basis set group =>   4
Atom  16H    basis set group =>   4
Atom  17H    basis set group =>   4
Atom  18H    basis set group =>   4
Atom  19H    basis set group =>   4
Atom  20C    basis set group =>   2
Atom  21N    basis set group =>   1
Atom  22H    basis set group =>   4
Atom  23O    basis set group =>   3
Atom  24C    basis set group =>   2
Atom  25H    basis set group =>   4
Atom  26H    basis set group =>   4
Atom  27H    basis set group =>   4
Atom  28C    basis set group =>   2
Atom  29H    basis set group =>   4
Atom  30H    basis set group =>   4
Atom  31H    basis set group =>   4


           ************************************************************
           *        Program running with 16 parallel MPI-processes    *
           *              working on a common directory               *
           ************************************************************
------------------------------------------------------------------------------
                           ORCA GTO INTEGRAL CALCULATION
                           -- RI-GTO INTEGRALS CHOSEN --
------------------------------------------------------------------------------
------------------------------------------------------------------------------
                   ___                                                        
                  /   \      - P O W E R E D   B Y -                         
                 /     \                                                     
                 |  |  |   _    _      __       _____    __    __             
                 |  |  |  | |  | |    /  \     |  _  \  |  |  /  |          
                  \  \/   | |  | |   /    \    | | | |  |  | /  /          
                 / \  \   | |__| |  /  /\  \   | |_| |  |  |/  /          
                |  |  |   |  __  | /  /__\  \  |    /   |      \           
                |  |  |   | |  | | |   __   |  |    \   |  |\   \          
                \     /   | |  | | |  |  |  |  | |\  \  |  | \   \       
                 \___/    |_|  |_| |__|  |__|  |_| \__\ |__|  \__/        
                                                                              
                      - O R C A' S   B I G   F R I E N D -                    
                                      &                                       
                       - I N T E G R A L  F E E D E R -                       
                                                                              
 v1 FN, 2020, v2 2021                                                         
------------------------------------------------------------------------------


Reading SHARK input file opt.SHARKINP.tmp ... ok
----------------------
SHARK INTEGRAL PACKAGE
----------------------

Number of atoms                             ...     32
Number of basis functions                   ...    364
Number of shells                            ...    216
Maximum angular momentum                    ...      2
Integral batch strategy                     ... SHARK/LIBINT Hybrid
RI-J (if used) integral strategy            ... SPLIT-RIJ (Revised 2003 algorithm where possible)
Printlevel                                  ...      1
Contraction scheme used                     ... SEGMENTED contraction
Coulomb Range Separation                    ... NOT USED
Exchange Range Separation                   ... NOT USED
Finite Nucleus Model                        ... NOT USED
Auxiliary Coulomb fitting basis             ... AVAILABLE
   # of basis functions in Aux-J            ...    884
   # of shells in Aux-J                     ...    300
   Maximum angular momentum in Aux-J        ...      4
Auxiliary J/K fitting basis                 ... NOT available
Auxiliary Correlation fitting basis         ... NOT available
Auxiliary 'external' fitting basis          ... NOT available
Integral threshold                          ...     2.500000e-11
Primitive cut-off                           ...     2.500000e-12
Primitive pair pre-selection threshold      ...     2.500000e-12

Calculating pre-screening integrals         ... done (  0.0 sec) Dimension = 216
Organizing shell pair data                  ... done (  0.0 sec)
Shell pair information
Total number of shell pairs                 ...     23436
Shell pairs after pre-screening             ...     15140
Total number of primitive shell pairs       ...     61703
Primitive shell pairs kept                  ...     28964
          la=0 lb=0:   7094 shell pairs
          la=1 lb=0:   5173 shell pairs
          la=1 lb=1:    893 shell pairs
          la=2 lb=0:   1405 shell pairs
          la=2 lb=1:    495 shell pairs
          la=2 lb=2:     80 shell pairs

Calculating one electron integrals          ... done (  0.0 sec)
Calculating RI/J V-Matrix + Cholesky decomp.... done (  0.0 sec)
Calculating Nuclear repulsion               ... done (  0.0 sec) ENN=    915.937654053954 Eh

SHARK setup successfully completed in   0.2 seconds

Maximum memory used throughout the entire GTOINT-calculation: 22.0 MB


           ************************************************************
           *        Program running with 16 parallel MPI-processes    *
           *              working on a common directory               *
           ************************************************************
-------------------------------------------------------------------------------
                                 ORCA SCF
-------------------------------------------------------------------------------

------------
SCF SETTINGS
------------
Hamiltonian:
 Density Functional     Method          .... DFT(GTOs)
 Exchange Functional    Exchange        .... B88
   X-Alpha parameter    XAlpha          ....  0.666667
   Becke's b parameter  XBeta           ....  0.004200
 Correlation Functional Correlation     .... LYP
 LDA part of GGA corr.  LDAOpt          .... VWN-5
 Gradients option       PostSCFGGA      .... off
 Hybrid DFT is turned on
   Fraction HF Exchange ScalHFX         ....  0.200000
   Scaling of DF-GGA-X  ScalDFX         ....  0.720000
   Scaling of DF-GGA-C  ScalDFC         ....  0.810000
   Scaling of DF-LDA-C  ScalLDAC        ....  1.000000
   Perturbative correction              ....  0.000000
   Density functional embedding theory  .... OFF
   NL short-range parameter             ....  4.800000
 RI-approximation to the Coulomb term is turned on
   Number of AuxJ basis functions       .... 884
   RIJ-COSX (HFX calculated with COS-X)).... on


General Settings:
 Integral files         IntName         .... opt
 Hartree-Fock type      HFTyp           .... UHF
 Total Charge           Charge          ....    0
 Multiplicity           Mult            ....    2
 Number of Electrons    NEL             ....  109
 Basis Dimension        Dim             ....  364
 Nuclear Repulsion      ENuc            ....    915.9376540540 Eh

Convergence Acceleration:
 DIIS                   CNVDIIS         .... on
   Start iteration      DIISMaxIt       ....    12
   Startup error        DIISStart       ....  0.200000
   # of expansion vecs  DIISMaxEq       ....     5
   Bias factor          DIISBfac        ....   1.050
   Max. coefficient     DIISMaxC        ....  10.000
 Trust-Rad. Augm. Hess. CNVTRAH         .... auto
   Auto Start mean grad. ratio tolernc. ....  1.125000
   Auto Start start iteration           ....    20
   Auto Start num. interpolation iter.  ....    10
   Max. Number of Micro iterations      ....    16
   Max. Number of Macro iterations      .... Maxiter - #DIIS iter
   Number of Davidson start vectors     ....     2
   Converg. threshold I  (grad. norm)   ....   1.000e-05
   Converg. threshold II (energy diff.) ....   1.000e-08
   Grad. Scal. Fac. for Micro threshold ....   0.100
   Minimum threshold for Micro iter.    ....   0.010
   NR start threshold (gradient norm)   ....   0.001
   Initial trust radius                 ....   0.400
   Minimum AH scaling param. (alpha)    ....   1.000
   Maximum AH scaling param. (alpha)    .... 1000.000
   Orbital update algorithm             .... Taylor
   White noise on init. David. guess    .... on
   Maximum white noise                  ....   0.010
   Quad. conv. algorithm                .... NR
 SOSCF                  CNVSOSCF        .... off
 Level Shifting         CNVShift        .... on
   Level shift para.    LevelShift      ....    0.2500
   Turn off err/grad.   ShiftErr        ....    0.0010
 Zerner damping         CNVZerner       .... off
 Static damping         CNVDamp         .... on
   Fraction old density DampFac         ....    0.7000
   Max. Damping (<1)    DampMax         ....    0.9800
   Min. Damping (>=0)   DampMin         ....    0.0000
   Turn off err/grad.   DampErr         ....    0.1000
 Fernandez-Rico         CNVRico         .... off

SCF Procedure:
 Maximum # iterations   MaxIter         ....   125
 SCF integral mode      SCFMode         .... Direct
   Integral package                     .... SHARK and LIBINT hybrid scheme
 Reset frequency        DirectResetFreq ....    20
 Integral Threshold     Thresh          ....  2.500e-11 Eh
 Primitive CutOff       TCut            ....  2.500e-12 Eh

Convergence Tolerance:
 Convergence Check Mode ConvCheckMode   .... Total+1el-Energy
 Convergence forced     ConvForced      .... 0
 Energy Change          TolE            ....  1.000e-08 Eh
 1-El. energy change                    ....  1.000e-05 Eh
 DIIS Error             TolErr          ....  5.000e-07


Diagonalization of the overlap matrix:
Smallest eigenvalue                        ... 5.654e-04
Time for diagonalization                   ...    0.014 sec
Threshold for overlap eigenvalues          ... 1.000e-08
Number of eigenvalues below threshold      ... 0
Time for construction of square roots      ...    0.010 sec
Total time needed                          ...    0.025 sec

Time for model grid setup =    0.098 sec

------------------------------
INITIAL GUESS: MODEL POTENTIAL
------------------------------
Loading Hartree-Fock densities                     ... done
Calculating cut-offs                               ... done
Initializing the effective Hamiltonian             ... done
Setting up the integral package (SHARK)            ... done
Starting the Coulomb interaction                   ... done (   0.0 sec)
Reading the grid                                   ... done
Mapping shells                                     ... done
Starting the XC term evaluation                    ... done (   0.0 sec)
  promolecular density results
     # of electrons  =    108.997795342
     EX              =    -87.765832813
     EC              =     -3.662980537
     EX+EC           =    -91.428813350
Transforming the Hamiltonian                       ... done (   0.0 sec)
Diagonalizing the Hamiltonian                      ... done (   0.0 sec)
Back transforming the eigenvectors                 ... done (   0.0 sec)
Now organizing SCF variables                       ... done
                      ------------------
                      INITIAL GUESS DONE (   0.3 sec)
                      ------------------
-------------------
DFT GRID GENERATION
-------------------

General Integration Accuracy     IntAcc      ... 4.388
Radial Grid Type                 RadialGrid  ... OptM3 with GC (2021)
Angular Grid (max. ang.)         AngularGrid ... 4 (Lebedev-302)
Angular grid pruning method      GridPruning ... 4 (adaptive)
Weight generation scheme         WeightScheme... Becke
Basis function cutoff            BFCut       ... 1.0000e-11
Integration weight cutoff        WCut        ... 1.0000e-14
Angular grids for H and He will be reduced by one unit
Partially contracted basis set               ... off
Rotationally invariant grid construction     ... off

Total number of grid points                  ...   141705
Total number of batches                      ...     2231
Average number of points per batch           ...       63
Average number of grid points per atom       ...     4428
Time for grid setup =    0.571 sec

--------------------
COSX GRID GENERATION
--------------------

GRIDX 1
-------
General Integration Accuracy     IntAcc      ... 3.816
Radial Grid Type                 RadialGrid  ... OptM3 with GC (2021)
Angular Grid (max. ang.)         AngularGrid ... 1 (Lebedev-50)
Angular grid pruning method      GridPruning ... 4 (adaptive)
Weight generation scheme         WeightScheme... Becke
Basis function cutoff            BFCut       ... 1.0000e-11
Integration weight cutoff        WCut        ... 1.0000e-14
Angular grids for H and He will be reduced by one unit
Partially contracted basis set               ... on
Rotationally invariant grid construction     ... off

Total number of grid points                  ...    18096
Total number of batches                      ...      304
Average number of points per batch           ...       59
Average number of grid points per atom       ...      566
UseSFitting                                  ... on

GRIDX 2
-------
General Integration Accuracy     IntAcc      ... 4.020
Radial Grid Type                 RadialGrid  ... OptM3 with GC (2021)
Angular Grid (max. ang.)         AngularGrid ... 2 (Lebedev-110)
Angular grid pruning method      GridPruning ... 4 (adaptive)
Weight generation scheme         WeightScheme... Becke
Basis function cutoff            BFCut       ... 1.0000e-11
Integration weight cutoff        WCut        ... 1.0000e-14
Angular grids for H and He will be reduced by one unit
Partially contracted basis set               ... on
Rotationally invariant grid construction     ... off

Total number of grid points                  ...    38363
Total number of batches                      ...      619
Average number of points per batch           ...       61
Average number of grid points per atom       ...     1199
UseSFitting                                  ... on

GRIDX 3
-------
General Integration Accuracy     IntAcc      ... 4.338
Radial Grid Type                 RadialGrid  ... OptM3 with GC (2021)
Angular Grid (max. ang.)         AngularGrid ... 3 (Lebedev-194)
Angular grid pruning method      GridPruning ... 4 (adaptive)
Weight generation scheme         WeightScheme... Becke
Basis function cutoff            BFCut       ... 1.0000e-11
Integration weight cutoff        WCut        ... 1.0000e-14
Angular grids for H and He will be reduced by one unit
Partially contracted basis set               ... on
Rotationally invariant grid construction     ... off

Total number of grid points                  ...    83711
Total number of batches                      ...     1326
Average number of points per batch           ...       63
Average number of grid points per atom       ...     2616
UseSFitting                                  ... on

Time for X-Grid setup             =    0.719 sec

--------------
SCF ITERATIONS
--------------
ITER       Energy         Delta-E        Max-DP      RMS-DP      [F,P]     Damp
               ***  Starting incremental Fock matrix formation  ***
  0   -667.7050521137   0.000000000000 0.06218926  0.00095429  0.1296260 0.7000
  1   -667.9630015337  -0.257949420056 0.03570153  0.00064450  0.0539347 0.7000
                               ***Turning on DIIS***
  2   -668.0546484282  -0.091646894434 0.04325042  0.00097816  0.0167994 0.0000
  3   -668.2066293583  -0.151980930165 0.02526197  0.00046008  0.0320203 0.0000
  4   -668.2393678610  -0.032738502701 0.00985873  0.00015947  0.0077085 0.0000
  5   -668.2415555363  -0.002187675251 0.00432264  0.00005713  0.0048751 0.0000
  6   -668.2419280035  -0.000372467203 0.00165822  0.00002327  0.0011254 0.0000
  7   -668.2419720465  -0.000044043020 0.00250327  0.00002121  0.0005272 0.0000
               *** Restarting incremental Fock matrix formation ***
                                   *** Resetting DIIS ***
  8   -668.2418865441   0.000085502405 0.00075621  0.00001103  0.0002591 0.0000
  9   -668.2418893212  -0.000002777053 0.00045571  0.00000406  0.0002629 0.0000
 10   -668.2418913295  -0.000002008325 0.00027476  0.00000289  0.0001356 0.0000
 11   -668.2418918092  -0.000000479737 0.00018432  0.00000137  0.0001268 0.0000
 12   -668.2418919538  -0.000000144626 0.00007383  0.00000058  0.0000522 0.0000
 13   -668.2418919870  -0.000000033132 0.00002837  0.00000026  0.0000170 0.0000
 14   -668.2418919959  -0.000000008907 0.00001018  0.00000009  0.0000053 0.0000
 15   -668.2418919926   0.000000003262 0.00000820  0.00000006  0.0000022 0.0000
 16   -668.2418919959  -0.000000003266 0.00000391  0.00000004  0.0000013 0.0000
                 **** Energy Check signals convergence ****

               *****************************************************
               *                     SUCCESS                       *
               *           SCF CONVERGED AFTER  17 CYCLES          *
               *****************************************************

Old exchange energy                            =    -17.869803134 Eh
New exchange energy                            =    -17.869777678 Eh
Exchange energy change after final integration =      0.000025456 Eh
Total energy after final integration           =   -668.241866546 Eh
Final COS-X integration done in                =     2.165 sec

----------------
TOTAL SCF ENERGY
----------------

Total Energy       :         -668.24186655 Eh          -18183.78563 eV

Components:
Nuclear Repulsion  :          915.93765405 Eh           24923.93067 eV
Electronic Energy  :        -1584.17952060 Eh          -43107.71631 eV
One Electron Energy:        -2725.77944436 Eh          -74172.22952 eV
Two Electron Energy:         1141.59992376 Eh           31064.51321 eV
Max COSX asymmetry :            0.00000092 Eh               0.00003 eV

Virial components:
Potential Energy   :        -1332.10441567 Eh          -36248.40398 eV
Kinetic Energy     :          663.86254912 Eh           18064.61835 eV
Virial Ratio       :            2.00659672


DFT components:
N(Alpha)           :       55.000213004360 electrons
N(Beta)            :       54.000211868400 electrons
N(Total)           :      109.000424872760 electrons
E(X)               :      -70.981320163435 Eh       
E(C)               :       -4.320821955761 Eh       
E(XC)              :      -75.302142119196 Eh       
DFET-embed. en.    :        0.000000000000 Eh       

---------------
SCF CONVERGENCE
---------------

  Last Energy change         ...   -6.8439e-09  Tolerance :   1.0000e-08
  Last MAX-Density change    ...    0.0000e+00  Tolerance :   1.0000e-07
  Last RMS-Density change    ...    0.0000e+00  Tolerance :   5.0000e-09
  Last DIIS Error            ...    1.1388e-06  Tolerance :   5.0000e-07

             **** THE GBW FILE WAS UPDATED (opt.gbw) ****
             **** DENSITY opt.scfp WAS UPDATED ****
             **** ENERGY FILE WAS UPDATED (opt.en.tmp) ****
----------------------
UHF SPIN CONTAMINATION
----------------------

Warning: in a DFT calculation there is little theoretical justification to 
         calculate <S**2> as in Hartree-Fock theory. We will do it anyways
         but you should keep in mind that the values have only limited relevance

Expectation value of <S**2>     :     0.754918
Ideal value S*(S+1) for S=0.5   :     0.750000
Deviation                       :     0.004918

             **** THE GBW FILE WAS UPDATED (opt.gbw) ****
             **** DENSITY opt.scfp WAS UPDATED ****
----------------
ORBITAL ENERGIES
----------------
                 SPIN UP ORBITALS
  NO   OCC          E(Eh)            E(eV) 
   0   1.0000     -19.119490      -520.2678 
   1   1.0000     -19.104770      -519.8672 
   2   1.0000     -14.377475      -391.2310 
   3   1.0000     -14.357827      -390.6963 
   4   1.0000     -14.303633      -389.2217 
   5   1.0000     -10.299935      -280.2755 
   6   1.0000     -10.287124      -279.9269 
   7   1.0000     -10.241782      -278.6931 
   8   1.0000     -10.216772      -278.0125 
   9   1.0000     -10.203047      -277.6390 
  10   1.0000     -10.196597      -277.4635 
  11   1.0000     -10.193849      -277.3887 
  12   1.0000     -10.184393      -277.1314 
  13   1.0000     -10.177423      -276.9417 
  14   1.0000      -1.052348       -28.6359 
  15   1.0000      -1.036598       -28.2073 
  16   1.0000      -0.947298       -25.7773 
  17   1.0000      -0.921666       -25.0798 
  18   1.0000      -0.873808       -23.7775 
  19   1.0000      -0.804994       -21.9050 
  20   1.0000      -0.764362       -20.7994 
  21   1.0000      -0.731992       -19.9185 
  22   1.0000      -0.707194       -19.2437 
  23   1.0000      -0.672948       -18.3119 
  24   1.0000      -0.625881       -17.0311 
  25   1.0000      -0.596036       -16.2190 
  26   1.0000      -0.580182       -15.7876 
  27   1.0000      -0.562137       -15.2965 
  28   1.0000      -0.550839       -14.9891 
  29   1.0000      -0.486429       -13.2364 
  30   1.0000      -0.482123       -13.1192 
  31   1.0000      -0.471137       -12.8203 
  32   1.0000      -0.464858       -12.6494 
  33   1.0000      -0.456344       -12.4177 
  34   1.0000      -0.451999       -12.2995 
  35   1.0000      -0.449763       -12.2387 
  36   1.0000      -0.442397       -12.0382 
  37   1.0000      -0.421446       -11.4681 
  38   1.0000      -0.412904       -11.2357 
  39   1.0000      -0.405902       -11.0452 
  40   1.0000      -0.404083       -10.9957 
  41   1.0000      -0.398922       -10.8552 
  42   1.0000      -0.392855       -10.6901 
  43   1.0000      -0.379587       -10.3291 
  44   1.0000      -0.375978       -10.2309 
  45   1.0000      -0.356297        -9.6953 
  46   1.0000      -0.340577        -9.2676 
  47   1.0000      -0.336948        -9.1688 
  48   1.0000      -0.325982        -8.8704 
  49   1.0000      -0.316190        -8.6040 
  50   1.0000      -0.265241        -7.2176 
  51   1.0000      -0.262011        -7.1297 
  52   1.0000      -0.260623        -7.0919 
  53   1.0000      -0.231559        -6.3010 
  54   1.0000      -0.172421        -4.6918 
  55   0.0000       0.010885         0.2962 
  56   0.0000       0.014476         0.3939 
  57   0.0000       0.022734         0.6186 
  58   0.0000       0.029618         0.8059 
  59   0.0000       0.033146         0.9019 
  60   0.0000       0.045177         1.2293 
  61   0.0000       0.056674         1.5422 
  62   0.0000       0.067277         1.8307 
  63   0.0000       0.072717         1.9787 
  64   0.0000       0.076620         2.0849 
  65   0.0000       0.088533         2.4091 
  66   0.0000       0.107839         2.9344 
  67   0.0000       0.118132         3.2145 
  68   0.0000       0.134681         3.6649 
  69   0.0000       0.150201         4.0872 
  70   0.0000       0.161562         4.3963 
  71   0.0000       0.163977         4.4620 
  72   0.0000       0.167964         4.5705 
  73   0.0000       0.179837         4.8936 
  74   0.0000       0.190285         5.1779 
  75   0.0000       0.193227         5.2580 
  76   0.0000       0.199163         5.4195 
  77   0.0000       0.203562         5.5392 
  78   0.0000       0.206204         5.6111 
  79   0.0000       0.212027         5.7695 
  80   0.0000       0.214414         5.8345 
  81   0.0000       0.217957         5.9309 
  82   0.0000       0.222547         6.0558 
  83   0.0000       0.235265         6.4019 
  84   0.0000       0.236401         6.4328 
  85   0.0000       0.240751         6.5512 
  86   0.0000       0.247829         6.7438 
  87   0.0000       0.253934         6.9099 
  88   0.0000       0.257727         7.0131 
  89   0.0000       0.260735         7.0950 
  90   0.0000       0.268951         7.3185 
  91   0.0000       0.277468         7.5503 
  92   0.0000       0.282917         7.6986 
  93   0.0000       0.288276         7.8444 
  94   0.0000       0.291253         7.9254 
  95   0.0000       0.295320         8.0361 
  96   0.0000       0.301666         8.2087 
  97   0.0000       0.304460         8.2848 
  98   0.0000       0.310616         8.4523 
  99   0.0000       0.313348         8.5266 
 100   0.0000       0.319973         8.7069 
 101   0.0000       0.336851         9.1662 
 102   0.0000       0.341835         9.3018 
 103   0.0000       0.347508         9.4562 
 104   0.0000       0.366583         9.9752 
 105   0.0000       0.371617        10.1122 
 106   0.0000       0.385150        10.4805 
 107   0.0000       0.392580        10.6826 
 108   0.0000       0.400291        10.8925 
 109   0.0000       0.409596        11.1457 
 110   0.0000       0.416972        11.3464 
 111   0.0000       0.424097        11.5403 
 112   0.0000       0.431139        11.7319 
 113   0.0000       0.441041        12.0013 
 114   0.0000       0.461903        12.5690 
 115   0.0000       0.466496        12.6940 
 116   0.0000       0.472848        12.8668 
 117   0.0000       0.488392        13.2898 
 118   0.0000       0.495617        13.4864 
 119   0.0000       0.515258        14.0209 
 120   0.0000       0.520064        14.1517 
 121   0.0000       0.524738        14.2788 
 122   0.0000       0.552475        15.0336 
 123   0.0000       0.558257        15.1909 
 124   0.0000       0.566213        15.4074 
 125   0.0000       0.596337        16.2272 
 126   0.0000       0.606984        16.5169 
 127   0.0000       0.620223        16.8771 
 128   0.0000       0.630473        17.1560 
 129   0.0000       0.632760        17.2183 
 130   0.0000       0.653793        17.7906 
 131   0.0000       0.663979        18.0678 
 132   0.0000       0.673081        18.3155 
 133   0.0000       0.699052        19.0222 
 134   0.0000       0.713087        19.4041 
 135   0.0000       0.746801        20.3215 
 136   0.0000       0.759007        20.6536 
 137   0.0000       0.767558        20.8863 
 138   0.0000       0.783524        21.3208 
 139   0.0000       0.807340        21.9688 
 140   0.0000       0.810343        22.0506 
 141   0.0000       0.815344        22.1866 
 142   0.0000       0.822758        22.3884 
 143   0.0000       0.826393        22.4873 
 144   0.0000       0.835651        22.7392 
 145   0.0000       0.847668        23.0662 
 146   0.0000       0.856594        23.3091 
 147   0.0000       0.866292        23.5730 
 148   0.0000       0.868486        23.6327 
 149   0.0000       0.880479        23.9590 
 150   0.0000       0.886999        24.1365 
 151   0.0000       0.898866        24.4594 
 152   0.0000       0.902834        24.5674 
 153   0.0000       0.917768        24.9737 
 154   0.0000       0.924362        25.1532 
 155   0.0000       0.930209        25.3123 
 156   0.0000       0.932023        25.3616 
 157   0.0000       0.939751        25.5719 
 158   0.0000       0.946207        25.7476 
 159   0.0000       0.950962        25.8770 
 160   0.0000       0.953454        25.9448 
 161   0.0000       0.960452        26.1352 
 162   0.0000       0.981313        26.7029 
 163   0.0000       0.986429        26.8421 
 164   0.0000       1.000535        27.2259 
 165   0.0000       1.008067        27.4309 
 166   0.0000       1.013916        27.5901 
 167   0.0000       1.026546        27.9337 
 168   0.0000       1.055073        28.7100 
 169   0.0000       1.068730        29.0816 
 170   0.0000       1.077462        29.3192 
 171   0.0000       1.086900        29.5761 
 172   0.0000       1.100624        29.9495 
 173   0.0000       1.112692        30.2779 
 174   0.0000       1.122452        30.5435 
 175   0.0000       1.135987        30.9118 
 176   0.0000       1.151202        31.3258 
 177   0.0000       1.160526        31.5795 
 178   0.0000       1.174500        31.9598 
 179   0.0000       1.186050        32.2741 
 180   0.0000       1.199929        32.6517 
 181   0.0000       1.204950        32.7884 
 182   0.0000       1.217471        33.1291 
 183   0.0000       1.247626        33.9496 
 184   0.0000       1.284801        34.9612 
 185   0.0000       1.295727        35.2585 
 186   0.0000       1.332804        36.2674 
 187   0.0000       1.341044        36.4917 
 188   0.0000       1.348806        36.7029 
 189   0.0000       1.369951        37.2783 
 190   0.0000       1.377625        37.4871 
 191   0.0000       1.381569        37.5944 
 192   0.0000       1.395730        37.9798 
 193   0.0000       1.402271        38.1577 
 194   0.0000       1.409661        38.3588 
 195   0.0000       1.434406        39.0322 
 196   0.0000       1.451739        39.5038 
 197   0.0000       1.470407        40.0118 
 198   0.0000       1.483192        40.3597 
 199   0.0000       1.491984        40.5989 
 200   0.0000       1.494919        40.6788 
 201   0.0000       1.511574        41.1320 
 202   0.0000       1.531183        41.6656 
 203   0.0000       1.538679        41.8696 
 204   0.0000       1.544204        42.0199 
 205   0.0000       1.560396        42.4605 
 206   0.0000       1.573688        42.8222 
 207   0.0000       1.580830        43.0166 
 208   0.0000       1.586931        43.1826 
 209   0.0000       1.597666        43.4747 
 210   0.0000       1.611078        43.8397 
 211   0.0000       1.621634        44.1269 
 212   0.0000       1.627963        44.2991 
 213   0.0000       1.643934        44.7337 
 214   0.0000       1.650538        44.9134 
 215   0.0000       1.663501        45.2662 
 216   0.0000       1.667818        45.3836 
 217   0.0000       1.681165        45.7468 
 218   0.0000       1.692316        46.0503 
 219   0.0000       1.704272        46.3756 
 220   0.0000       1.712632        46.6031 
 221   0.0000       1.720035        46.8045 
 222   0.0000       1.734291        47.1925 
 223   0.0000       1.741385        47.3855 
 224   0.0000       1.754807        47.7507 
 225   0.0000       1.760277        47.8996 
 226   0.0000       1.773789        48.2672 
 227   0.0000       1.795268        48.8517 
 228   0.0000       1.807744        49.1912 
 229   0.0000       1.828347        49.7519 
 230   0.0000       1.835438        49.9448 
 231   0.0000       1.846719        50.2518 
 232   0.0000       1.861554        50.6555 
 233   0.0000       1.866816        50.7987 
 234   0.0000       1.871925        50.9377 
 235   0.0000       1.913770        52.0763 
 236   0.0000       1.927234        52.4427 
 237   0.0000       1.944768        52.9198 
 238   0.0000       1.951313        53.0979 
 239   0.0000       1.970752        53.6269 
 240   0.0000       2.000745        54.4430 
 241   0.0000       2.005585        54.5748 
 242   0.0000       2.018294        54.9206 
 243   0.0000       2.021181        54.9991 
 244   0.0000       2.053051        55.8664 
 245   0.0000       2.069630        56.3175 
 246   0.0000       2.094218        56.9866 
 247   0.0000       2.101838        57.1939 
 248   0.0000       2.133305        58.0502 
 249   0.0000       2.155048        58.6418 
 250   0.0000       2.173275        59.1378 
 251   0.0000       2.187819        59.5336 
 252   0.0000       2.212405        60.2026 
 253   0.0000       2.228886        60.6511 
 254   0.0000       2.235034        60.8184 
 255   0.0000       2.242448        61.0201 
 256   0.0000       2.269095        61.7452 
 257   0.0000       2.273605        61.8679 
 258   0.0000       2.287816        62.2546 
 259   0.0000       2.303015        62.6682 
 260   0.0000       2.326460        63.3062 
 261   0.0000       2.358672        64.1827 
 262   0.0000       2.367946        64.4351 
 263   0.0000       2.373890        64.5968 
 264   0.0000       2.384250        64.8787 
 265   0.0000       2.393621        65.1337 
 266   0.0000       2.401112        65.3376 
 267   0.0000       2.420056        65.8531 
 268   0.0000       2.428097        66.0719 
 269   0.0000       2.437320        66.3228 
 270   0.0000       2.451967        66.7214 
 271   0.0000       2.466542        67.1180 
 272   0.0000       2.475680        67.3667 
 273   0.0000       2.485675        67.6386 
 274   0.0000       2.489129        67.7326 
 275   0.0000       2.499556        68.0164 
 276   0.0000       2.516951        68.4897 
 277   0.0000       2.559225        69.6401 
 278   0.0000       2.572981        70.0144 
 279   0.0000       2.594912        70.6111 
 280   0.0000       2.632533        71.6349 
 281   0.0000       2.637283        71.7641 
 282   0.0000       2.678874        72.8959 
 283   0.0000       2.704721        73.5992 
 284   0.0000       2.737904        74.5022 
 285   0.0000       2.739440        74.5439 
 286   0.0000       2.754335        74.9493 
 287   0.0000       2.758272        75.0564 
 288   0.0000       2.768282        75.3288 
 289   0.0000       2.823238        76.8242 
 290   0.0000       2.889382        78.6241 
 291   0.0000       2.914388        79.3045 
 292   0.0000       3.016151        82.0736 
 293   0.0000       3.081843        83.8612 
 294   0.0000       3.102862        84.4332 
 295   0.0000       3.114615        84.7530 
 296   0.0000       3.388465        92.2048 
 297   0.0000       3.437440        93.5375 
 298   0.0000       3.458776        94.1181 
 299   0.0000       3.485858        94.8550 
 300   0.0000       4.930855       134.1754 
 301   0.0000       4.957087       134.8892 
 302   0.0000       4.974632       135.3666 
 303   0.0000       4.995372       135.9310 
 304   0.0000       5.004805       136.1877 
 305   0.0000       5.012847       136.4065 
 306   0.0000       5.028729       136.8387 
 307   0.0000       5.039518       137.1323 
 308   0.0000       5.050048       137.4188 
 309   0.0000       5.100026       138.7788 
 310   0.0000       5.128482       139.5531 
 311   0.0000       5.152131       140.1966 
 312   0.0000       5.169906       140.6803 
 313   0.0000       5.225881       142.2035 
 314   0.0000       5.265100       143.2706 
 315   0.0000       5.276111       143.5703 
 316   0.0000       5.290855       143.9715 
 317   0.0000       5.304797       144.3509 
 318   0.0000       5.340814       145.3309 
 319   0.0000       5.371932       146.1777 
 320   0.0000       5.401449       146.9809 
 321   0.0000       5.522447       150.2734 
 322   0.0000       5.606000       152.5470 
 323   0.0000       5.675220       154.4306 
 324   0.0000       5.703876       155.2104 
 325   0.0000       5.757499       156.6695 
 326   0.0000       5.876476       159.9070 
 327   0.0000       7.222567       196.5360 
 328   0.0000       7.328374       199.4152 
 329   0.0000       7.350944       200.0294 
 330   0.0000       9.091768       247.3996 
 331   0.0000       9.142383       248.7769 
 332   0.0000      29.583069       804.9962 
 333   0.0000      29.629155       806.2503 
 334   0.0000      29.803541       810.9956 
 335   0.0000      29.892888       813.4268 
 336   0.0000      29.969639       815.5153 
 337   0.0000      30.068331       818.2009 
 338   0.0000      30.094230       818.9056 
 339   0.0000      30.141918       820.2033 
 340   0.0000      30.285988       824.1236 
 341   0.0000      36.544257       994.4198 
 342   0.0000      36.594263       995.7805 
 343   0.0000      36.612091       996.2657 
 344   0.0000      36.616558       996.3872 
 345   0.0000      36.619719       996.4732 
 346   0.0000      36.644022       997.1345 
 347   0.0000      36.659933       997.5675 
 348   0.0000      36.667187       997.7649 
 349   0.0000      36.707713       998.8677 
 350   0.0000      36.711203       998.9626 
 351   0.0000      36.727207       999.3981 
 352   0.0000      36.767174      1000.4857 
 353   0.0000      36.838100      1002.4157 
 354   0.0000      36.875617      1003.4366 
 355   0.0000      36.893216      1003.9154 
 356   0.0000      36.908636      1004.3351 
 357   0.0000      36.912885      1004.4507 
 358   0.0000      36.953552      1005.5573 
 359   0.0000      41.164897      1120.1538 
 360   0.0000      41.280352      1123.2955 
 361   0.0000      41.293701      1123.6587 
 362   0.0000      53.630941      1459.3721 
 363   0.0000      53.677961      1460.6516 

                 SPIN DOWN ORBITALS
  NO   OCC          E(Eh)            E(eV) 
   0   1.0000     -19.116900      -520.1973 
   1   1.0000     -19.102211      -519.7976 
   2   1.0000     -14.375813      -391.1858 
   3   1.0000     -14.356347      -390.6561 
   4   1.0000     -14.303609      -389.2210 
   5   1.0000     -10.299435      -280.2619 
   6   1.0000     -10.287470      -279.9363 
   7   1.0000     -10.231894      -278.4240 
   8   1.0000     -10.216858      -278.0148 
   9   1.0000     -10.203025      -277.6384 
  10   1.0000     -10.197210      -277.4802 
  11   1.0000     -10.193896      -277.3900 
  12   1.0000     -10.183415      -277.1048 
  13   1.0000     -10.177329      -276.9392 
  14   1.0000      -1.047443       -28.5024 
  15   1.0000      -1.032248       -28.0889 
  16   1.0000      -0.939898       -25.5759 
  17   1.0000      -0.918041       -24.9812 
  18   1.0000      -0.873718       -23.7751 
  19   1.0000      -0.799209       -21.7476 
  20   1.0000      -0.759432       -20.6652 
  21   1.0000      -0.729877       -19.8610 
  22   1.0000      -0.706195       -19.2165 
  23   1.0000      -0.666124       -18.1261 
  24   1.0000      -0.624146       -16.9839 
  25   1.0000      -0.593768       -16.1573 
  26   1.0000      -0.579389       -15.7660 
  27   1.0000      -0.558980       -15.2106 
  28   1.0000      -0.546656       -14.8753 
  29   1.0000      -0.485696       -13.2165 
  30   1.0000      -0.480770       -13.0824 
  31   1.0000      -0.467421       -12.7192 
  32   1.0000      -0.457259       -12.4426 
  33   1.0000      -0.454138       -12.3577 
  34   1.0000      -0.447691       -12.1823 
  35   1.0000      -0.445209       -12.1148 
  36   1.0000      -0.441501       -12.0138 
  37   1.0000      -0.418729       -11.3942 
  38   1.0000      -0.408447       -11.1144 
  39   1.0000      -0.404441       -11.0054 
  40   1.0000      -0.399635       -10.8746 
  41   1.0000      -0.394337       -10.7305 
  42   1.0000      -0.391136       -10.6433 
  43   1.0000      -0.375477       -10.2173 
  44   1.0000      -0.369306       -10.0493 
  45   1.0000      -0.354628        -9.6499 
  46   1.0000      -0.338244        -9.2041 
  47   1.0000      -0.332786        -9.0556 
  48   1.0000      -0.325454        -8.8561 
  49   1.0000      -0.299196        -8.1415 
  50   1.0000      -0.259603        -7.0642 
  51   1.0000      -0.259242        -7.0543 
  52   1.0000      -0.249846        -6.7986 
  53   1.0000      -0.231494        -6.2993 
  54   0.0000      -0.079349        -2.1592 
  55   0.0000       0.011386         0.3098 
  56   0.0000       0.022910         0.6234 
  57   0.0000       0.026350         0.7170 
  58   0.0000       0.030420         0.8278 
  59   0.0000       0.033974         0.9245 
  60   0.0000       0.045601         1.2409 
  61   0.0000       0.057985         1.5779 
  62   0.0000       0.068164         1.8548 
  63   0.0000       0.076839         2.0909 
  64   0.0000       0.088255         2.4015 
  65   0.0000       0.094496         2.5714 
  66   0.0000       0.108960         2.9650 
  67   0.0000       0.120488         3.2786 
  68   0.0000       0.137464         3.7406 
  69   0.0000       0.150718         4.1012 
  70   0.0000       0.162377         4.4185 
  71   0.0000       0.165235         4.4963 
  72   0.0000       0.169668         4.6169 
  73   0.0000       0.180469         4.9108 
  74   0.0000       0.192180         5.2295 
  75   0.0000       0.193653         5.2696 
  76   0.0000       0.200378         5.4526 
  77   0.0000       0.204743         5.5713 
  78   0.0000       0.208683         5.6786 
  79   0.0000       0.213022         5.7966 
  80   0.0000       0.215466         5.8631 
  81   0.0000       0.218663         5.9501 
  82   0.0000       0.224687         6.1140 
  83   0.0000       0.237449         6.4613 
  84   0.0000       0.238982         6.5030 
  85   0.0000       0.241411         6.5691 
  86   0.0000       0.248318         6.7571 
  87   0.0000       0.254463         6.9243 
  88   0.0000       0.258446         7.0327 
  89   0.0000       0.261359         7.1120 
  90   0.0000       0.269869         7.3435 
  91   0.0000       0.280004         7.6193 
  92   0.0000       0.284040         7.7291 
  93   0.0000       0.289089         7.8665 
  94   0.0000       0.293237         7.9794 
  95   0.0000       0.300058         8.1650 
  96   0.0000       0.303273         8.2525 
  97   0.0000       0.308507         8.3949 
  98   0.0000       0.311731         8.4826 
  99   0.0000       0.317669         8.6442 
 100   0.0000       0.322621         8.7790 
 101   0.0000       0.337233         9.1766 
 102   0.0000       0.343721         9.3531 
 103   0.0000       0.348790         9.4911 
 104   0.0000       0.368635        10.0311 
 105   0.0000       0.373994        10.1769 
 106   0.0000       0.387846        10.5538 
 107   0.0000       0.394209        10.7270 
 108   0.0000       0.401074        10.9138 
 109   0.0000       0.411137        11.1876 
 110   0.0000       0.418551        11.3894 
 111   0.0000       0.425146        11.5688 
 112   0.0000       0.432027        11.7561 
 113   0.0000       0.442620        12.0443 
 114   0.0000       0.463453        12.6112 
 115   0.0000       0.468409        12.7461 
 116   0.0000       0.475361        12.9352 
 117   0.0000       0.491067        13.3626 
 118   0.0000       0.500661        13.6237 
 119   0.0000       0.518925        14.1207 
 120   0.0000       0.522734        14.2243 
 121   0.0000       0.530501        14.4357 
 122   0.0000       0.554390        15.0857 
 123   0.0000       0.560481        15.2515 
 124   0.0000       0.568235        15.4625 
 125   0.0000       0.600374        16.3370 
 126   0.0000       0.609517        16.5858 
 127   0.0000       0.625824        17.0295 
 128   0.0000       0.632639        17.2150 
 129   0.0000       0.634919        17.2770 
 130   0.0000       0.657822        17.9002 
 131   0.0000       0.666432        18.1345 
 132   0.0000       0.673642        18.3307 
 133   0.0000       0.701853        19.0984 
 134   0.0000       0.714072        19.4309 
 135   0.0000       0.748928        20.3794 
 136   0.0000       0.762576        20.7507 
 137   0.0000       0.768291        20.9063 
 138   0.0000       0.787027        21.4161 
 139   0.0000       0.808282        21.9945 
 140   0.0000       0.811797        22.0901 
 141   0.0000       0.816709        22.2238 
 142   0.0000       0.825357        22.4591 
 143   0.0000       0.827375        22.5140 
 144   0.0000       0.836737        22.7688 
 145   0.0000       0.850200        23.1351 
 146   0.0000       0.858727        23.3671 
 147   0.0000       0.869030        23.6475 
 148   0.0000       0.869913        23.6715 
 149   0.0000       0.883038        24.0287 
 150   0.0000       0.888201        24.1692 
 151   0.0000       0.900233        24.4966 
 152   0.0000       0.903629        24.5890 
 153   0.0000       0.918382        24.9905 
 154   0.0000       0.925274        25.1780 
 155   0.0000       0.931152        25.3379 
 156   0.0000       0.932553        25.3761 
 157   0.0000       0.940990        25.6056 
 158   0.0000       0.948030        25.7972 
 159   0.0000       0.952292        25.9132 
 160   0.0000       0.954398        25.9705 
 161   0.0000       0.962523        26.1916 
 162   0.0000       0.983650        26.7665 
 163   0.0000       0.991368        26.9765 
 164   0.0000       1.002667        27.2840 
 165   0.0000       1.009791        27.4778 
 166   0.0000       1.016000        27.6468 
 167   0.0000       1.038111        28.2484 
 168   0.0000       1.059459        28.8293 
 169   0.0000       1.073133        29.2014 
 170   0.0000       1.079106        29.3640 
 171   0.0000       1.087369        29.5888 
 172   0.0000       1.102399        29.9978 
 173   0.0000       1.114172        30.3182 
 174   0.0000       1.124613        30.6023 
 175   0.0000       1.139693        31.0126 
 176   0.0000       1.152673        31.3658 
 177   0.0000       1.163493        31.6603 
 178   0.0000       1.175734        31.9934 
 179   0.0000       1.187110        32.3029 
 180   0.0000       1.201305        32.6892 
 181   0.0000       1.206259        32.8240 
 182   0.0000       1.218654        33.1613 
 183   0.0000       1.249302        33.9952 
 184   0.0000       1.285943        34.9923 
 185   0.0000       1.296852        35.2891 
 186   0.0000       1.336623        36.3714 
 187   0.0000       1.343502        36.5586 
 188   0.0000       1.349796        36.7298 
 189   0.0000       1.372475        37.3470 
 190   0.0000       1.379707        37.5437 
 191   0.0000       1.381988        37.6058 
 192   0.0000       1.398245        38.0482 
 193   0.0000       1.403321        38.1863 
 194   0.0000       1.410184        38.3731 
 195   0.0000       1.436938        39.1011 
 196   0.0000       1.454623        39.5823 
 197   0.0000       1.471670        40.0462 
 198   0.0000       1.488038        40.4916 
 199   0.0000       1.494070        40.6557 
 200   0.0000       1.496069        40.7101 
 201   0.0000       1.514263        41.2052 
 202   0.0000       1.532931        41.7132 
 203   0.0000       1.541518        41.9468 
 204   0.0000       1.547240        42.1025 
 205   0.0000       1.564024        42.5593 
 206   0.0000       1.575699        42.8770 
 207   0.0000       1.582846        43.0714 
 208   0.0000       1.589346        43.2483 
 209   0.0000       1.599773        43.5320 
 210   0.0000       1.612093        43.8673 
 211   0.0000       1.623433        44.1758 
 212   0.0000       1.628772        44.3211 
 213   0.0000       1.645012        44.7631 
 214   0.0000       1.653167        44.9850 
 215   0.0000       1.665207        45.3126 
 216   0.0000       1.669040        45.4169 
 217   0.0000       1.683428        45.8084 
 218   0.0000       1.694217        46.1020 
 219   0.0000       1.705389        46.4060 
 220   0.0000       1.714014        46.6407 
 221   0.0000       1.723086        46.8875 
 222   0.0000       1.736076        47.2410 
 223   0.0000       1.743778        47.4506 
 224   0.0000       1.757744        47.8307 
 225   0.0000       1.761977        47.9458 
 226   0.0000       1.776471        48.3402 
 227   0.0000       1.796922        48.8967 
 228   0.0000       1.809328        49.2343 
 229   0.0000       1.829787        49.7910 
 230   0.0000       1.836844        49.9831 
 231   0.0000       1.848086        50.2890 
 232   0.0000       1.865834        50.7719 
 233   0.0000       1.868269        50.8382 
 234   0.0000       1.873408        50.9780 
 235   0.0000       1.915860        52.1332 
 236   0.0000       1.928958        52.4896 
[...]
      dxy     :     0.019904
  6 C s       :     2.883366  s :     2.883366
      pz      :     1.018055  p :     3.035231
      px      :     0.993405
      py      :     1.023771
      dz2     :     0.020438  d :     0.167439
      dxz     :     0.046491
      dyz     :     0.036240
      dx2y2   :     0.043835
      dxy     :     0.020436
  7 C s       :     2.872852  s :     2.872852
      pz      :     0.998421  p :     2.969967
      px      :     0.941408
      py      :     1.030138
      dz2     :     0.030961  d :     0.218232
      dxz     :     0.066199
      dyz     :     0.040866
      dx2y2   :     0.050854
      dxy     :     0.029352
  8 N s       :     3.178961  s :     3.178961
      pz      :     1.428422  p :     3.865158
      px      :     1.112410
      py      :     1.324326
      dz2     :     0.005461  d :     0.052997
      dxz     :     0.020489
      dyz     :     0.004285
      dx2y2   :     0.018695
      dxy     :     0.004066
  9 H s       :     0.846745  s :     0.846745
      pz      :     0.021087  p :     0.085181
      px      :     0.015714
      py      :     0.048381
 10 H s       :     0.875108  s :     0.875108
      pz      :     0.035630  p :     0.080786
      px      :     0.016230
      py      :     0.028926
 11 H s       :     0.879483  s :     0.879483
      pz      :     0.022510  p :     0.079729
      px      :     0.016138
      py      :     0.041080
 12 H s       :     0.863918  s :     0.863918
      pz      :     0.034794  p :     0.082237
      px      :     0.016628
      py      :     0.030814
 13 H s       :     0.874092  s :     0.874092
      pz      :     0.021568  p :     0.079639
      px      :     0.016385
      py      :     0.041686
 14 H s       :     0.872930  s :     0.872930
      pz      :     0.035387  p :     0.080170
      px      :     0.016458
      py      :     0.028325
 15 H s       :     0.885578  s :     0.885578
      pz      :     0.019449  p :     0.077335
      px      :     0.014690
      py      :     0.043196
 16 H s       :     0.895582  s :     0.895582
      pz      :     0.035956  p :     0.079134
      px      :     0.015713
      py      :     0.027465
 17 H s       :     0.810726  s :     0.810726
      pz      :     0.052510  p :     0.140486
      px      :     0.055262
      py      :     0.032715
 18 H s       :     0.807492  s :     0.807492
      pz      :     0.043863  p :     0.140711
      px      :     0.022874
      py      :     0.073974
 19 H s       :     0.744219  s :     0.744219
      pz      :     0.041018  p :     0.152906
      px      :     0.072337
      py      :     0.039551
 20 C s       :     2.841942  s :     2.841942
      pz      :     0.865859  p :     2.777890
      px      :     0.977088
      py      :     0.934943
      dz2     :     0.047064  d :     0.479993
      dxz     :     0.080267
      dyz     :     0.068225
      dx2y2   :     0.151767
      dxy     :     0.132671
 21 N s       :     3.066243  s :     3.066243
      pz      :     1.475448  p :     3.822352
      px      :     1.190576
      py      :     1.156329
      dz2     :     0.006662  d :     0.079283
      dxz     :     0.005551
      dyz     :     0.018537
      dx2y2   :     0.027135
      dxy     :     0.021399
 22 H s       :     0.776807  s :     0.776807
      pz      :     0.050055  p :     0.149328
      px      :     0.075614
      py      :     0.023659
 23 O s       :     3.584722  s :     3.584722
      pz      :     1.460948  p :     4.554581
      px      :     1.452477
      py      :     1.641156
      dz2     :     0.004118  d :     0.032240
      dxz     :     0.007094
      dyz     :     0.002636
      dx2y2   :     0.007958
      dxy     :     0.010435
 24 C s       :     2.869963  s :     2.869963
      pz      :     1.028728  p :     3.062970
      px      :     1.006537
      py      :     1.027705
      dz2     :     0.012249  d :     0.106681
      dxz     :     0.026671
      dyz     :     0.025457
      dx2y2   :     0.010335
      dxy     :     0.031968
 25 H s       :     0.863507  s :     0.863507
      pz      :     0.035895  p :     0.081556
      px      :     0.021589
      py      :     0.024071
 26 H s       :     0.862252  s :     0.862252
      pz      :     0.027828  p :     0.081679
      px      :     0.019904
      py      :     0.033948
 27 H s       :     0.883189  s :     0.883189
      pz      :     0.020397  p :     0.081725
      px      :     0.035309
      py      :     0.026019
 28 C s       :     2.857475  s :     2.857475
      pz      :     1.042477  p :     2.974026
      px      :     1.043187
      py      :     0.888362
      dz2     :     0.024540  d :     0.161910
      dxz     :     0.008789
      dyz     :     0.054039
      dx2y2   :     0.043778
      dxy     :     0.030765
 29 H s       :     0.865460  s :     0.865460
      pz      :     0.017343  p :     0.083005
      px      :     0.051966
      py      :     0.013695
 30 H s       :     0.890556  s :     0.890556
      pz      :     0.038418  p :     0.078683
      px      :     0.018738
      py      :     0.021528
 31 H s       :     0.890136  s :     0.890136
      pz      :     0.037580  p :     0.078983
      px      :     0.020694
      py      :     0.020708

SPIN
  0 N s       :     0.000461  s :     0.000461
      pz      :     0.043126  p :     0.060327
      px      :     0.014486
      py      :     0.002714
      dz2     :     0.005060  d :     0.012236
      dxz     :     0.000170
      dyz     :     0.004152
      dx2y2   :     0.000146
      dxy     :     0.002706
  1 C s       :     0.016874  s :     0.016874
      pz      :     0.340680  p :     0.507675
      px      :     0.135209
      py      :     0.031786
      dz2     :    -0.000197  d :     0.001647
      dxz     :    -0.001078
      dyz     :     0.002796
      dx2y2   :    -0.000079
      dxy     :     0.000205
  2 C s       :    -0.003150  s :    -0.003150
      pz      :     0.011454  p :     0.007340
      px      :     0.002039
      py      :    -0.006153
      dz2     :     0.000341  d :     0.030716
      dxz     :     0.004845
      dyz     :     0.014721
      dx2y2   :     0.007010
      dxy     :     0.003799
  3 O s       :     0.000979  s :     0.000979
      pz      :     0.068525  p :     0.092827
      px      :     0.021629
      py      :     0.002674
      dz2     :    -0.000021  d :    -0.000139
      dxz     :    -0.000017
      dyz     :    -0.000016
      dx2y2   :    -0.000034
      dxy     :    -0.000050
  4 C s       :    -0.002156  s :    -0.002156
      pz      :    -0.004361  p :    -0.014520
      px      :    -0.007866
      py      :    -0.002293
      dz2     :     0.004872  d :     0.024219
      dxz     :     0.009120
      dyz     :     0.001072
      dx2y2   :     0.008828
      dxy     :     0.000326
  5 C s       :     0.008566  s :     0.008566
      pz      :     0.006307  p :     0.025319
      px      :     0.017973
      py      :     0.001040
      dz2     :    -0.000155  d :    -0.000049
      dxz     :     0.000237
      dyz     :    -0.000098
      dx2y2   :    -0.000051
      dxy     :     0.000018
  6 C s       :     0.000477  s :     0.000477
      pz      :     0.000749  p :     0.002892
      px      :     0.001873
      py      :     0.000269
      dz2     :     0.000241  d :     0.000552
      dxz     :     0.000029
      dyz     :     0.000002
      dx2y2   :     0.000268
      dxy     :     0.000011
  7 C s       :     0.000189  s :     0.000189
      pz      :     0.000148  p :     0.000422
      px      :     0.000248
      py      :     0.000026
      dz2     :     0.000050  d :     0.000332
      dxz     :     0.000126
      dyz     :    -0.000002
      dx2y2   :     0.000133
      dxy     :     0.000024
  8 N s       :     0.000264  s :     0.000264
      pz      :     0.000015  p :     0.000425
      px      :     0.000348
      py      :     0.000062
      dz2     :     0.000005  d :     0.000020
      dxz     :     0.000004
      dyz     :    -0.000000
      dx2y2   :     0.000011
      dxy     :     0.000000
  9 H s       :     0.008520  s :     0.008520
      pz      :     0.000123  p :    -0.000529
      px      :    -0.000371
      py      :    -0.000281
 10 H s       :     0.005149  s :     0.005149
      pz      :     0.000059  p :    -0.000463
      px      :    -0.000412
      py      :    -0.000110
 11 H s       :    -0.000912  s :    -0.000912
      pz      :     0.000363  p :     0.000793
      px      :     0.000271
      py      :     0.000160
 12 H s       :    -0.000811  s :    -0.000811
      pz      :     0.000457  p :     0.000829
      px      :     0.000292
      py      :     0.000080
 13 H s       :    -0.000116  s :    -0.000116
      pz      :    -0.000002  p :     0.000145
      px      :     0.000132
      py      :     0.000015
 14 H s       :    -0.000108  s :    -0.000108
      pz      :     0.000002  p :     0.000122
      px      :     0.000086
      py      :     0.000034
 15 H s       :     0.000034  s :     0.000034
      pz      :     0.000001  p :    -0.000006
      px      :    -0.000009
      py      :     0.000001
 16 H s       :    -0.000002  s :    -0.000002
      pz      :     0.000006  p :    -0.000005
      px      :    -0.000010
      py      :    -0.000001
 17 H s       :     0.000143  s :     0.000143
      pz      :     0.000001  p :     0.000028
      px      :     0.000025
      py      :     0.000003
 18 H s       :    -0.000012  s :    -0.000012
      pz      :    -0.000000  p :     0.000014
      px      :     0.000007
      py      :     0.000007
 19 H s       :    -0.001882  s :    -0.001882
      pz      :     0.002599  p :     0.004021
      px      :     0.001125
      py      :     0.000296
 20 C s       :     0.000376  s :     0.000376
      pz      :     0.024843  p :     0.032322
      px      :     0.005742
      py      :     0.001737
      dz2     :     0.000359  d :     0.015512
      dxz     :     0.003789
      dyz     :     0.007329
      dx2y2   :     0.003352
      dxy     :     0.000683
 21 N s       :     0.001543  s :     0.001543
      pz      :     0.041226  p :     0.055103
      px      :     0.011960
      py      :     0.001917
      dz2     :    -0.000040  d :    -0.000365
      dxz     :    -0.000066
      dyz     :     0.000016
      dx2y2   :    -0.000243
      dxy     :    -0.000032
 22 H s       :    -0.001347  s :    -0.001347
      pz      :     0.001721  p :     0.002205
      px      :     0.000261
      py      :     0.000223
 23 O s       :     0.001139  s :     0.001139
      pz      :     0.069446  p :     0.090141
      px      :     0.015221
      py      :     0.005474
      dz2     :     0.000029  d :     0.000116
      dxz     :     0.000035
      dyz     :     0.000040
      dx2y2   :     0.000031
      dxy     :    -0.000018
 24 C s       :    -0.000665  s :    -0.000665
      pz      :    -0.000307  p :    -0.001935
      px      :    -0.000650
      py      :    -0.000978
      dz2     :     0.000678  d :     0.002558
      dxz     :     0.000013
      dyz     :     0.001151
      dx2y2   :    -0.000043
      dxy     :     0.000759
 25 H s       :     0.003405  s :     0.003405
      pz      :    -0.000020  p :    -0.000112
      px      :    -0.000036
      py      :    -0.000056
 26 H s       :     0.003776  s :     0.003776
      pz      :    -0.000042  p :    -0.000134
      px      :    -0.000037
      py      :    -0.000056
 27 H s       :    -0.000034  s :    -0.000034
      pz      :    -0.000059  p :    -0.000133
      px      :    -0.000052
      py      :    -0.000022
 28 C s       :    -0.000522  s :    -0.000522
      pz      :    -0.000377  p :    -0.002913
      px      :    -0.000595
      py      :    -0.001941
      dz2     :     0.000112  d :     0.003477
      dxz     :     0.000017
      dyz     :     0.002594
      dx2y2   :     0.000310
      dxy     :     0.000444
 29 H s       :     0.000651  s :     0.000651
      pz      :    -0.000035  p :    -0.000134
      px      :    -0.000051
      py      :    -0.000049
 30 H s       :     0.001600  s :     0.001600
      pz      :    -0.000034  p :    -0.000115
      px      :    -0.000010
      py      :    -0.000070
 31 H s       :     0.004943  s :     0.004943
      pz      :    -0.000075  p :    -0.000156
      px      :    -0.000028
      py      :    -0.000053


                      *****************************
                      * MAYER POPULATION ANALYSIS *
                      *****************************

  NA   - Mulliken gross atomic population
  ZA   - Total nuclear charge
  QA   - Mulliken gross atomic charge
  VA   - Mayer's total valence
  BVA  - Mayer's bonded valence
  FA   - Mayer's free valence

  ATOM       NA         ZA         QA         VA         BVA        FA
  0 N      7.0260     7.0000    -0.0260     3.4526     3.4459     0.0067
  1 C      5.8516     6.0000     0.1484     3.7402     3.4008     0.3394
  2 C      5.9846     6.0000     0.0154     4.0581     4.0563     0.0018
  3 O      8.3818     8.0000    -0.3818     2.0454     2.0359     0.0095
  4 C      6.3387     6.0000    -0.3387     4.0026     4.0013     0.0014
  5 C      6.2682     6.0000    -0.2682     3.8825     3.8813     0.0011
  6 C      6.2659     6.0000    -0.2659     3.8946     3.8946     0.0000
  7 C      6.3041     6.0000    -0.3041     3.9227     3.9227     0.0000
  8 N      7.4537     7.0000    -0.4537     2.9735     2.9735     0.0000
  9 H      0.8130     1.0000     0.1870     0.9643     0.9641     0.0001
 10 H      0.8790     1.0000     0.1210     0.9706     0.9706     0.0000
 11 H      0.8616     1.0000     0.1384     0.9695     0.9695     0.0000
 12 H      0.8221     1.0000     0.1779     0.9708     0.9708     0.0000
 13 H      0.8452     1.0000     0.1548     0.9680     0.9680     0.0000
 14 H      0.8455     1.0000     0.1545     0.9703     0.9703     0.0000
 15 H      0.8447     1.0000     0.1553     0.9544     0.9544     0.0000
 16 H      0.8596     1.0000     0.1404     0.9458     0.9458     0.0000
 17 H      0.7912     1.0000     0.2088     0.9592     0.9592     0.0000
 18 H      0.7893     1.0000     0.2107     0.9594     0.9594     0.0000
 19 H      0.7494     1.0000     0.2506     0.9758     0.9758     0.0000
 20 C      5.8960     6.0000     0.1040     4.0229     4.0207     0.0022
 21 N      7.1152     7.0000    -0.1152     3.1765     3.1731     0.0034
 22 H      0.7756     1.0000     0.2244     0.9687     0.9687     0.0000
 23 O      8.2889     8.0000    -0.2889     2.1347     2.1255     0.0093
 24 C      6.5433     6.0000    -0.5433     3.8463     3.8462     0.0000
 25 H      0.8128     1.0000     0.1872     0.9581     0.9581     0.0000
 26 H      0.8120     1.0000     0.1880     0.9576     0.9576     0.0000
 27 H      0.8484     1.0000     0.1516     0.9713     0.9713    -0.0000
 28 C      6.4469     6.0000    -0.4469     3.9160     3.9159     0.0000
 29 H      0.8020     1.0000     0.1980     0.9601     0.9601     0.0000
 30 H      0.8500     1.0000     0.1500     0.9632     0.9632     0.0000
 31 H      0.8335     1.0000     0.1665     0.9532     0.9531     0.0001

  Mayer bond orders larger than 0.100000
B(  0-N ,  1-C ) :   1.2382 B(  0-N , 19-H ) :   0.8707 B(  0-N , 20-C ) :   1.1600 
B(  1-C ,  2-C ) :   1.0727 B(  1-C ,  4-C ) :   0.9629 B(  2-C ,  3-O ) :   1.7391 
B(  2-C , 21-N ) :   1.1672 B(  4-C ,  5-C ) :   0.9462 B(  4-C ,  9-H ) :   0.9612 
B(  4-C , 10-H ) :   0.9879 B(  5-C ,  6-C ) :   0.9533 B(  5-C , 11-H ) :   0.9846 
B(  5-C , 12-H ) :   0.9645 B(  6-C ,  7-C ) :   0.9566 B(  6-C , 13-H ) :   0.9779 
B(  6-C , 14-H ) :   0.9723 B(  7-C ,  8-N ) :   1.0323 B(  7-C , 15-H ) :   0.9627 
B(  7-C , 16-H ) :   0.9420 B(  8-N , 17-H ) :   0.9451 B(  8-N , 18-H ) :   0.9469 
B( 20-C , 23-O ) :   1.8943 B( 20-C , 24-C ) :   0.8984 B( 21-N , 22-H ) :   0.9303 
B( 21-N , 28-C ) :   0.9724 B( 24-C , 25-H ) :   0.9578 B( 24-C , 26-H ) :   0.9551 
B( 24-C , 27-H ) :   0.9738 B( 28-C , 29-H ) :   0.9456 B( 28-C , 30-H ) :   0.9665 
B( 28-C , 31-H ) :   0.9543 

-------
TIMINGS
-------

Total SCF time: 0 days 0 hours 0 min 14 sec 

Total time                  ....      14.983 sec
Sum of individual times     ....      14.280 sec  ( 95.3%)

Fock matrix formation       ....      12.205 sec  ( 81.5%)
  Split-RI-J                ....       1.032 sec  (  8.5% of F)
  Chain of spheres X        ....       8.448 sec  ( 69.2% of F)
  XC integration            ....       2.457 sec  ( 20.1% of F)
    Basis function eval.    ....       0.245 sec  ( 10.0% of XC)
    Density eval.           ....       0.344 sec  ( 14.0% of XC)
    XC-Functional eval.     ....       0.058 sec  (  2.3% of XC)
    XC-Potential eval.      ....       0.230 sec  (  9.4% of XC)
Diagonalization             ....       0.418 sec  (  2.8%)
Density matrix formation    ....       0.028 sec  (  0.2%)
Population analysis         ....       0.073 sec  (  0.5%)
Initial guess               ....       0.054 sec  (  0.4%)
Orbital Transformation      ....       0.000 sec  (  0.0%)
Orbital Orthonormalization  ....       0.041 sec  (  0.3%)
DIIS solution               ....       0.211 sec  (  1.4%)
Grid generation             ....       1.293 sec  (  8.6%)

Maximum memory used throughout the entire SCF-calculation: 83.7 MB

-------------------------   --------------------
FINAL SINGLE POINT ENERGY      -668.244018232618
-------------------------   --------------------

                                *** OPTIMIZATION RUN DONE ***

                            ***************************************
                            *     ORCA property calculations      *
                            ***************************************

                                    ---------------------
                                    Active property flags
                                    ---------------------
   (+) Dipole Moment


------------------------------------------------------------------------------
                       ORCA ELECTRIC PROPERTIES CALCULATION
------------------------------------------------------------------------------

Dipole Moment Calculation                       ... on
Quadrupole Moment Calculation                   ... off
Polarizability Calculation                      ... off
GBWName                                         ... opt.gbw
Electron density                                ... opt.scfp
The origin for moment calculation is the CENTER OF MASS  = (-0.611237, -0.174077  0.373824)

-------------
DIPOLE MOMENT
-------------
                                X             Y             Z
Electronic contribution:    -11.20614       1.54844       0.90276
Nuclear contribution   :     11.55190      -1.91581      -0.76443
                        -----------------------------------------
Total Dipole Moment    :      0.34576      -0.36737       0.13833
                        -----------------------------------------
Magnitude (a.u.)       :      0.52311
Magnitude (Debye)      :      1.32963



--------------------
Rotational spectrum 
--------------------
 
Rotational constants in cm-1:     0.021435     0.012700     0.008302 
Rotational constants in MHz :   642.610945   380.744621   248.899591 

 Dipole components along the rotational axes: 
x,y,z [a.u.] :     0.248135    -0.368562     0.276103 
x,y,z [Debye]:     0.630709    -0.936810     0.701798 

 

Timings for individual modules:

Sum of individual times         ...     1492.518 sec (=  24.875 min)
GTO integral calculation        ...      320.363 sec (=   5.339 min)  21.5 %
SCF iterations                  ...      810.770 sec (=  13.513 min)  54.3 %
SCF Gradient evaluation         ...      360.349 sec (=   6.006 min)  24.1 %
Geometry relaxation             ...        1.036 sec (=   0.017 min)   0.1 %
                             ****ORCA TERMINATED NORMALLY****
TOTAL RUN TIME: 0 days 0 hours 29 minutes 50 seconds 592 msec
