
                                 *****************
                                 * O   R   C   A *
                                 *****************

                                            #,                                       
                                            ###                                      
                                            ####                                     
                                            #####                                    
                                            ######                                   
                                           ########,                                 
                                     ,,################,,,,,                         
                               ,,#################################,,                 
                          ,,##########################################,,             
                       ,#########################################, ''#####,          
                    ,#############################################,,   '####,        
                  ,##################################################,,,,####,       
                ,###########''''           ''''###############################       
              ,#####''   ,,,,##########,,,,          '''####'''          '####       
            ,##' ,,,,###########################,,,                        '##       
           ' ,,###''''                  '''############,,,                           
         ,,##''                                '''############,,,,        ,,,,,,###''
      ,#''                                            '''#######################'''  
     '                                                          ''''####''''         
             ,#######,   #######,   ,#######,      ##                                
            ,#'     '#,  ##    ##  ,#'     '#,    #''#        ######   ,####,        
            ##       ##  ##   ,#'  ##            #'  '#       #        #'  '#        
            ##       ##  #######   ##           ,######,      #####,   #    #        
            '#,     ,#'  ##    ##  '#,     ,#' ,#      #,         ##   #,  ,#        
             '#######'   ##     ##  '#######'  #'      '#     #####' # '####'        



                  #######################################################
                  #                        -***-                        #
                  #          Department of theory and spectroscopy      #
                  #    Directorship and core code : Frank Neese         #
                  #        Max Planck Institute fuer Kohlenforschung    #
                  #                Kaiser Wilhelm Platz 1               #
                  #                 D-45470 Muelheim/Ruhr               #
                  #                      Germany                        #
                  #                                                     #
                  #                  All rights reserved                #
                  #                        -***-                        #
                  #######################################################


                         Program Version 5.0.4 -  RELEASE  -


 With contributions from (in alphabetic order):
   Daniel Aravena         : Magnetic Suceptibility
   Michael Atanasov       : Ab Initio Ligand Field Theory (pilot matlab implementation)
   Alexander A. Auer      : GIAO ZORA, VPT2 properties, NMR spectrum
   Ute Becker             : Parallelization
   Giovanni Bistoni       : ED, misc. LED, open-shell LED, HFLD
   Martin Brehm           : Molecular dynamics
   Dmytro Bykov           : SCF Hessian
   Vijay G. Chilkuri      : MRCI spin determinant printing, contributions to CSF-ICE
   Dipayan Datta          : RHF DLPNO-CCSD density
   Achintya Kumar Dutta   : EOM-CC, STEOM-CC
   Dmitry Ganyushin       : Spin-Orbit,Spin-Spin,Magnetic field MRCI
   Miquel Garcia          : C-PCM and meta-GGA Hessian, CC/C-PCM, Gaussian charge scheme
   Yang Guo               : DLPNO-NEVPT2, F12-NEVPT2, CIM, IAO-localization
   Andreas Hansen         : Spin unrestricted coupled pair/coupled cluster methods
   Benjamin Helmich-Paris : MC-RPA, TRAH-SCF, COSX integrals
   Lee Huntington         : MR-EOM, pCC
   Robert Izsak           : Overlap fitted RIJCOSX, COSX-SCS-MP3, EOM
   Marcus Kettner         : VPT2
   Christian Kollmar      : KDIIS, OOCD, Brueckner-CCSD(T), CCSD density, CASPT2, CASPT2-K
   Simone Kossmann        : Meta GGA functionals, TD-DFT gradient, OOMP2, MP2 Hessian
   Martin Krupicka        : Initial AUTO-CI
   Lucas Lang             : DCDCAS
   Marvin Lechner         : AUTO-CI (C++ implementation), FIC-MRCC
   Dagmar Lenk            : GEPOL surface, SMD
   Dimitrios Liakos       : Extrapolation schemes; Compound Job, initial MDCI parallelization
   Dimitrios Manganas     : Further ROCIS development; embedding schemes
   Dimitrios Pantazis     : SARC Basis sets
   Anastasios Papadopoulos: AUTO-CI, single reference methods and gradients
   Taras Petrenko         : DFT Hessian,TD-DFT gradient, ASA, ECA, R-Raman, ABS, FL, XAS/XES, NRVS
   Peter Pinski           : DLPNO-MP2, DLPNO-MP2 Gradient
   Christoph Reimann      : Effective Core Potentials
   Marius Retegan         : Local ZFS, SOC
   Christoph Riplinger    : Optimizer, TS searches, QM/MM, DLPNO-CCSD(T), (RO)-DLPNO pert. Triples
   Tobias Risthaus        : Range-separated hybrids, TD-DFT gradient, RPA, STAB
   Michael Roemelt        : Original ROCIS implementation
   Masaaki Saitow         : Open-shell DLPNO-CCSD energy and density
   Barbara Sandhoefer     : DKH picture change effects
   Avijit Sen             : IP-ROCIS
   Kantharuban Sivalingam : CASSCF convergence, NEVPT2, FIC-MRCI
   Bernardo de Souza      : ESD, SOC TD-DFT
   Georgi Stoychev        : AutoAux, RI-MP2 NMR, DLPNO-MP2 response
   Willem Van den Heuvel  : Paramagnetic NMR
   Boris Wezisla          : Elementary symmetry handling
   Frank Wennmohs         : Technical directorship


 We gratefully acknowledge several colleagues who have allowed us to
 interface, adapt or use parts of their codes:
   Stefan Grimme, W. Hujo, H. Kruse, P. Pracht,  : VdW corrections, initial TS optimization,
                  C. Bannwarth, S. Ehlert          DFT functionals, gCP, sTDA/sTD-DF
   Ed Valeev, F. Pavosevic, A. Kumar             : LibInt (2-el integral package), F12 methods
   Garnet Chan, S. Sharma, J. Yang, R. Olivares  : DMRG
   Ulf Ekstrom                                   : XCFun DFT Library
   Mihaly Kallay                                 : mrcc  (arbitrary order and MRCC methods)
   Jiri Pittner, Ondrej Demel                    : Mk-CCSD
   Frank Weinhold                                : gennbo (NPA and NBO analysis)
   Christopher J. Cramer and Donald G. Truhlar   : smd solvation model
   Lars Goerigk                                  : TD-DFT with DH, B97 family of functionals
   V. Asgeirsson, H. Jonsson                     : NEB implementation
   FAccTs GmbH                                   : IRC, NEB, NEB-TS, DLPNO-Multilevel, CI-OPT
                                                   MM, QMMM, 2- and 3-layer-ONIOM, Crystal-QMMM,
                                                   LR-CPCM, SF, NACMEs, symmetry and pop. for TD-DFT,
                                                   nearIR, NL-DFT gradient (VV10), updates on ESD,
                                                   ML-optimized integration grids
   S Lehtola, MJT Oliveira, MAL Marques          : LibXC Library
   Liviu Ungur et al                             : ANISO software


 Your calculation uses the libint2 library for the computation of 2-el integrals
 For citations please refer to: http://libint.valeyev.net

 Your ORCA version has been built with support for libXC version: 5.1.0
 For citations please refer to: https://tddft.org/programs/libxc/

 This ORCA versions uses:
   CBLAS   interface :  Fast vector & matrix operations
   LAPACKE interface :  Fast linear algebra routines
   SCALAPACK package :  Parallel linear algebra routines
   Shared memory     :  Shared parallel matrices
   BLAS/LAPACK       :  OpenBLAS 0.3.15  USE64BITINT DYNAMIC_ARCH NO_AFFINITY Zen SINGLE_THREADED
        Core in use  :  Zen
   Copyright (c) 2011-2014, The OpenBLAS Project




***************************************
The coordinates will be read from file: opt.xyz
***************************************


================================================================================

----- Orbital basis set information -----
Your calculation utilizes the basis: EPR-II
   V. Barone, in Recent Advances in Density Functional Methods, Part 1 (ed. D. P. Chong), World Scientific, Singapore, 1995, p. 287.

----- AuxJ basis set information -----
Your calculation utilizes the AutoAux generation procedure.
  G. L. Stoychev, A. A. Auer, F. Neese, J. Chem. Theory Comput. 13, 554 (2017)

----- AuxC basis set information -----
Your calculation utilizes the AutoAux generation procedure.
  G. L. Stoychev, A. A. Auer, F. Neese, J. Chem. Theory Comput. 13, 554 (2017)

----- AuxJK basis set information -----
Your calculation utilizes the AutoAux generation procedure.
  G. L. Stoychev, A. A. Auer, F. Neese, J. Chem. Theory Comput. 13, 554 (2017)

================================================================================
                                        WARNINGS
                       Please study these warnings very carefully!
================================================================================


WARNING: your system is open-shell and RHF/RKS was chosen
  ===> : WILL SWITCH to UHF/UKS


INFO   : the flag for use of the SHARK integral package has been found!

================================================================================
                                       INPUT FILE
================================================================================
NAME = epr_info.inp
|  1> ! B3LYP EPR-II AUTOAUX
|  2> %pal nprocs 16 end
|  3> *XYZFile -1 2 opt.xyz
|  4> %EPRNMR
|  5>         GTENSOR   TRUE
|  6>         NUCLEI    = 1,4,6,8,9,11,12,13,15,16,26 {SHIFT, AISO, ADIP, AORB}
|  7>         ORI       GIAO
|  8> END
|  9> 
| 10>                          ****END OF INPUT****
================================================================================

                       ****************************
                       * Single Point Calculation *
                       ****************************

---------------------------------
CARTESIAN COORDINATES (ANGSTROEM)
---------------------------------
  N     -3.944932   -0.034768    0.010049
  C     -2.473886    0.014889   -0.115211
  C     -1.944106   -0.121514    1.344296
  O     -2.705150   -0.538090    2.242460
  C     -1.973711    1.204095   -0.896213
  H     -1.846116    1.052385   -1.964993
  C     -1.653595    2.551071   -0.338296
  H     -2.128904    3.346212   -0.923126
  H     -1.997702    2.645529    0.700655
  C     -0.090998    2.883409   -0.337231
  O      0.665495    1.944273    0.087588
  O      0.239292    4.013126   -0.736229
  H     -4.238536   -0.148210    0.976551
  C     -4.759227   -0.463289   -0.989931
  N     -0.648509    0.176272    1.526309
  H     -0.130814    0.803852    0.831280
  O     -4.382849   -0.690434   -2.143646
  C     -6.233339   -0.630027   -0.601481
  H     -6.834001    0.023522   -1.240776
  H     -6.531023   -1.662633   -0.806311
  H     -6.436220   -0.393336    0.446701
  C     -0.072548    0.094647    2.861686
  H     -0.046206   -0.940675    3.220199
  H      0.945806    0.485780    2.811315
  H     -0.648378    0.681367    3.587994
  H     -2.158040   -0.896406   -0.643323

----------------------------
CARTESIAN COORDINATES (A.U.)
----------------------------
  NO LB      ZA    FRAG     MASS         X           Y           Z
   0 N     7.0000    0    14.007   -7.454842   -0.065702    0.018990
   1 C     6.0000    0    12.011   -4.674968    0.028137   -0.217716
   2 C     6.0000    0    12.011   -3.673829   -0.229628    2.540351
   3 O     8.0000    0    15.999   -5.111993   -1.016843    4.237636
   4 C     6.0000    0    12.011   -3.729773    2.275410   -1.693596
   5 H     1.0000    0     1.008   -3.488653    1.988719   -3.713298
   6 C     6.0000    0    12.011   -3.124841    4.820826   -0.639286
   7 H     1.0000    0     1.008   -4.023046    6.323424   -1.744456
   8 H     1.0000    0     1.008   -3.775109    4.999325    1.324045
   9 C     6.0000    0    12.011   -0.171961    5.448854   -0.637274
  10 O     8.0000    0    15.999    1.257604    3.674143    0.165518
  11 O     8.0000    0    15.999    0.452197    7.583710   -1.391272
  12 H     1.0000    0     1.008   -8.009672   -0.280076    1.845414
  13 C     6.0000    0    12.011   -8.993636   -0.875489   -1.870698
  14 N     7.0000    0    14.007   -1.225505    0.333106    2.884306
  15 H     1.0000    0     1.008   -0.247203    1.519060    1.570892
  16 O     8.0000    0    15.999   -8.282383   -1.304731   -4.050903
  17 C     6.0000    0    12.011  -11.779304   -1.190579   -1.136635
  18 H     1.0000    0     1.008  -12.914390    0.044450   -2.344728
  19 H     1.0000    0     1.008  -12.341846   -3.141920   -1.523707
  20 H     1.0000    0     1.008  -12.162693   -0.743297    0.844143
  21 C     6.0000    0    12.011   -0.137095    0.178856    5.407804
  22 H     1.0000    0     1.008   -0.087316   -1.777618    6.085294
  23 H     1.0000    0     1.008    1.787313    0.917991    5.312616
  24 H     1.0000    0     1.008   -1.225257    1.287597    6.780327
  25 H     1.0000    0     1.008   -4.078105   -1.693962   -1.215703

--------------------------------
INTERNAL COORDINATES (ANGSTROEM)
--------------------------------
 N      0   0   0     0.000000000000     0.00000000     0.00000000
 C      1   0   0     1.477203994719     0.00000000     0.00000000
 C      2   1   0     1.558663336309   104.84079706     0.00000000
 O      3   2   1     1.248768534051   119.70501179    16.26227475
 C      2   1   3     1.508094869771   113.62186568   232.11639422
 H      5   2   1     1.087008388771   115.98046520   268.60559780
 C      5   2   1     1.492678687900   126.09593883    88.15287182
 H      7   5   2     1.095533792124   111.24648542   229.27006895
 H      7   5   2     1.098521597097   111.34082894   349.60466977
 C      7   5   2     1.597547672541   113.43690262   110.01764997
 O     10   7   5     1.278565627785   115.22331591   314.44920469
 O     10   7   5     1.242800188794   116.66901257   134.90199717
 H      1   2   3     1.016463521430   111.84044745   359.57805034
 C      1   2   3     1.358921149850   123.01962633   206.46905916
 N      3   2   1     1.341781364804   115.83578685   193.52606459
 H     15   3   2     1.070013780485   120.61209164    22.23224432
 O     14   1   2     1.234631108495   124.26198210   350.46759841
 C     14   1   2     1.533525829554   115.08071177   171.65937461
 H     18  14   1     1.093900964275   108.35059861   120.57142758
 H     18  14   1     1.094004011406   108.46729128   237.29297774
 H     18  14   1     1.093558141440   113.42801880   359.13962776
 C     15   3   2     1.456580732239   119.58642086   179.14540464
 H     22  15   3     1.095954275731   111.24435432    66.67080661
 H     22  15   3     1.092046586094   107.84108700   186.55374122
 H     22  15   3     1.096970766311   111.68288978   306.50869384
 H      2   1   3     1.099600192396   107.39190427   112.70992746

---------------------------
INTERNAL COORDINATES (A.U.)
---------------------------
 N      0   0   0     0.000000000000     0.00000000     0.00000000
 C      1   0   0     2.791510993953     0.00000000     0.00000000
 C      2   1   0     2.945446840607   104.84079706     0.00000000
 O      3   2   1     2.359830534016   119.70501179    16.26227475
 C      2   1   3     2.849886287838   113.62186568   232.11639422
 H      5   2   1     2.054148160053   115.98046520   268.60559780
 C      5   2   1     2.820753926072   126.09593883    88.15287182
 H      7   5   2     2.070258837570   111.24648542   229.27006895
 H      7   5   2     2.075904970711   111.34082894   349.60466977
 C      7   5   2     3.018927586986   113.43690262   110.01764997
 O     10   7   5     2.416138880759   115.22331591   314.44920469
 O     10   7   5     2.348551996006   116.66901257   134.90199717
 H      1   2   3     1.920837680625   111.84044745   359.57805034
 C      1   2   3     2.567988810809   123.01962633   206.46905916
 N      3   2   1     2.535599311079   115.83578685   193.52606459
 H     15   3   2     2.022033004639   120.61209164    22.23224432
 O     14   1   2     2.333114671476   124.26198210   350.46759841
 C     14   1   2     2.897943837152   115.08071177   171.65937461
 H     18  14   1     2.067173240112   108.35059861   120.57142758
 H     18  14   1     2.067367970968   108.46729128   237.29297774
 H     18  14   1     2.066525398842   113.42801880   359.13962776
 C     15   3   2     2.752538675878   119.58642086   179.14540464
 H     22  15   3     2.071053436431   111.24435432    66.67080661
 H     22  15   3     2.063668973202   107.84108700   186.55374122
 H     22  15   3     2.072974325245   111.68288978   306.50869384
 H      2   1   3     2.077943220436   107.39190427   112.70992746

---------------------
BASIS SET INFORMATION
---------------------
There are 4 groups of distinct atoms

 Group   1 Type N   : 10s5p1d contracted to 6s2p1d pattern {511111/41/1}
 Group   2 Type C   : 10s5p1d contracted to 6s2p1d pattern {511111/41/1}
 Group   3 Type O   : 10s5p1d contracted to 6s2p1d pattern {511111/41/1}
 Group   4 Type H   : 6s1p contracted to 4s1p pattern {3111/1}

Atom   0N    basis set group =>   1
Atom   1C    basis set group =>   2
Atom   2C    basis set group =>   2
Atom   3O    basis set group =>   3
Atom   4C    basis set group =>   2
Atom   5H    basis set group =>   4
Atom   6C    basis set group =>   2
Atom   7H    basis set group =>   4
Atom   8H    basis set group =>   4
Atom   9C    basis set group =>   2
Atom  10O    basis set group =>   3
Atom  11O    basis set group =>   3
Atom  12H    basis set group =>   4
Atom  13C    basis set group =>   2
Atom  14N    basis set group =>   1
Atom  15H    basis set group =>   4
Atom  16O    basis set group =>   3
Atom  17C    basis set group =>   2
Atom  18H    basis set group =>   4
Atom  19H    basis set group =>   4
Atom  20H    basis set group =>   4
Atom  21C    basis set group =>   2
Atom  22H    basis set group =>   4
Atom  23H    basis set group =>   4
Atom  24H    basis set group =>   4
Atom  25H    basis set group =>   4
---------------------------------
AUXILIARY/J BASIS SET INFORMATION
---------------------------------
There are 4 groups of distinct atoms

 Group   1 Type N   : 17s13p12d2f contracted to 17s13p12d2f pattern {11111111111111111/1111111111111/111111111111/11}
 Group   2 Type C   : 17s13p12d2f contracted to 17s13p12d2f pattern {11111111111111111/1111111111111/111111111111/11}
 Group   3 Type O   : 17s13p12d2f contracted to 17s13p12d2f pattern {11111111111111111/1111111111111/111111111111/11}
 Group   4 Type H   : 15s6p1d contracted to 15s6p1d pattern {111111111111111/111111/1}

Atom   0N    basis set group =>   1
Atom   1C    basis set group =>   2
Atom   2C    basis set group =>   2
Atom   3O    basis set group =>   3
Atom   4C    basis set group =>   2
Atom   5H    basis set group =>   4
Atom   6C    basis set group =>   2
Atom   7H    basis set group =>   4
Atom   8H    basis set group =>   4
Atom   9C    basis set group =>   2
Atom  10O    basis set group =>   3
Atom  11O    basis set group =>   3
Atom  12H    basis set group =>   4
Atom  13C    basis set group =>   2
Atom  14N    basis set group =>   1
Atom  15H    basis set group =>   4
Atom  16O    basis set group =>   3
Atom  17C    basis set group =>   2
Atom  18H    basis set group =>   4
Atom  19H    basis set group =>   4
Atom  20H    basis set group =>   4
Atom  21C    basis set group =>   2
Atom  22H    basis set group =>   4
Atom  23H    basis set group =>   4
Atom  24H    basis set group =>   4
Atom  25H    basis set group =>   4
---------------------------------
AUXILIARY/C BASIS SET INFORMATION
---------------------------------
There are 4 groups of distinct atoms

 Group   1 Type N   : 17s13p12d2f contracted to 17s13p12d2f pattern {11111111111111111/1111111111111/111111111111/11}
 Group   2 Type C   : 17s13p12d2f contracted to 17s13p12d2f pattern {11111111111111111/1111111111111/111111111111/11}
 Group   3 Type O   : 17s13p12d2f contracted to 17s13p12d2f pattern {11111111111111111/1111111111111/111111111111/11}
 Group   4 Type H   : 15s6p1d contracted to 15s6p1d pattern {111111111111111/111111/1}

Atom   0N    basis set group =>   1
Atom   1C    basis set group =>   2
Atom   2C    basis set group =>   2
Atom   3O    basis set group =>   3
Atom   4C    basis set group =>   2
Atom   5H    basis set group =>   4
Atom   6C    basis set group =>   2
Atom   7H    basis set group =>   4
Atom   8H    basis set group =>   4
Atom   9C    basis set group =>   2
Atom  10O    basis set group =>   3
Atom  11O    basis set group =>   3
Atom  12H    basis set group =>   4
Atom  13C    basis set group =>   2
Atom  14N    basis set group =>   1
Atom  15H    basis set group =>   4
Atom  16O    basis set group =>   3
Atom  17C    basis set group =>   2
Atom  18H    basis set group =>   4
Atom  19H    basis set group =>   4
Atom  20H    basis set group =>   4
Atom  21C    basis set group =>   2
Atom  22H    basis set group =>   4
Atom  23H    basis set group =>   4
Atom  24H    basis set group =>   4
Atom  25H    basis set group =>   4
----------------------------------
AUXILIARY/JK BASIS SET INFORMATION
----------------------------------
There are 4 groups of distinct atoms

 Group   1 Type N   : 17s13p12d2f contracted to 17s13p12d2f pattern {11111111111111111/1111111111111/111111111111/11}
 Group   2 Type C   : 17s13p12d2f contracted to 17s13p12d2f pattern {11111111111111111/1111111111111/111111111111/11}
 Group   3 Type O   : 17s13p12d2f contracted to 17s13p12d2f pattern {11111111111111111/1111111111111/111111111111/11}
 Group   4 Type H   : 15s6p1d contracted to 15s6p1d pattern {111111111111111/111111/1}

Atom   0N    basis set group =>   1
Atom   1C    basis set group =>   2
Atom   2C    basis set group =>   2
Atom   3O    basis set group =>   3
Atom   4C    basis set group =>   2
Atom   5H    basis set group =>   4
Atom   6C    basis set group =>   2
Atom   7H    basis set group =>   4
Atom   8H    basis set group =>   4
Atom   9C    basis set group =>   2
Atom  10O    basis set group =>   3
Atom  11O    basis set group =>   3
Atom  12H    basis set group =>   4
Atom  13C    basis set group =>   2
Atom  14N    basis set group =>   1
Atom  15H    basis set group =>   4
Atom  16O    basis set group =>   3
Atom  17C    basis set group =>   2
Atom  18H    basis set group =>   4
Atom  19H    basis set group =>   4
Atom  20H    basis set group =>   4
Atom  21C    basis set group =>   2
Atom  22H    basis set group =>   4
Atom  23H    basis set group =>   4
Atom  24H    basis set group =>   4
Atom  25H    basis set group =>   4


           ************************************************************
           *        Program running with 16 parallel MPI-processes    *
           *              working on a common directory               *
           ************************************************************
------------------------------------------------------------------------------
                           ORCA GTO INTEGRAL CALCULATION
                           -- RI-GTO INTEGRALS CHOSEN --
------------------------------------------------------------------------------
------------------------------------------------------------------------------
                   ___                                                        
                  /   \      - P O W E R E D   B Y -                         
                 /     \                                                     
                 |  |  |   _    _      __       _____    __    __             
                 |  |  |  | |  | |    /  \     |  _  \  |  |  /  |          
                  \  \/   | |  | |   /    \    | | | |  |  | /  /          
                 / \  \   | |__| |  /  /\  \   | |_| |  |  |/  /          
                |  |  |   |  __  | /  /__\  \  |    /   |      \           
                |  |  |   | |  | | |   __   |  |    \   |  |\   \          
                \     /   | |  | | |  |  |  |  | |\  \  |  | \   \       
                 \___/    |_|  |_| |__|  |__|  |_| \__\ |__|  \__/        
                                                                              
                      - O R C A' S   B I G   F R I E N D -                    
                                      &                                       
                       - I N T E G R A L  F E E D E R -                       
                                                                              
 v1 FN, 2020, v2 2021                                                         
------------------------------------------------------------------------------


Reading SHARK input file epr_info.SHARKINP.tmp ... ok
----------------------
SHARK INTEGRAL PACKAGE
----------------------

Number of atoms                             ...     26
Number of basis functions                   ...    322
Number of shells                            ...    186
Maximum angular momentum                    ...      2
Integral batch strategy                     ... SHARK/LIBINT Hybrid
RI-J (if used) integral strategy            ... SPLIT-RIJ (Revised 2003 algorithm where possible)
Printlevel                                  ...      1
Contraction scheme used                     ... SEGMENTED contraction
Coulomb Range Separation                    ... NOT USED
Exchange Range Separation                   ... NOT USED
Finite Nucleus Model                        ... NOT USED
Auxiliary Coulomb fitting basis             ... AVAILABLE
   # of basis functions in Aux-J            ...   2276
   # of shells in Aux-J                     ...    880
   Maximum angular momentum in Aux-J        ...      3
Auxiliary J/K fitting basis                 ... AVAILABLE
   # of basis functions in Aux-JK           ...   2276
   # of shells in Aux-JK                    ...    880
   Maximum angular momentum in Aux-JK       ...      3
Auxiliary Correlation fitting basis         ... AVAILABLE
   # of basis functions in Aux-C            ...   2276
   # of shells in Aux-C                     ...    880
   Maximum angular momentum in Aux-C        ...      3
Auxiliary 'external' fitting basis          ... NOT available
Integral threshold                          ...     1.000000e-10
Primitive cut-off                           ...     1.000000e-11
Primitive pair pre-selection threshold      ...     1.000000e-11

Calculating pre-screening integrals         ... done (  0.0 sec) Dimension = 186
Organizing shell pair data                  ... done (  0.0 sec)
Shell pair information
Total number of shell pairs                 ...     17391
Shell pairs after pre-screening             ...     12117
Total number of primitive shell pairs       ...     47846
Primitive shell pairs kept                  ...     24154
          la=0 lb=0:   5474 shell pairs
          la=1 lb=0:   4120 shell pairs
          la=1 lb=1:    721 shell pairs
          la=2 lb=0:   1254 shell pairs
          la=2 lb=1:    467 shell pairs
          la=2 lb=2:     81 shell pairs

Calculating one electron integrals          ... done (  0.0 sec)
Calculating RI/J V-Matrix + Cholesky decomp.... done (  0.3 sec)
Calculating RI/JK V-Matrix + Cholesky decomp... done (  0.3 sec)
Calculating RI/C V-Matrix + Cholesky decomp.... done (  0.2 sec)
Calculating Nuclear repulsion               ... done (  0.0 sec) ENN=    907.362298381779 Eh

SHARK setup successfully completed in   1.0 seconds

Maximum memory used throughout the entire GTOINT-calculation: 23.4 MB


           ************************************************************
           *        Program running with 16 parallel MPI-processes    *
           *              working on a common directory               *
           ************************************************************
-------------------------------------------------------------------------------
                                 ORCA SCF
-------------------------------------------------------------------------------

------------
SCF SETTINGS
------------
Hamiltonian:
 Density Functional     Method          .... DFT(GTOs)
 Exchange Functional    Exchange        .... B88
   X-Alpha parameter    XAlpha          ....  0.666667
   Becke's b parameter  XBeta           ....  0.004200
 Correlation Functional Correlation     .... LYP
 LDA part of GGA corr.  LDAOpt          .... VWN-5
 Gradients option       PostSCFGGA      .... off
 Hybrid DFT is turned on
   Fraction HF Exchange ScalHFX         ....  0.200000
   Scaling of DF-GGA-X  ScalDFX         ....  0.720000
   Scaling of DF-GGA-C  ScalDFC         ....  0.810000
   Scaling of DF-LDA-C  ScalLDAC        ....  1.000000
   Perturbative correction              ....  0.000000
   Density functional embedding theory  .... OFF
   NL short-range parameter             ....  4.800000
 RI-approximation to the Coulomb term is turned on
   Number of AuxJ basis functions       .... 2276
   RIJ-COSX (HFX calculated with COS-X)).... on


General Settings:
 Integral files         IntName         .... epr_info
 Hartree-Fock type      HFTyp           .... UHF
 Total Charge           Charge          ....   -1
 Multiplicity           Mult            ....    2
 Number of Electrons    NEL             ....  107
 Basis Dimension        Dim             ....  322
 Nuclear Repulsion      ENuc            ....    907.3622983818 Eh

Convergence Acceleration:
 DIIS                   CNVDIIS         .... on
   Start iteration      DIISMaxIt       ....    12
   Startup error        DIISStart       ....  0.200000
   # of expansion vecs  DIISMaxEq       ....     5
   Bias factor          DIISBfac        ....   1.050
   Max. coefficient     DIISMaxC        ....  10.000
 Trust-Rad. Augm. Hess. CNVTRAH         .... auto
   Auto Start mean grad. ratio tolernc. ....  1.125000
   Auto Start start iteration           ....    20
   Auto Start num. interpolation iter.  ....    10
   Max. Number of Micro iterations      ....    16
   Max. Number of Macro iterations      .... Maxiter - #DIIS iter
   Number of Davidson start vectors     ....     2
   Converg. threshold I  (grad. norm)   ....   5.000e-05
   Converg. threshold II (energy diff.) ....   1.000e-06
   Grad. Scal. Fac. for Micro threshold ....   0.100
   Minimum threshold for Micro iter.    ....   0.010
   NR start threshold (gradient norm)   ....   0.001
   Initial trust radius                 ....   0.400
   Minimum AH scaling param. (alpha)    ....   1.000
   Maximum AH scaling param. (alpha)    .... 1000.000
   Orbital update algorithm             .... Taylor
   White noise on init. David. guess    .... on
   Maximum white noise                  ....   0.010
   Quad. conv. algorithm                .... NR
 SOSCF                  CNVSOSCF        .... off
 Level Shifting         CNVShift        .... on
   Level shift para.    LevelShift      ....    0.2500
   Turn off err/grad.   ShiftErr        ....    0.0010
 Zerner damping         CNVZerner       .... off
 Static damping         CNVDamp         .... on
   Fraction old density DampFac         ....    0.7000
   Max. Damping (<1)    DampMax         ....    0.9800
   Min. Damping (>=0)   DampMin         ....    0.0000
   Turn off err/grad.   DampErr         ....    0.1000
 Fernandez-Rico         CNVRico         .... off

SCF Procedure:
 Maximum # iterations   MaxIter         ....   125
 SCF integral mode      SCFMode         .... Direct
   Integral package                     .... SHARK and LIBINT hybrid scheme
 Reset frequency        DirectResetFreq ....    20
 Integral Threshold     Thresh          ....  1.000e-10 Eh
 Primitive CutOff       TCut            ....  1.000e-11 Eh

Convergence Tolerance:
 Convergence Check Mode ConvCheckMode   .... Total+1el-Energy
 Convergence forced     ConvForced      .... 0
 Energy Change          TolE            ....  1.000e-06 Eh
 1-El. energy change                    ....  1.000e-03 Eh
 DIIS Error             TolErr          ....  1.000e-06


Diagonalization of the overlap matrix:
Smallest eigenvalue                        ... 7.652e-04
Time for diagonalization                   ...    0.010 sec
Threshold for overlap eigenvalues          ... 1.000e-08
Number of eigenvalues below threshold      ... 0
Time for construction of square roots      ...    0.009 sec
Total time needed                          ...    0.021 sec

Time for model grid setup =    0.092 sec

------------------------------
INITIAL GUESS: MODEL POTENTIAL
------------------------------
Loading Hartree-Fock densities                     ... done
Calculating cut-offs                               ... done
Initializing the effective Hamiltonian             ... done
Setting up the integral package (SHARK)            ... done
Starting the Coulomb interaction                   ... done (   0.0 sec)
Reading the grid                                   ... done
Mapping shells                                     ... done
Starting the XC term evaluation                    ... done (   0.0 sec)
  promolecular density results
     # of electrons  =    105.991212773
     EX              =    -90.548420247
     EC              =     -3.646563837
     EX+EC           =    -94.194984083
Transforming the Hamiltonian                       ... done (   0.0 sec)
Diagonalizing the Hamiltonian                      ... done (   0.0 sec)
Back transforming the eigenvectors                 ... done (   0.0 sec)
Now organizing SCF variables                       ... done
                      ------------------
                      INITIAL GUESS DONE (   0.2 sec)
                      ------------------
-------------------
DFT GRID GENERATION
-------------------

General Integration Accuracy     IntAcc      ... 4.388
Radial Grid Type                 RadialGrid  ... OptM3 with GC (2021)
Angular Grid (max. ang.)         AngularGrid ... 4 (Lebedev-302)
Angular grid pruning method      GridPruning ... 4 (adaptive)
Weight generation scheme         WeightScheme... Becke
Basis function cutoff            BFCut       ... 1.0000e-10
Integration weight cutoff        WCut        ... 1.0000e-14
Angular grids for H and He will be reduced by one unit
Partially contracted basis set               ... off
Rotationally invariant grid construction     ... off

Total number of grid points                  ...   122678
Total number of batches                      ...     1928
Average number of points per batch           ...       63
Average number of grid points per atom       ...     4718
Time for grid setup =    0.516 sec

--------------------
COSX GRID GENERATION
--------------------

GRIDX 1
-------
General Integration Accuracy     IntAcc      ... 3.816
Radial Grid Type                 RadialGrid  ... OptM3 with GC (2021)
Angular Grid (max. ang.)         AngularGrid ... 1 (Lebedev-50)
Angular grid pruning method      GridPruning ... 4 (adaptive)
Weight generation scheme         WeightScheme... Becke
Basis function cutoff            BFCut       ... 1.0000e-10
Integration weight cutoff        WCut        ... 1.0000e-14
Angular grids for H and He will be reduced by one unit
Partially contracted basis set               ... on
Rotationally invariant grid construction     ... off

Total number of grid points                  ...    15615
Total number of batches                      ...      259
Average number of points per batch           ...       60
Average number of grid points per atom       ...      601
UseSFitting                                  ... on

GRIDX 2
-------
General Integration Accuracy     IntAcc      ... 4.020
Radial Grid Type                 RadialGrid  ... OptM3 with GC (2021)
Angular Grid (max. ang.)         AngularGrid ... 2 (Lebedev-110)
Angular grid pruning method      GridPruning ... 4 (adaptive)
Weight generation scheme         WeightScheme... Becke
Basis function cutoff            BFCut       ... 1.0000e-10
Integration weight cutoff        WCut        ... 1.0000e-14
Angular grids for H and He will be reduced by one unit
Partially contracted basis set               ... on
Rotationally invariant grid construction     ... off

Total number of grid points                  ...    33998
Total number of batches                      ...      543
Average number of points per batch           ...       62
Average number of grid points per atom       ...     1308
UseSFitting                                  ... on

GRIDX 3
-------
General Integration Accuracy     IntAcc      ... 4.338
Radial Grid Type                 RadialGrid  ... OptM3 with GC (2021)
Angular Grid (max. ang.)         AngularGrid ... 3 (Lebedev-194)
Angular grid pruning method      GridPruning ... 4 (adaptive)
Weight generation scheme         WeightScheme... Becke
Basis function cutoff            BFCut       ... 1.0000e-10
Integration weight cutoff        WCut        ... 1.0000e-14
Angular grids for H and He will be reduced by one unit
Partially contracted basis set               ... on
Rotationally invariant grid construction     ... off

Total number of grid points                  ...    74502
Total number of batches                      ...     1178
Average number of points per batch           ...       63
Average number of grid points per atom       ...     2865
UseSFitting                                  ... on

Time for X-Grid setup             =    0.661 sec

--------------
SCF ITERATIONS
--------------
ITER       Energy         Delta-E        Max-DP      RMS-DP      [F,P]     Damp
               ***  Starting incremental Fock matrix formation  ***
  0   -721.7411572240   0.000000000000 0.06332401  0.00117525  0.1352586 0.7000
  1   -722.0153872893  -0.274230065277 0.04029003  0.00083660  0.0551525 0.7000
                               ***Turning on DIIS***
  2   -722.1104056847  -0.095018395472 0.08189994  0.00134964  0.0191440 0.0000
  3   -722.2733136783  -0.162907993622 0.03132997  0.00058592  0.0303985 0.0000
  4   -722.3052202127  -0.031906534392 0.01509109  0.00021613  0.0067397 0.0000
  5   -722.3077704555  -0.002550242769 0.00751473  0.00008517  0.0031351 0.0000
  6   -722.3080005583  -0.000230102772 0.00624124  0.00006797  0.0008395 0.0000
               *** Restarting incremental Fock matrix formation ***
                                   *** Resetting DIIS ***
  7   -722.3080556028  -0.000055044539 0.00232446  0.00003300  0.0008568 0.0000
  8   -722.3080174954   0.000038107434 0.00099799  0.00001295  0.0016938 0.0000
  9   -722.3080708588  -0.000053363388 0.00064046  0.00000893  0.0004145 0.0000
 10   -722.3080759849  -0.000005126165 0.00032404  0.00000322  0.0001145 0.0000
 11   -722.3080762819  -0.000000296968 0.00012816  0.00000162  0.0001105 0.0000
                 **** Energy Check signals convergence ****

               *****************************************************
               *                     SUCCESS                       *
               *           SCF CONVERGED AFTER  12 CYCLES          *
               *****************************************************

Old exchange energy                            =    -18.397675744 Eh
New exchange energy                            =    -18.397687954 Eh
Exchange energy change after final integration =     -0.000012210 Eh
Total energy after final integration           =   -722.308088641 Eh
Final COS-X integration done in                =     1.673 sec

----------------
TOTAL SCF ENERGY
----------------

Total Energy       :         -722.30808864 Eh          -19655.00233 eV

Components:
Nuclear Repulsion  :          907.36229838 Eh           24690.58338 eV
Electronic Energy  :        -1629.67038702 Eh          -44345.58572 eV
One Electron Energy:        -2802.39086210 Eh          -76256.93219 eV
Two Electron Energy:         1172.72047508 Eh           31911.34647 eV
Max COSX asymmetry :            0.00000114 Eh               0.00003 eV

Virial components:
Potential Energy   :        -1439.84735023 Eh          -39180.23828 eV
Kinetic Energy     :          717.53926158 Eh           19525.23595 eV
Virial Ratio       :            2.00664609


DFT components:
N(Alpha)           :       54.000047379697 electrons
N(Beta)            :       53.000038365568 electrons
N(Total)           :      107.000085745265 electrons
E(X)               :      -73.188789645400 Eh       
E(C)               :       -4.326090253837 Eh       
E(XC)              :      -77.514879899236 Eh       
DFET-embed. en.    :        0.000000000000 Eh       

---------------
SCF CONVERGENCE
---------------

  Last Energy change         ...   -1.4951e-07  Tolerance :   1.0000e-06
  Last MAX-Density change    ...    0.0000e+00  Tolerance :   1.0000e-05
  Last RMS-Density change    ...    0.0000e+00  Tolerance :   1.0000e-06
  Last DIIS Error            ...    5.0880e-05  Tolerance :   1.0000e-06

             **** THE GBW FILE WAS UPDATED (epr_info.gbw) ****
             **** DENSITY epr_info.scfp WAS UPDATED ****
             **** ENERGY FILE WAS UPDATED (epr_info.en.tmp) ****
----------------------
UHF SPIN CONTAMINATION
----------------------

Warning: in a DFT calculation there is little theoretical justification to 
         calculate <S**2> as in Hartree-Fock theory. We will do it anyways
         but you should keep in mind that the values have only limited relevance

Expectation value of <S**2>     :     0.754515
Ideal value S*(S+1) for S=0.5   :     0.750000
Deviation                       :     0.004515

             **** THE GBW FILE WAS UPDATED (epr_info.gbw) ****
             **** DENSITY epr_info.scfp WAS UPDATED ****
----------------
ORBITAL ENERGIES
----------------
                 SPIN UP ORBITALS
  NO   OCC          E(Eh)            E(eV) 
   0   1.0000     -18.998718      -516.9814 
   1   1.0000     -18.994255      -516.8600 
   2   1.0000     -18.937694      -515.3208 
   3   1.0000     -18.933087      -515.1955 
   4   1.0000     -14.239377      -387.4732 
   5   1.0000     -14.215187      -386.8149 
   6   1.0000     -10.185561      -277.1632 
   7   1.0000     -10.169938      -276.7381 
   8   1.0000     -10.130933      -275.6767 
   9   1.0000     -10.119170      -275.3566 
  10   1.0000     -10.096689      -274.7449 
  11   1.0000     -10.096680      -274.7446 
  12   1.0000     -10.068946      -273.9899 
  13   1.0000     -10.048948      -273.4458 
  14   1.0000      -0.919613       -25.0239 
  15   1.0000      -0.908586       -24.7239 
  16   1.0000      -0.869243       -23.6533 
  17   1.0000      -0.804748       -21.8983 
  18   1.0000      -0.792345       -21.5608 
  19   1.0000      -0.778827       -21.1930 
  20   1.0000      -0.668445       -18.1893 
  21   1.0000      -0.630535       -17.1577 
  22   1.0000      -0.595836       -16.2135 
  23   1.0000      -0.562637       -15.3101 
  24   1.0000      -0.492409       -13.3991 
  25   1.0000      -0.456861       -12.4318 
  26   1.0000      -0.432145       -11.7593 
  27   1.0000      -0.411839       -11.2067 
  28   1.0000      -0.372708       -10.1419 
  29   1.0000      -0.365800        -9.9539 
  30   1.0000      -0.348059        -9.4712 
  31   1.0000      -0.340640        -9.2693 
  32   1.0000      -0.337166        -9.1748 
  33   1.0000      -0.330392        -8.9904 
  34   1.0000      -0.320319        -8.7163 
  35   1.0000      -0.302195        -8.2231 
  36   1.0000      -0.295471        -8.0402 
  37   1.0000      -0.288947        -7.8626 
  38   1.0000      -0.283225        -7.7070 
  39   1.0000      -0.271714        -7.3937 
  40   1.0000      -0.260773        -7.0960 
  41   1.0000      -0.254946        -6.9374 
  42   1.0000      -0.248669        -6.7666 
  43   1.0000      -0.237438        -6.4610 
  44   1.0000      -0.226112        -6.1528 
  45   1.0000      -0.208082        -5.6622 
  46   1.0000      -0.154030        -4.1914 
  47   1.0000      -0.147289        -4.0079 
  48   1.0000      -0.142262        -3.8711 
  49   1.0000      -0.130587        -3.5535 
  50   1.0000      -0.106106        -2.8873 
  51   1.0000      -0.098554        -2.6818 
  52   1.0000      -0.086158        -2.3445 
  53   1.0000      -0.052407        -1.4261 
  54   0.0000       0.104348         2.8395 
  55   0.0000       0.121731         3.3125 
  56   0.0000       0.127916         3.4808 
  57   0.0000       0.138881         3.7792 
  58   0.0000       0.154938         4.2161 
  59   0.0000       0.165091         4.4923 
  60   0.0000       0.177028         4.8172 
  61   0.0000       0.187703         5.1077 
  62   0.0000       0.196739         5.3535 
  63   0.0000       0.207913         5.6576 
  64   0.0000       0.211422         5.7531 
  65   0.0000       0.227930         6.2023 
  66   0.0000       0.242026         6.5859 
  67   0.0000       0.251165         6.8346 
  68   0.0000       0.272702         7.4206 
  69   0.0000       0.282261         7.6807 
  70   0.0000       0.297525         8.0961 
  71   0.0000       0.299211         8.1419 
  72   0.0000       0.300690         8.1822 
  73   0.0000       0.306543         8.3414 
  74   0.0000       0.322816         8.7843 
  75   0.0000       0.325739         8.8638 
  76   0.0000       0.330351         8.9893 
  77   0.0000       0.336843         9.1660 
  78   0.0000       0.344674         9.3791 
  79   0.0000       0.352656         9.5962 
  80   0.0000       0.361390         9.8339 
  81   0.0000       0.368846        10.0368 
  82   0.0000       0.378223        10.2920 
  83   0.0000       0.385321        10.4851 
  84   0.0000       0.388796        10.5797 
  85   0.0000       0.398145        10.8341 
  86   0.0000       0.400974        10.9111 
  87   0.0000       0.407265        11.0822 
  88   0.0000       0.415318        11.3014 
  89   0.0000       0.421266        11.4632 
  90   0.0000       0.432268        11.7626 
  91   0.0000       0.441194        12.0055 
  92   0.0000       0.448939        12.2162 
  93   0.0000       0.457578        12.4513 
  94   0.0000       0.472499        12.8574 
  95   0.0000       0.477965        13.0061 
  96   0.0000       0.493423        13.4267 
  97   0.0000       0.508909        13.8481 
  98   0.0000       0.513626        13.9765 
  99   0.0000       0.520653        14.1677 
 100   0.0000       0.532162        14.4809 
 101   0.0000       0.533885        14.5277 
 102   0.0000       0.546451        14.8697 
 103   0.0000       0.547526        14.8989 
 104   0.0000       0.561680        15.2841 
 105   0.0000       0.573896        15.6165 
 106   0.0000       0.585613        15.9353 
 107   0.0000       0.593806        16.1583 
 108   0.0000       0.597527        16.2595 
 109   0.0000       0.602412        16.3925 
 110   0.0000       0.620097        16.8737 
 111   0.0000       0.635465        17.2919 
 112   0.0000       0.654804        17.8181 
 113   0.0000       0.659848        17.9554 
 114   0.0000       0.673838        18.3361 
 115   0.0000       0.694912        18.9095 
 116   0.0000       0.712531        19.3889 
 117   0.0000       0.723478        19.6868 
 118   0.0000       0.734057        19.9747 
 119   0.0000       0.747117        20.3301 
 120   0.0000       0.766510        20.8578 
 121   0.0000       0.799135        21.7456 
 122   0.0000       0.803446        21.8629 
 123   0.0000       0.834560        22.7095 
 124   0.0000       0.863162        23.4878 
 125   0.0000       0.876519        23.8513 
 126   0.0000       0.886417        24.1206 
 127   0.0000       0.895064        24.3559 
 128   0.0000       0.909847        24.7582 
 129   0.0000       0.926376        25.2080 
 130   0.0000       0.930104        25.3094 
 131   0.0000       0.945544        25.7296 
 132   0.0000       0.958220        26.0745 
 133   0.0000       0.964876        26.2556 
 134   0.0000       0.966173        26.2909 
 135   0.0000       0.977571        26.6011 
 136   0.0000       0.988569        26.9003 
 137   0.0000       0.997637        27.1471 
 138   0.0000       1.003975        27.3195 
 139   0.0000       1.010406        27.4945 
 140   0.0000       1.024190        27.8696 
 141   0.0000       1.033850        28.1325 
 142   0.0000       1.039288        28.2805 
 143   0.0000       1.046569        28.4786 
 144   0.0000       1.053430        28.6653 
 145   0.0000       1.060292        28.8520 
 146   0.0000       1.074472        29.2379 
 147   0.0000       1.084857        29.5205 
 148   0.0000       1.092337        29.7240 
 149   0.0000       1.096112        29.8267 
 150   0.0000       1.109521        30.1916 
 151   0.0000       1.129428        30.7333 
 152   0.0000       1.135814        30.9071 
 153   0.0000       1.141941        31.0738 
 154   0.0000       1.160337        31.5744 
 155   0.0000       1.168528        31.7973 
 156   0.0000       1.180358        32.1192 
 157   0.0000       1.208800        32.8931 
 158   0.0000       1.235924        33.6312 
 159   0.0000       1.242417        33.8079 
 160   0.0000       1.280080        34.8328 
 161   0.0000       1.285319        34.9753 
 162   0.0000       1.289502        35.0891 
 163   0.0000       1.300944        35.4005 
 164   0.0000       1.329039        36.1650 
 165   0.0000       1.353685        36.8356 
 166   0.0000       1.377921        37.4951 
 167   0.0000       1.393939        37.9310 
 168   0.0000       1.404328        38.2137 
 169   0.0000       1.431967        38.9658 
 170   0.0000       1.450196        39.4618 
 171   0.0000       1.471617        40.0447 
 172   0.0000       1.488342        40.4998 
 173   0.0000       1.499205        40.7954 
 174   0.0000       1.502847        40.8945 
 175   0.0000       1.522593        41.4319 
 176   0.0000       1.526001        41.5246 
 177   0.0000       1.565856        42.6091 
 178   0.0000       1.579433        42.9785 
 179   0.0000       1.585206        43.1357 
 180   0.0000       1.608358        43.7657 
 181   0.0000       1.609870        43.8068 
 182   0.0000       1.623069        44.1660 
 183   0.0000       1.631793        44.4033 
 184   0.0000       1.647007        44.8173 
 185   0.0000       1.663616        45.2693 
 186   0.0000       1.665851        45.3301 
 187   0.0000       1.674394        45.5626 
 188   0.0000       1.698155        46.2091 
 189   0.0000       1.717710        46.7413 
 190   0.0000       1.722621        46.8749 
 191   0.0000       1.731740        47.1230 
 192   0.0000       1.750125        47.6233 
 193   0.0000       1.774748        48.2933 
 194   0.0000       1.794495        48.8307 
 195   0.0000       1.808984        49.2250 
 196   0.0000       1.821452        49.5642 
 197   0.0000       1.828569        49.7579 
 198   0.0000       1.839998        50.0689 
 199   0.0000       1.849572        50.3294 
 200   0.0000       1.860263        50.6203 
 201   0.0000       1.883326        51.2479 
 202   0.0000       1.900173        51.7063 
 203   0.0000       1.909656        51.9644 
 204   0.0000       1.933283        52.6073 
 205   0.0000       1.945640        52.9436 
 206   0.0000       1.953201        53.1493 
 207   0.0000       1.964401        53.4541 
 208   0.0000       1.986885        54.0659 
 209   0.0000       1.999301        54.4038 
 210   0.0000       2.007012        54.6136 
 211   0.0000       2.033397        55.3316 
 212   0.0000       2.067510        56.2598 
 213   0.0000       2.090829        56.8944 
 214   0.0000       2.109729        57.4086 
 215   0.0000       2.129871        57.9567 
 216   0.0000       2.144957        58.3673 
 217   0.0000       2.157954        58.7209 
 218   0.0000       2.176730        59.2318 
 219   0.0000       2.187491        59.5247 
 220   0.0000       2.227899        60.6242 
 221   0.0000       2.235409        60.8286 
 222   0.0000       2.255692        61.3805 
 223   0.0000       2.256441        61.4009 
 224   0.0000       2.306667        62.7676 
 225   0.0000       2.316582        63.0374 
 226   0.0000       2.345561        63.8260 
 227   0.0000       2.360475        64.2318 
 228   0.0000       2.397129        65.2292 
 229   0.0000       2.416609        65.7593 
 230   0.0000       2.450629        66.6850 
 231   0.0000       2.471363        67.2492 
 232   0.0000       2.479164        67.4615 
 233   0.0000       2.485932        67.6456 
 234   0.0000       2.507357        68.2286 
 235   0.0000       2.542059        69.1729 
 236   0.0000       2.570155        69.9375 
 237   0.0000       2.581935        70.2580 
 238   0.0000       2.611855        71.0722 
 239   0.0000       2.625865        71.4534 
 240   0.0000       2.630978        71.5926 
 241   0.0000       2.638890        71.8079 
 242   0.0000       2.670036        72.6554 
 243   0.0000       2.714058        73.8533 
 244   0.0000       2.724955        74.1498 
 245   0.0000       2.755271        74.9747 
 246   0.0000       2.782052        75.7035 
 247   0.0000       2.809001        76.4368 
 248   0.0000       2.824039        76.8460 
 249   0.0000       2.850899        77.5769 
 250   0.0000       2.860712        77.8439 
 251   0.0000       2.867108        78.0180 
 252   0.0000       2.892727        78.7151 
 253   0.0000       2.895412        78.7882 
 254   0.0000       2.922477        79.5246 
 255   0.0000       3.052078        83.0513 
 256   0.0000       3.104522        84.4783 
 257   0.0000       3.127898        85.1144 
 258   0.0000       3.198531        87.0365 
 259   0.0000       3.214382        87.4678 
 260   0.0000       3.252024        88.4921 
 261   0.0000       3.331198        90.6465 
 262   0.0000       3.351188        91.1905 
 263   0.0000       3.449467        93.8648 
 264   0.0000       3.485336        94.8408 
 265   0.0000       3.512342        95.5757 
 266   0.0000       3.535829        96.2148 
 267   0.0000       3.549883        96.5972 
 268   0.0000       3.589041        97.6628 
 269   0.0000       3.676632       100.0462 
 270   0.0000       5.075807       138.1197 
 271   0.0000       5.101223       138.8113 
 272   0.0000       5.108228       139.0020 
 273   0.0000       5.114650       139.1767 
 274   0.0000       5.135186       139.7355 
 275   0.0000       5.180725       140.9747 
 276   0.0000       5.224054       142.1537 
 277   0.0000       5.293911       144.0546 
 278   0.0000       5.309477       144.4782 
 279   0.0000       5.329688       145.0282 
 280   0.0000       5.368617       146.0875 
 281   0.0000       5.383734       146.4988 
 282   0.0000       5.414694       147.3413 
 283   0.0000       5.439904       148.0273 
 284   0.0000       5.471960       148.8996 
 285   0.0000       5.580231       151.8458 
 286   0.0000       5.727957       155.8656 
 287   0.0000       5.792932       157.6337 
 288   0.0000       5.820261       158.3773 
 289   0.0000       5.922384       161.1563 
 290   0.0000       7.410031       201.6372 
 291   0.0000       7.502118       204.1430 
 292   0.0000       9.141873       248.7630 
 293   0.0000       9.168649       249.4916 
 294   0.0000       9.243437       251.5267 
 295   0.0000       9.352956       254.5069 
 296   0.0000      29.682343       807.6976 
 297   0.0000      29.705514       808.3281 
 298   0.0000      29.791087       810.6567 
 299   0.0000      29.973938       815.6323 
 300   0.0000      30.059412       817.9582 
 301   0.0000      30.154470       820.5448 
 302   0.0000      30.247317       823.0714 
 303   0.0000      30.312480       824.8445 
 304   0.0000      36.698002       998.6034 
 305   0.0000      36.727964       999.4187 
 306   0.0000      36.734475       999.5959 
 307   0.0000      36.752375      1000.0830 
 308   0.0000      36.790715      1001.1263 
 309   0.0000      36.830923      1002.2204 
 310   0.0000      36.898600      1004.0619 
 311   0.0000      36.915154      1004.5124 
 312   0.0000      36.953913      1005.5671 
 313   0.0000      37.003841      1006.9257 
 314   0.0000      37.018528      1007.3254 
 315   0.0000      37.041065      1007.9386 
 316   0.0000      41.345919      1125.0797 
 317   0.0000      41.439688      1127.6312 
 318   0.0000      53.683529      1460.8031 
 319   0.0000      53.705502      1461.4010 
 320   0.0000      53.778556      1463.3889 
 321   0.0000      53.889086      1466.3966 

                 SPIN DOWN ORBITALS
  NO   OCC          E(Eh)            E(eV) 
   0   1.0000     -18.998652      -516.9796 
   1   1.0000     -18.994098      -516.8557 
   2   1.0000     -18.937251      -515.3088 
   3   1.0000     -18.932511      -515.1798 
   4   1.0000     -14.237847      -387.4315 
   5   1.0000     -14.215087      -386.8122 
   6   1.0000     -10.185559      -277.1631 
   7   1.0000     -10.169636      -276.7299 
   8   1.0000     -10.129590      -275.6402 
   9   1.0000     -10.120043      -275.3804 
  10   1.0000     -10.096686      -274.7448 
  11   1.0000     -10.096595      -274.7423 
  12   1.0000     -10.055560      -273.6257 
  13   1.0000     -10.049751      -273.4676 
  14   1.0000      -0.919157       -25.0115 
  15   1.0000      -0.908273       -24.7154 
  16   1.0000      -0.867749       -23.6127 
  17   1.0000      -0.802318       -21.8322 
  18   1.0000      -0.791468       -21.5369 
  19   1.0000      -0.778019       -21.1710 
  20   1.0000      -0.660572       -17.9751 
  21   1.0000      -0.624416       -16.9912 
  22   1.0000      -0.592150       -16.1132 
  23   1.0000      -0.561462       -15.2782 
  24   1.0000      -0.483560       -13.1583 
  25   1.0000      -0.452826       -12.3220 
  26   1.0000      -0.424552       -11.5526 
  27   1.0000      -0.409139       -11.1332 
  28   1.0000      -0.368809       -10.0358 
  29   1.0000      -0.365173        -9.9369 
  30   1.0000      -0.345044        -9.3891 
  31   1.0000      -0.339102        -9.2274 
  32   1.0000      -0.334135        -9.0923 
  33   1.0000      -0.329370        -8.9626 
  34   1.0000      -0.319095        -8.6830 
  35   1.0000      -0.301665        -8.2087 
  36   1.0000      -0.292906        -7.9704 
  37   1.0000      -0.284993        -7.7551 
  38   1.0000      -0.280893        -7.6435 
  39   1.0000      -0.269789        -7.3413 
  40   1.0000      -0.258597        -7.0368 
  41   1.0000      -0.253554        -6.8995 
  42   1.0000      -0.245798        -6.6885 
  43   1.0000      -0.235895        -6.4190 
  44   1.0000      -0.222766        -6.0618 
  45   1.0000      -0.205730        -5.5982 
  46   1.0000      -0.151501        -4.1226 
  47   1.0000      -0.145168        -3.9502 
  48   1.0000      -0.141440        -3.8488 
  49   1.0000      -0.129831        -3.5329 
  50   1.0000      -0.099089        -2.6963 
  51   1.0000      -0.092900        -2.5279 
  52   1.0000      -0.078449        -2.1347 
  53   0.0000       0.071357         1.9417 
  54   0.0000       0.105675         2.8756 
  55   0.0000       0.122222         3.3258 
  56   0.0000       0.128782         3.5043 
  57   0.0000       0.139962         3.8086 
  58   0.0000       0.155956         4.2438 
  59   0.0000       0.165372         4.5000 
  60   0.0000       0.178420         4.8551 
  61   0.0000       0.189296         5.1510 
  62   0.0000       0.198694         5.4067 
  63   0.0000       0.209233         5.6935 
  64   0.0000       0.213087         5.7984 
  65   0.0000       0.228622         6.2211 
  66   0.0000       0.242882         6.6091 
  67   0.0000       0.251642         6.8475 
  68   0.0000       0.273017         7.4292 
  69   0.0000       0.283041         7.7019 
  70   0.0000       0.298159         8.1133 
  71   0.0000       0.300869         8.1871 
  72   0.0000       0.304915         8.2972 
  73   0.0000       0.307451         8.3662 
  74   0.0000       0.325825         8.8662 
  75   0.0000       0.326497         8.8844 
  76   0.0000       0.331865         9.0305 
  77   0.0000       0.338471         9.2103 
  78   0.0000       0.345839         9.4108 
  79   0.0000       0.353872         9.6293 
  80   0.0000       0.364954         9.9309 
  81   0.0000       0.369803        10.0629 
  82   0.0000       0.386595        10.5198 
  83   0.0000       0.387587        10.5468 
  84   0.0000       0.391657        10.6575 
  85   0.0000       0.399115        10.8605 
  86   0.0000       0.401247        10.9185 
  87   0.0000       0.408066        11.1040 
  88   0.0000       0.417593        11.3633 
  89   0.0000       0.424000        11.5376 
  90   0.0000       0.433178        11.7874 
  91   0.0000       0.443224        12.0607 
  92   0.0000       0.452462        12.3121 
  93   0.0000       0.458566        12.4782 
  94   0.0000       0.479719        13.0538 
  95   0.0000       0.481116        13.0918 
  96   0.0000       0.495831        13.4922 
  97   0.0000       0.510780        13.8990 
  98   0.0000       0.514310        13.9951 
  99   0.0000       0.522455        14.2167 
 100   0.0000       0.533129        14.5072 
 101   0.0000       0.537554        14.6276 
 102   0.0000       0.547160        14.8890 
 103   0.0000       0.550931        14.9916 
 104   0.0000       0.568096        15.4587 
 105   0.0000       0.576723        15.6934 
 106   0.0000       0.593387        16.1469 
 107   0.0000       0.596364        16.2279 
 108   0.0000       0.600581        16.3426 
 109   0.0000       0.610482        16.6121 
 110   0.0000       0.622034        16.9264 
 111   0.0000       0.641613        17.4592 
 112   0.0000       0.656954        17.8766 
 113   0.0000       0.663617        18.0579 
 114   0.0000       0.675138        18.3714 
 115   0.0000       0.698554        19.0086 
 116   0.0000       0.716153        19.4875 
 117   0.0000       0.726140        19.7593 
 118   0.0000       0.737565        20.0702 
 119   0.0000       0.749158        20.3856 
 120   0.0000       0.771382        20.9904 
 121   0.0000       0.800062        21.7708 
 122   0.0000       0.806280        21.9400 
 123   0.0000       0.838626        22.8202 
 124   0.0000       0.863917        23.5084 
 125   0.0000       0.877027        23.8651 
 126   0.0000       0.887676        24.1549 
 127   0.0000       0.896951        24.4073 
 128   0.0000       0.910611        24.7790 
 129   0.0000       0.927196        25.2303 
 130   0.0000       0.932517        25.3751 
 131   0.0000       0.946365        25.7519 
 132   0.0000       0.958994        26.0955 
 133   0.0000       0.965902        26.2835 
 134   0.0000       0.967743        26.3336 
 135   0.0000       0.979606        26.6564 
 136   0.0000       0.990806        26.9612 
 137   0.0000       0.998945        27.1827 
 138   0.0000       1.004945        27.3459 
 139   0.0000       1.011481        27.5238 
 140   0.0000       1.026631        27.9361 
 141   0.0000       1.036889        28.2152 
 142   0.0000       1.040297        28.3079 
 143   0.0000       1.048054        28.5190 
 144   0.0000       1.055409        28.7191 
 145   0.0000       1.061361        28.8811 
 146   0.0000       1.078047        29.3351 
 147   0.0000       1.087633        29.5960 
 148   0.0000       1.096184        29.8287 
 149   0.0000       1.099499        29.9189 
 150   0.0000       1.111518        30.2459 
 151   0.0000       1.131648        30.7937 
 152   0.0000       1.138128        30.9700 
 153   0.0000       1.144555        31.1449 
 154   0.0000       1.164689        31.6928 
 155   0.0000       1.170403        31.8483 
 156   0.0000       1.182672        32.1821 
 157   0.0000       1.209778        32.9197 
 158   0.0000       1.239050        33.7163 
 159   0.0000       1.246240        33.9119 
 160   0.0000       1.282496        34.8985 
 161   0.0000       1.286441        35.0058 
 162   0.0000       1.291411        35.1411 
 163   0.0000       1.303295        35.4645 
 164   0.0000       1.330087        36.1935 
 165   0.0000       1.355913        36.8963 
 166   0.0000       1.380217        37.5576 
 167   0.0000       1.404254        38.2117 
 168   0.0000       1.409226        38.3470 
 169   0.0000       1.433874        39.0177 
 170   0.0000       1.452768        39.5318 
 171   0.0000       1.474300        40.1177 
 172   0.0000       1.492147        40.6034 
 173   0.0000       1.500040        40.8182 
 174   0.0000       1.503719        40.9183 
 175   0.0000       1.525831        41.5200 
 176   0.0000       1.532905        41.7125 
 177   0.0000       1.568679        42.6859 
 178   0.0000       1.581199        43.0266 
 179   0.0000       1.587035        43.1854 
 180   0.0000       1.609718        43.8027 
 181   0.0000       1.614067        43.9210 
 182   0.0000       1.625518        44.2326 
 183   0.0000       1.634146        44.4674 
 184   0.0000       1.650674        44.9171 
 185   0.0000       1.665043        45.3081 
 186   0.0000       1.669319        45.4245 
 187   0.0000       1.675967        45.6054 
 188   0.0000       1.699846        46.2552 
 189   0.0000       1.720116        46.8067 
 190   0.0000       1.726272        46.9743 
 191   0.0000       1.735650        47.2294 
 192   0.0000       1.752855        47.6976 
 193   0.0000       1.778862        48.4053 
 194   0.0000       1.797494        48.9123 
 195   0.0000       1.812139        49.3108 
 196   0.0000       1.825871        49.6845 
 197   0.0000       1.833553        49.8935 
 198   0.0000       1.841292        50.1041 
 199   0.0000       1.850828        50.3636 
 200   0.0000       1.862970        50.6940 
 201   0.0000       1.885014        51.2938 
 202   0.0000       1.904428        51.8221 
 203   0.0000       1.912875        52.0520 
 204   0.0000       1.934480        52.6399 
 205   0.0000       1.949032        53.0359 
 206   0.0000       1.958944        53.3056 
 207   0.0000       1.967683        53.5434 
 208   0.0000       1.988159        54.1006 
 209   0.0000       2.002281        54.4848 
 210   0.0000       2.015060        54.8326 
 211   0.0000       2.035061        55.3768 
 212   0.0000       2.070350        56.3371 
 213   0.0000       2.094502        56.9943 
 214   0.0000       2.110707        57.4352 
 215   0.0000       2.131068        57.9893 
 216   0.0000       2.145473        58.3813 
 217   0.0000       2.160193        58.7819 
 218   0.0000       2.181363        59.3579 
 219   0.0000       2.189718        59.5852 
 220   0.0000       2.232206        60.7414 
 221   0.0000       2.236328        60.8536 
 222   0.0000       2.259628        61.4876 
 223   0.0000       2.261517        61.5390 
 224   0.0000       2.307829        62.7992 
 225   0.0000       2.318469        63.0888 
 226   0.0000       2.350521        63.9609 
 227   0.0000       2.361580        64.2619 
 228   0.0000       2.398071        65.2548 
 229   0.0000       2.418554        65.8122 
 230   0.0000       2.454637        66.7941 
 231   0.0000       2.472286        67.2743 
 232   0.0000       2.479476        67.4700 
 233   0.0000       2.486285        67.6553 
 234   0.0000       2.508991        68.2731 
 235   0.0000       2.545888        69.2771 
 236   0.0000       2.571418        69.9719 
 237   0.0000       2.582108        70.2627 
 238   0.0000       2.612429        71.0878 
 239   0.0000       2.627183        71.4893 
 240   0.0000       2.631803        71.6150 
 241   0.0000       2.640714        71.8575 
 242   0.0000       2.672821        72.7312 
 243   0.0000       2.716900        73.9306 
 244   0.0000       2.725784        74.1724 
 245   0.0000       2.757679        75.0403 
 246   0.0000       2.784321        75.7652 
 247   0.0000       2.809956        76.4628 
 248   0.0000       2.825048        76.8735 
 249   0.0000       2.852071        77.6088 
 250   0.0000       2.861537        77.8664 
 251   0.0000       2.868107        78.0452 
 252   0.0000       2.893705        78.7417 
 253   0.0000       2.896679        78.8227 
 254   0.0000       2.923595        79.5551 
 255   0.0000       3.052991        83.0761 
 256   0.0000       3.105717        84.5109 
 257   0.0000       3.128856        85.1405 
 258   0.0000       3.198812        87.0441 
 259   0.0000       3.214690        87.4762 
 260   0.0000       3.253595        88.5348 
 261   0.0000       3.332493        90.6817 
 262   0.0000       3.352491        91.2259 
 263   0.0000       3.450321        93.8880 
 264   0.0000       3.485898        94.8561 
 265   0.0000       3.512867        95.5900 
 266   0.0000       3.536220        96.2254 
 267   0.0000       3.550549        96.6154 
 268   0.0000       3.589980        97.6883 
 269   0.0000       3.678185       100.0885 
 270   0.0000       5.075865       138.1213 
 271   0.0000       5.102048       138.8338 
 272   0.0000       5.108648       139.0134 
 273   0.0000       5.115485       139.1994 
 274   0.0000       5.136023       139.7583 
 275   0.0000       5.185165       141.0955 
 276   0.0000       5.229564       142.3037 
 277   0.0000       5.293706       144.0491 
 278   0.0000       5.310864       144.5160 
 279   0.0000       5.330652       145.0544 
 280   0.0000       5.368976       146.0973 
 281   0.0000       5.383929       146.5042 
 282   0.0000       5.415603       147.3661 
 283   0.0000       5.440440       148.0419 
 284   0.0000       5.476881       149.0335 
 285   0.0000       5.590319       152.1203 
 286   0.0000       5.728811       155.8889 
 287   0.0000       5.793026       157.6363 
 288   0.0000       5.820067       158.3721 
 289   0.0000       5.932130       161.4215 
 290   0.0000       7.412885       201.7149 
 291   0.0000       7.502426       204.1514 
 292   0.0000       9.143011       248.7940 
 293   0.0000       9.168798       249.4957 
 294   0.0000       9.243776       251.5359 
 295   0.0000       9.354074       254.5373 
 296   0.0000      29.686142       807.8010 
 297   0.0000      29.705737       808.3342 
 298   0.0000      29.792136       810.6852 
 299   0.0000      29.981681       815.8430 
 300   0.0000      30.062893       818.0529 
 301   0.0000      30.154539       820.5467 
 302   0.0000      30.246530       823.0499 
 303   0.0000      30.317003       824.9676 
 304   0.0000      36.698073       998.6053 
 305   0.0000      36.727979       999.4191 
 306   0.0000      36.734505       999.5967 
 307   0.0000      36.752466      1000.0854 
 308   0.0000      36.795997      1001.2700 
 309   0.0000      36.833671      1002.2951 
 310   0.0000      36.891981      1003.8818 
 311   0.0000      36.915542      1004.5230 
 312   0.0000      36.955260      1005.6037 
 313   0.0000      37.004371      1006.9401 
 314   0.0000      37.018926      1007.3362 
 315   0.0000      37.043586      1008.0072 
 316   0.0000      41.347804      1125.1310 
 317   0.0000      41.439856      1127.6358 
 318   0.0000      53.684116      1460.8191 
 319   0.0000      53.705581      1461.4032 
 320   0.0000      53.778741      1463.3939 
 321   0.0000      53.889677      1466.4127 

                    ********************************
                    * MULLIKEN POPULATION ANALYSIS *
                    ********************************

--------------------------------------------
MULLIKEN ATOMIC CHARGES AND SPIN POPULATIONS
--------------------------------------------
   0 N :   -0.096815    0.036460
   1 C :   -0.100469   -0.045489
   2 C :    0.030480    0.009294
   3 O :   -0.414610    0.003651
   4 C :   -0.105375    0.968456
   5 H :    0.106764   -0.049334
   6 C :   -0.361552   -0.055172
   7 H :    0.145867    0.027997
   8 H :    0.143118    0.003901
   9 C :    0.124901    0.042653
  10 O :   -0.420700    0.013923
  11 O :   -0.400391    0.021639
  12 H :    0.236727    0.002471
  13 C :    0.163871    0.005737
  14 N :   -0.057519    0.004281
  15 H :    0.272102    0.000306
  16 O :   -0.345581    0.001142
  17 C :   -0.572271    0.002058
  18 H :    0.175237    0.000730
  19 H :    0.171958   -0.000392
  20 H :    0.148281   -0.000105
  21 C :   -0.479937   -0.000345
  22 H :    0.152734    0.000341
  23 H :    0.159694    0.000063
  24 H :    0.158101    0.000005
  25 H :    0.165383    0.005730
Sum of atomic charges         :   -1.0000000
Sum of atomic spin populations:    1.0000000

-----------------------------------------------------
MULLIKEN REDUCED ORBITAL CHARGES AND SPIN POPULATIONS
-----------------------------------------------------
CHARGE
  0 N s       :     3.383312  s :     3.383312
      pz      :     1.090659  p :     3.678919
      px      :     1.024016
      py      :     1.564243
      dz2     :     0.009511  d :     0.034583
      dxz     :     0.010881
      dyz     :     0.003430
      dx2y2   :     0.005630
      dxy     :     0.005132
  1 C s       :     3.136617  s :     3.136617
      pz      :     0.983674  p :     2.857491
      px      :     0.825737
      py      :     1.048080
      dz2     :     0.020427  d :     0.106361
      dxz     :     0.015769
      dyz     :     0.017588
      dx2y2   :     0.029266
      dxy     :     0.023311
  2 C s       :     3.127215  s :     3.127215
      pz      :     0.932867  p :     2.651227
      px      :     0.874844
      py      :     0.843515
      dz2     :     0.055729  d :     0.191078
      dxz     :     0.043712
      dyz     :     0.021211
      dx2y2   :     0.034346
      dxy     :     0.036081
  3 O s       :     3.927650  s :     3.927650
      pz      :     1.473691  p :     4.470105
      px      :     1.535483
      py      :     1.460931
      dz2     :     0.003381  d :     0.016855
      dxz     :     0.005710
      dyz     :     0.003403
      dx2y2   :     0.002028
      dxy     :     0.002333
  4 C s       :     3.244890  s :     3.244890
      pz      :     0.928451  p :     2.800899
      px      :     1.011304
      py      :     0.861145
      dz2     :     0.020772  d :     0.059586
      dxz     :     0.003226
      dyz     :     0.016950
      dx2y2   :     0.009577
      dxy     :     0.009061
  5 H s       :     0.871332  s :     0.871332
      pz      :     0.010625  p :     0.021903
      px      :     0.006613
      py      :     0.004665
  6 C s       :     3.209520  s :     3.209520
      pz      :     1.085273  p :     3.079694
      px      :     0.998876
      py      :     0.995545
      dz2     :     0.017203  d :     0.072339
      dxz     :     0.010033
      dyz     :     0.013291
      dx2y2   :     0.016552
      dxy     :     0.015259
  7 H s       :     0.834682  s :     0.834682
      pz      :     0.005605  p :     0.019451
      px      :     0.005794
      py      :     0.008052
  8 H s       :     0.836507  s :     0.836507
      pz      :     0.009007  p :     0.020375
      px      :     0.006268
      py      :     0.005100
  9 C s       :     3.081049  s :     3.081049
      pz      :     0.819298  p :     2.565348
      px      :     0.931588
      py      :     0.814463
      dz2     :     0.023632  d :     0.228701
      dxz     :     0.018533
      dyz     :     0.045668
      dx2y2   :     0.075519
      dxy     :     0.065348
 10 O s       :     3.875474  s :     3.875474
      pz      :     1.546989  p :     4.531181
      px      :     1.567421
      py      :     1.416771
      dz2     :     0.001801  d :     0.014044
      dxz     :     0.002342
      dyz     :     0.002321
      dx2y2   :     0.002378
      dxy     :     0.005203
 11 O s       :     3.906593  s :     3.906593
      pz      :     1.473212  p :     4.477275
      px      :     1.730833
      py      :     1.273230
      dz2     :     0.002222  d :     0.016523
      dxz     :     0.000826
      dyz     :     0.004711
      dx2y2   :     0.005052
      dxy     :     0.003712
 12 H s       :     0.719067  s :     0.719067
      pz      :     0.020249  p :     0.044206
      px      :     0.010263
      py      :     0.013693
 13 C s       :     3.054264  s :     3.054264
      pz      :     0.860427  p :     2.586909
      px      :     0.912279
      py      :     0.814203
      dz2     :     0.048369  d :     0.194956
      dxz     :     0.067970
      dyz     :     0.044538
      dx2y2   :     0.019667
      dxy     :     0.014413
 14 N s       :     3.395166  s :     3.395166
      pz      :     1.099659  p :     3.628511
      px      :     1.065678
      py      :     1.463174
      dz2     :     0.008430  d :     0.033841
      dxz     :     0.008437
      dyz     :     0.005384
      dx2y2   :     0.006423
      dxy     :     0.005167
 15 H s       :     0.666024  s :     0.666024
      pz      :     0.019426  p :     0.061874
      px      :     0.017042
      py      :     0.025406
 16 O s       :     3.906621  s :     3.906621
      pz      :     1.253915  p :     4.421096
      px      :     1.712437
      py      :     1.454744
      dz2     :     0.007429  d :     0.017863
      dxz     :     0.004601
      dyz     :     0.004659
      dx2y2   :     0.000513
      dxy     :     0.000662
 17 C s       :     3.225981  s :     3.225981
      pz      :     1.127544  p :     3.284688
      px      :     1.017273
      py      :     1.139871
      dz2     :     0.016943  d :     0.061601
      dxz     :     0.009620
      dyz     :     0.008902
      dx2y2   :     0.015201
      dxy     :     0.010935
 18 H s       :     0.805960  s :     0.805960
      pz      :     0.006227  p :     0.018803
      px      :     0.006408
      py      :     0.006167
 19 H s       :     0.809255  s :     0.809255
      pz      :     0.004590  p :     0.018787
      px      :     0.005252
      py      :     0.008945
 20 H s       :     0.832886  s :     0.832886
      pz      :     0.009219  p :     0.018833
      px      :     0.004950
      py      :     0.004664
 21 C s       :     3.203193  s :     3.203193
      pz      :     0.934267  p :     3.185972
      px      :     1.111317
      py      :     1.140389
      dz2     :     0.021686  d :     0.090772
      dxz     :     0.018487
      dyz     :     0.022737
      dx2y2   :     0.017526
      dxy     :     0.010336
 22 H s       :     0.830325  s :     0.830325
      pz      :     0.003583  p :     0.016940
      px      :     0.004325
      py      :     0.009032
 23 H s       :     0.822867  s :     0.822867
      pz      :     0.003303  p :     0.017439
      px      :     0.008904
      py      :     0.005232
 24 H s       :     0.824808  s :     0.824808
      pz      :     0.005275  p :     0.017091
      px      :     0.006025
      py      :     0.005791
 25 H s       :     0.815140  s :     0.815140
      pz      :     0.006830  p :     0.019477
      px      :     0.004042
      py      :     0.008605

SPIN
  0 N s       :     0.007255  s :     0.007255
      pz      :     0.001861  p :     0.029170
      px      :     0.022680
      py      :     0.004629
      dz2     :    -0.000008  d :     0.000034
      dxz     :    -0.000046
      dyz     :     0.000015
      dx2y2   :     0.000042
      dxy     :     0.000032
  1 C s       :    -0.011881  s :    -0.011881
      pz      :    -0.018478  p :    -0.046709
      px      :    -0.008795
      py      :    -0.019436
      dz2     :     0.001415  d :     0.013101
      dxz     :     0.001927
      dyz     :     0.000741
      dx2y2   :     0.006278
      dxy     :     0.002740
  2 C s       :     0.006798  s :     0.006798
      pz      :     0.003303  p :     0.002603
      px      :    -0.000985
      py      :     0.000285
      dz2     :    -0.000188  d :    -0.000107
      dxz     :     0.000007
      dyz     :    -0.000077
      dx2y2   :     0.000118
      dxy     :     0.000033
  3 O s       :    -0.000816  s :    -0.000816
      pz      :     0.004085  p :     0.004468
      px      :     0.000767
[...]
                 2.2898               1.2948              -1.8229
                -3.2064              -1.8229               6.9884

 A(FC)           4.1202               4.1202               4.1202
 A(SD)          -4.1145              -1.7179               5.8324
 A(ORB+DIA)      0.0019              -0.0000               0.0008    A(PC) =   0.0009
 A(ORB)          0.0018              -0.0003               0.0002    A(PC) =   0.0006
 A(DIA)          0.0001               0.0003               0.0005    A(PC) =   0.0003
             ----------           ----------           ----------
 A(Tot)          0.0076               2.4023               9.9533    A(iso)=    4.1211
 Orientation: 
  X           0.4870908            0.6820499           -0.5454819
  Y          -0.8733393            0.3771132           -0.3083247
  Z          -0.0045844            0.6265729            0.7793494

Notes:  (1) The A matrix conforms to the "SAI" spin Hamiltonian convention.
        (2) Tensor is right-handed.

 -----------------------------------------------------------
 Nucleus  14N : A:ISTP=    1 I=  0.5 P=533.5514 MHz/au**3
                Q:ISTP=    2 I=  1.0 Q=  0.0029 barn     
 -----------------------------------------------------------
 Solving for nuclear perturbation:
Forming RHS of the CP-SCF equations         ... 
Calc. nucleus orbit integrals (SHARK)       ... done

------------------------------------------------------------------------------
                           ORCA CP-SCF CALCULATION
------------------------------------------------------------------------------

Input orbitals are from        ... epr_info.gbw
Input Perturbation             ... epr_info.pin.tmp
Wavefunction output            ... epr_info.pout.tmp
Perturbation mode              ... Imaginary perturbation
Solver                         ... POPLE
Max. number of iterations      ... 64
Convergence tolerance          ... 1.000e-03
Integral handling              ... Direct
DFT GridXC                     ... 1
COSX GridX                     ... 1
COSX IntAccX                   ... 3.067
COSX Algorithm                 ... Auto
Number of perturbations        ... 3
Number of operators            ... 2
Orbital ranges used for CP-SCF:
 Operator 0:  Orbitals   0... 53  to  54...321
 Operator 1:  Orbitals   0... 52  to  53...321
Variables per perturbation     ... 28729
DFT calculation                         ... on
XC functional terms                     ... off
Hybrid DFT                              ... on
   Exchange mixing (SCF)                ...  0.200
   Exchange mixing (CP-SCF)             ...  0.200
   GGA exch. scaling(SCF)               ...  0.720
   GGA exch. scaling (CP-SCF)           ...  0.720
   GGA corr. scaling (SCF)              ...  0.810
   GGA corr. scaling (CP-SCF)           ...  0.810

CP-SCF GRID
-----------

General Integration Accuracy     IntAcc      ... 3.467
Radial Grid Type                 RadialGrid  ... OptM3 with GC (2021)
Angular Grid (max. ang.)         AngularGrid ... 1 (Lebedev-50)
Angular grid pruning method      GridPruning ... 4 (adaptive)
Weight generation scheme         WeightScheme... Becke
Basis function cutoff            BFCut       ... 1.0000e-10
Integration weight cutoff        WCut        ... 1.0000e-14
Angular grids for H and He will be reduced by one unit
Partially contracted basis set               ... off
Rotationally invariant grid construction     ... off

Total number of grid points                  ...    17792
Total number of batches                      ...      290
Average number of points per batch           ...       61
Average number of grid points per atom       ...      684

CP-SCF GRIDX
------------

General Integration Accuracy     IntAcc      ... 3.067
Radial Grid Type                 RadialGrid  ... OptM3 with GC (2021)
Angular Grid (max. ang.)         AngularGrid ... 1 (Lebedev-50)
Angular grid pruning method      GridPruning ... 4 (adaptive)
Weight generation scheme         WeightScheme... Becke
Basis function cutoff            BFCut       ... 1.0000e-10
Integration weight cutoff        WCut        ... 1.0000e-14
Angular grids for H and He will be reduced by one unit
Partially contracted basis set               ... on
Rotationally invariant grid construction     ... off

Total number of grid points                  ...     8248
Total number of batches                      ...      146
Average number of points per batch           ...       56
Average number of grid points per atom       ...      317

Memory available               ... 931.9 MB
Memory needed per perturbation ...   6.5 MB
Perturbations treated per batch... 3
Number of batches              ... 1
     CP-SCF ITERATION   0:   1.1451e+00 (   0.4 sec   0/  3 done)
     CP-SCF ITERATION   1:   4.5493e-02 (   0.4 sec   0/  3 done)
     CP-SCF ITERATION   2:   3.8485e-03 (   0.4 sec   0/  3 done)
     CP-SCF ITERATION   3:   2.1918e-04 (   0.4 sec   3/  3 done)
                    *** THE CP-SCF HAS CONVERGED ***

Forming final perturbed densities           ... done
Transforming perturbed density to AO basis  ... done

 Raw HFC matrix (all values in MHz): 
 -----------------------------------
                 2.2643               3.7355               0.3353
                 3.7362               3.7191              -6.6689
                 0.2656              -6.6620               6.5566

 A(FC)           4.1854               4.1854               4.1854
 A(SD)          -7.6095              -0.6494               8.2589
 A(ORB+DIA)     -0.0171               0.0199              -0.0191    A(PC) =  -0.0054
 A(ORB)         -0.0173               0.0195              -0.0192    A(PC) =  -0.0056
 A(DIA)          0.0002               0.0004               0.0002    A(PC) =   0.0002
             ----------           ----------           ----------
 A(Tot)         -3.4412               3.5560              12.4253    A(iso)=    4.1800
 Orientation: 
  X           0.4817234           -0.8494300            0.2154325
  Y          -0.7193540           -0.2429020            0.6507906
  Z          -0.5004721           -0.4684733           -0.7280525

Notes:  (1) The A matrix conforms to the "SAI" spin Hamiltonian convention.
        (2) Tensor is right-handed.

 -----------------------------------------------------------
 Nucleus  15H : A:ISTP=    1 I=  0.5 P=533.5514 MHz/au**3
                Q:ISTP=    2 I=  1.0 Q=  0.0029 barn     
 -----------------------------------------------------------
 Solving for nuclear perturbation:
Forming RHS of the CP-SCF equations         ... 
Calc. nucleus orbit integrals (SHARK)       ... done

------------------------------------------------------------------------------
                           ORCA CP-SCF CALCULATION
------------------------------------------------------------------------------

Input orbitals are from        ... epr_info.gbw
Input Perturbation             ... epr_info.pin.tmp
Wavefunction output            ... epr_info.pout.tmp
Perturbation mode              ... Imaginary perturbation
Solver                         ... POPLE
Max. number of iterations      ... 64
Convergence tolerance          ... 1.000e-03
Integral handling              ... Direct
DFT GridXC                     ... 1
COSX GridX                     ... 1
COSX IntAccX                   ... 3.067
COSX Algorithm                 ... Auto
Number of perturbations        ... 3
Number of operators            ... 2
Orbital ranges used for CP-SCF:
 Operator 0:  Orbitals   0... 53  to  54...321
 Operator 1:  Orbitals   0... 52  to  53...321
Variables per perturbation     ... 28729
DFT calculation                         ... on
XC functional terms                     ... off
Hybrid DFT                              ... on
   Exchange mixing (SCF)                ...  0.200
   Exchange mixing (CP-SCF)             ...  0.200
   GGA exch. scaling(SCF)               ...  0.720
   GGA exch. scaling (CP-SCF)           ...  0.720
   GGA corr. scaling (SCF)              ...  0.810
   GGA corr. scaling (CP-SCF)           ...  0.810

CP-SCF GRID
-----------

General Integration Accuracy     IntAcc      ... 3.467
Radial Grid Type                 RadialGrid  ... OptM3 with GC (2021)
Angular Grid (max. ang.)         AngularGrid ... 1 (Lebedev-50)
Angular grid pruning method      GridPruning ... 4 (adaptive)
Weight generation scheme         WeightScheme... Becke
Basis function cutoff            BFCut       ... 1.0000e-10
Integration weight cutoff        WCut        ... 1.0000e-14
Angular grids for H and He will be reduced by one unit
Partially contracted basis set               ... off
Rotationally invariant grid construction     ... off

Total number of grid points                  ...    17792
Total number of batches                      ...      290
Average number of points per batch           ...       61
Average number of grid points per atom       ...      684

CP-SCF GRIDX
------------

General Integration Accuracy     IntAcc      ... 3.067
Radial Grid Type                 RadialGrid  ... OptM3 with GC (2021)
Angular Grid (max. ang.)         AngularGrid ... 1 (Lebedev-50)
Angular grid pruning method      GridPruning ... 4 (adaptive)
Weight generation scheme         WeightScheme... Becke
Basis function cutoff            BFCut       ... 1.0000e-10
Integration weight cutoff        WCut        ... 1.0000e-14
Angular grids for H and He will be reduced by one unit
Partially contracted basis set               ... on
Rotationally invariant grid construction     ... off

Total number of grid points                  ...     8248
Total number of batches                      ...      146
Average number of points per batch           ...       56
Average number of grid points per atom       ...      317

Memory available               ... 931.5 MB
Memory needed per perturbation ...   6.5 MB
Perturbations treated per batch... 3
Number of batches              ... 1
     CP-SCF ITERATION   0:   5.9735e-02 (   0.4 sec   0/  3 done)
     CP-SCF ITERATION   1:   2.6045e-03 (   0.4 sec   0/  3 done)
     CP-SCF ITERATION   2:   2.1821e-04 (   0.4 sec   3/  3 done)
                    *** THE CP-SCF HAS CONVERGED ***

Forming final perturbed densities           ... done
Transforming perturbed density to AO basis  ... done

 Raw HFC matrix (all values in MHz): 
 -----------------------------------
                 0.1576              -0.5750               6.4589
                -0.5724              -4.9788              -2.2946
                 6.4702              -2.3038               2.9825

 A(FC)          -0.6115              -0.6115              -0.6115
 A(SD)          -3.5772              -5.5630               9.1402
 A(ORB+DIA)     -0.0044              -0.0025               0.0027    A(PC) =  -0.0014
 A(ORB)         -0.0047              -0.0024               0.0024    A(PC) =  -0.0016
 A(DIA)          0.0003              -0.0000               0.0003    A(PC) =   0.0002
             ----------           ----------           ----------
 A(Tot)         -4.1931              -6.1769               8.5314    A(iso)=   -0.6129
 Orientation: 
  X           0.6576818           -0.4417950            0.6101408
  Y           0.6475112            0.7454567           -0.1581886
  Z          -0.3849466            0.4991107            0.7763405

Notes:  (1) The A matrix conforms to the "SAI" spin Hamiltonian convention.
        (2) Tensor is right-handed.

 -----------------------------------------------------------
 Nucleus  25H : A:ISTP=    1 I=  0.5 P=533.5514 MHz/au**3
                Q:ISTP=    2 I=  1.0 Q=  0.0029 barn     
 -----------------------------------------------------------
 Solving for nuclear perturbation:
Forming RHS of the CP-SCF equations         ... 
Calc. nucleus orbit integrals (SHARK)       ... done

------------------------------------------------------------------------------
                           ORCA CP-SCF CALCULATION
------------------------------------------------------------------------------

Input orbitals are from        ... epr_info.gbw
Input Perturbation             ... epr_info.pin.tmp
Wavefunction output            ... epr_info.pout.tmp
Perturbation mode              ... Imaginary perturbation
Solver                         ... POPLE
Max. number of iterations      ... 64
Convergence tolerance          ... 1.000e-03
Integral handling              ... Direct
DFT GridXC                     ... 1
COSX GridX                     ... 1
COSX IntAccX                   ... 3.067
COSX Algorithm                 ... Auto
Number of perturbations        ... 3
Number of operators            ... 2
Orbital ranges used for CP-SCF:
 Operator 0:  Orbitals   0... 53  to  54...321
 Operator 1:  Orbitals   0... 52  to  53...321
Variables per perturbation     ... 28729
DFT calculation                         ... on
XC functional terms                     ... off
Hybrid DFT                              ... on
   Exchange mixing (SCF)                ...  0.200
   Exchange mixing (CP-SCF)             ...  0.200
   GGA exch. scaling(SCF)               ...  0.720
   GGA exch. scaling (CP-SCF)           ...  0.720
   GGA corr. scaling (SCF)              ...  0.810
   GGA corr. scaling (CP-SCF)           ...  0.810

CP-SCF GRID
-----------

General Integration Accuracy     IntAcc      ... 3.467
Radial Grid Type                 RadialGrid  ... OptM3 with GC (2021)
Angular Grid (max. ang.)         AngularGrid ... 1 (Lebedev-50)
Angular grid pruning method      GridPruning ... 4 (adaptive)
Weight generation scheme         WeightScheme... Becke
Basis function cutoff            BFCut       ... 1.0000e-10
Integration weight cutoff        WCut        ... 1.0000e-14
Angular grids for H and He will be reduced by one unit
Partially contracted basis set               ... off
Rotationally invariant grid construction     ... off

Total number of grid points                  ...    17792
Total number of batches                      ...      290
Average number of points per batch           ...       61
Average number of grid points per atom       ...      684

CP-SCF GRIDX
------------

General Integration Accuracy     IntAcc      ... 3.067
Radial Grid Type                 RadialGrid  ... OptM3 with GC (2021)
Angular Grid (max. ang.)         AngularGrid ... 1 (Lebedev-50)
Angular grid pruning method      GridPruning ... 4 (adaptive)
Weight generation scheme         WeightScheme... Becke
Basis function cutoff            BFCut       ... 1.0000e-10
Integration weight cutoff        WCut        ... 1.0000e-14
Angular grids for H and He will be reduced by one unit
Partially contracted basis set               ... on
Rotationally invariant grid construction     ... off

Total number of grid points                  ...     8248
Total number of batches                      ...      146
Average number of points per batch           ...       56
Average number of grid points per atom       ...      317

Memory available               ... 931.2 MB
Memory needed per perturbation ...   6.5 MB
Perturbations treated per batch... 3
Number of batches              ... 1
     CP-SCF ITERATION   0:   4.1438e-02 (   0.4 sec   0/  3 done)
     CP-SCF ITERATION   1:   1.4061e-03 (   0.4 sec   1/  3 done)
     CP-SCF ITERATION   2:   1.1061e-04 (   0.3 sec   3/  3 done)
                    *** THE CP-SCF HAS CONVERGED ***

Forming final perturbed densities           ... done
Transforming perturbed density to AO basis  ... done

 Raw HFC matrix (all values in MHz): 
 -----------------------------------
                12.4847               2.4482              -0.3512
                 2.4475              25.0405              -2.5639
                -0.3488              -2.5637              10.5568

 A(FC)          16.0271              16.0271              16.0271
 A(SD)          -5.9105              -3.9937               9.9042
 A(ORB+DIA)     -0.0027              -0.0005               0.0038    A(PC) =   0.0002
 A(ORB)         -0.0032              -0.0007               0.0032    A(PC) =  -0.0002
 A(DIA)          0.0005               0.0001               0.0007    A(PC) =   0.0005
             ----------           ----------           ----------
 A(Tot)         10.1139              12.0329              25.9352    A(iso)=   16.0273
 Orientation: 
  X          -0.0346308           -0.9829133           -0.1807822
  Y           0.1746989            0.1721519           -0.9694555
  Z           0.9840127           -0.0651554            0.1657522

Notes:  (1) The A matrix conforms to the "SAI" spin Hamiltonian convention.
        (2) Tensor is right-handed.


--------------------------------------------------------------------------------
----------------------------------------------------------------------------
                           ORCA EULER ANGLE PROGRAM
----------------------------------------------------------------------------

Only g-tensor available        -->  using g-tensor as reference tensor

Reference tensor               ...  g

g-tensor ordering              ...  |g_min> --> |gx>
                                    |g_mid> --> |gy>
                                    |g_max> --> |gz>

A- and EFG-tensor ordering     ...  the axes |Ax>, |Qx>, |Ay>, etc. are assigned
                                    such that the Euler rotation is minimal. You
                                    can find the respective eigenvalues as Ax,
                                    EFGx, Ay, etc. in the tables below.
                                    The relation of |Ax>, |Ay>,  etc. to Amin, Amid, etc.
                                    (as printed in the ORCA EPR/NMR CALCULATION Output)
                                    is obtained in the detailed printout.

Euler rotation around          ...  z - y - z
   First rotation              -->  by alpha around z
   Second rotation             -->  by beta around y'
   Third rotation              -->  by gamma around z''
   Positive / Negative angle   -->  clockwise / counterclockwise rotation

Plot EFG-tensors                    (-)
Plot HFC-tensors                    (-)
Detailed Printout                   (-)

-------------------------------------------------------------------------
          Euler rotation of hyperfine tensor to g-tensor
-------------------------------------------------------------------------

-------------------------------------------------------------------
 Atom  |   Alpha    Beta    Gamma   |   Ax       Ay       Az 
       |          [degrees]         |           [MHz]         
-------------------------------------------------------------------
  0N     -133.5     23.1     98.9     446.12   357.20   352.12
  3O     -115.1     24.5    154.7      -0.44     4.28    26.46
  5H      -47.1     12.2     55.9     -63.77   -98.86   -23.64
  7H     -152.9      6.6    147.5      68.90    81.47    69.35
  8H       65.1     48.2    -62.6       5.50    16.79     4.74
 10O       49.1     36.5    -87.0     -15.67    40.00   -21.98
 11O      -97.1     16.1     74.2      74.68   -14.81   -25.91
 12H       -5.1     36.5    -32.6       2.40     0.01     9.95
 14N       45.7     39.2    -78.3       3.56    -3.44    12.43
 15H      134.2     38.7   -178.1      -4.19    -6.18     8.53
 25H      -73.9     14.2     76.4      12.03    25.94    10.11
-------------------------------------------------------------------


Maximum memory used throughout the entire EPRNMR-calculation: 120.2 MB

Timings for individual modules:

Sum of individual times         ...      268.783 sec (=   4.480 min)
GTO integral calculation        ...        3.308 sec (=   0.055 min)   1.2 %
Spin-Orbit-Coupling Matrices    ...        4.347 sec (=   0.072 min)   1.6 %
SCF iterations                  ...       21.675 sec (=   0.361 min)   8.1 %
EPR/NMR calculation             ...      239.454 sec (=   3.991 min)  89.1 %
                             ****ORCA TERMINATED NORMALLY****
TOTAL RUN TIME: 0 days 0 hours 4 minutes 31 seconds 369 msec
