
                                 *****************
                                 * O   R   C   A *
                                 *****************

                                            #,                                       
                                            ###                                      
                                            ####                                     
                                            #####                                    
                                            ######                                   
                                           ########,                                 
                                     ,,################,,,,,                         
                               ,,#################################,,                 
                          ,,##########################################,,             
                       ,#########################################, ''#####,          
                    ,#############################################,,   '####,        
                  ,##################################################,,,,####,       
                ,###########''''           ''''###############################       
              ,#####''   ,,,,##########,,,,          '''####'''          '####       
            ,##' ,,,,###########################,,,                        '##       
           ' ,,###''''                  '''############,,,                           
         ,,##''                                '''############,,,,        ,,,,,,###''
      ,#''                                            '''#######################'''  
     '                                                          ''''####''''         
             ,#######,   #######,   ,#######,      ##                                
            ,#'     '#,  ##    ##  ,#'     '#,    #''#        ######   ,####,        
            ##       ##  ##   ,#'  ##            #'  '#       #        #'  '#        
            ##       ##  #######   ##           ,######,      #####,   #    #        
            '#,     ,#'  ##    ##  '#,     ,#' ,#      #,         ##   #,  ,#        
             '#######'   ##     ##  '#######'  #'      '#     #####' # '####'        



                  #######################################################
                  #                        -***-                        #
                  #          Department of theory and spectroscopy      #
                  #    Directorship and core code : Frank Neese         #
                  #        Max Planck Institute fuer Kohlenforschung    #
                  #                Kaiser Wilhelm Platz 1               #
                  #                 D-45470 Muelheim/Ruhr               #
                  #                      Germany                        #
                  #                                                     #
                  #                  All rights reserved                #
                  #                        -***-                        #
                  #######################################################


                         Program Version 5.0.4 -  RELEASE  -


 With contributions from (in alphabetic order):
   Daniel Aravena         : Magnetic Suceptibility
   Michael Atanasov       : Ab Initio Ligand Field Theory (pilot matlab implementation)
   Alexander A. Auer      : GIAO ZORA, VPT2 properties, NMR spectrum
   Ute Becker             : Parallelization
   Giovanni Bistoni       : ED, misc. LED, open-shell LED, HFLD
   Martin Brehm           : Molecular dynamics
   Dmytro Bykov           : SCF Hessian
   Vijay G. Chilkuri      : MRCI spin determinant printing, contributions to CSF-ICE
   Dipayan Datta          : RHF DLPNO-CCSD density
   Achintya Kumar Dutta   : EOM-CC, STEOM-CC
   Dmitry Ganyushin       : Spin-Orbit,Spin-Spin,Magnetic field MRCI
   Miquel Garcia          : C-PCM and meta-GGA Hessian, CC/C-PCM, Gaussian charge scheme
   Yang Guo               : DLPNO-NEVPT2, F12-NEVPT2, CIM, IAO-localization
   Andreas Hansen         : Spin unrestricted coupled pair/coupled cluster methods
   Benjamin Helmich-Paris : MC-RPA, TRAH-SCF, COSX integrals
   Lee Huntington         : MR-EOM, pCC
   Robert Izsak           : Overlap fitted RIJCOSX, COSX-SCS-MP3, EOM
   Marcus Kettner         : VPT2
   Christian Kollmar      : KDIIS, OOCD, Brueckner-CCSD(T), CCSD density, CASPT2, CASPT2-K
   Simone Kossmann        : Meta GGA functionals, TD-DFT gradient, OOMP2, MP2 Hessian
   Martin Krupicka        : Initial AUTO-CI
   Lucas Lang             : DCDCAS
   Marvin Lechner         : AUTO-CI (C++ implementation), FIC-MRCC
   Dagmar Lenk            : GEPOL surface, SMD
   Dimitrios Liakos       : Extrapolation schemes; Compound Job, initial MDCI parallelization
   Dimitrios Manganas     : Further ROCIS development; embedding schemes
   Dimitrios Pantazis     : SARC Basis sets
   Anastasios Papadopoulos: AUTO-CI, single reference methods and gradients
   Taras Petrenko         : DFT Hessian,TD-DFT gradient, ASA, ECA, R-Raman, ABS, FL, XAS/XES, NRVS
   Peter Pinski           : DLPNO-MP2, DLPNO-MP2 Gradient
   Christoph Reimann      : Effective Core Potentials
   Marius Retegan         : Local ZFS, SOC
   Christoph Riplinger    : Optimizer, TS searches, QM/MM, DLPNO-CCSD(T), (RO)-DLPNO pert. Triples
   Tobias Risthaus        : Range-separated hybrids, TD-DFT gradient, RPA, STAB
   Michael Roemelt        : Original ROCIS implementation
   Masaaki Saitow         : Open-shell DLPNO-CCSD energy and density
   Barbara Sandhoefer     : DKH picture change effects
   Avijit Sen             : IP-ROCIS
   Kantharuban Sivalingam : CASSCF convergence, NEVPT2, FIC-MRCI
   Bernardo de Souza      : ESD, SOC TD-DFT
   Georgi Stoychev        : AutoAux, RI-MP2 NMR, DLPNO-MP2 response
   Willem Van den Heuvel  : Paramagnetic NMR
   Boris Wezisla          : Elementary symmetry handling
   Frank Wennmohs         : Technical directorship


 We gratefully acknowledge several colleagues who have allowed us to
 interface, adapt or use parts of their codes:
   Stefan Grimme, W. Hujo, H. Kruse, P. Pracht,  : VdW corrections, initial TS optimization,
                  C. Bannwarth, S. Ehlert          DFT functionals, gCP, sTDA/sTD-DF
   Ed Valeev, F. Pavosevic, A. Kumar             : LibInt (2-el integral package), F12 methods
   Garnet Chan, S. Sharma, J. Yang, R. Olivares  : DMRG
   Ulf Ekstrom                                   : XCFun DFT Library
   Mihaly Kallay                                 : mrcc  (arbitrary order and MRCC methods)
   Jiri Pittner, Ondrej Demel                    : Mk-CCSD
   Frank Weinhold                                : gennbo (NPA and NBO analysis)
   Christopher J. Cramer and Donald G. Truhlar   : smd solvation model
   Lars Goerigk                                  : TD-DFT with DH, B97 family of functionals
   V. Asgeirsson, H. Jonsson                     : NEB implementation
   FAccTs GmbH                                   : IRC, NEB, NEB-TS, DLPNO-Multilevel, CI-OPT
                                                   MM, QMMM, 2- and 3-layer-ONIOM, Crystal-QMMM,
                                                   LR-CPCM, SF, NACMEs, symmetry and pop. for TD-DFT,
                                                   nearIR, NL-DFT gradient (VV10), updates on ESD,
                                                   ML-optimized integration grids
   S Lehtola, MJT Oliveira, MAL Marques          : LibXC Library
   Liviu Ungur et al                             : ANISO software


 Your calculation uses the libint2 library for the computation of 2-el integrals
 For citations please refer to: http://libint.valeyev.net

 Your ORCA version has been built with support for libXC version: 5.1.0
 For citations please refer to: https://tddft.org/programs/libxc/

 This ORCA versions uses:
   CBLAS   interface :  Fast vector & matrix operations
   LAPACKE interface :  Fast linear algebra routines
   SCALAPACK package :  Parallel linear algebra routines
   Shared memory     :  Shared parallel matrices
   BLAS/LAPACK       :  OpenBLAS 0.3.15  USE64BITINT DYNAMIC_ARCH NO_AFFINITY Zen SINGLE_THREADED
        Core in use  :  Zen
   Copyright (c) 2011-2014, The OpenBLAS Project




***************************************
The coordinates will be read from file: opt.xyz
***************************************


XCFun DFT library Copyright 2009-2010 Ulf Ekstrom and contributors.
See http://admol.org/xcfun for more information.
This is free software; see the source code for copying conditions.
There is ABSOLUTELY NO WARRANTY; not even for MERCHANTABILITY or FITNESS FOR A PARTICULAR PURPOSE.
For details see the documentation.
Scientific users of this library should cite U. Ekstrom, L. Visscher, R. Bast, A. J. Thorvaldsen and K. Ruud;
J.Chem.Theor.Comp. 2010, DOI: 10.1021/ct100117s
XCFun Version 0.99 

================================================================================

----- Orbital basis set information -----
Your calculation utilizes the basis: def2-TZVP
   F. Weigend and R. Ahlrichs, Phys. Chem. Chem. Phys. 7, 3297 (2005).

----- AuxJ basis set information -----
Your calculation utilizes the auxiliary basis: def2/J
   F. Weigend, Phys. Chem. Chem. Phys. 8, 1057 (2006).

================================================================================
                                        WARNINGS
                       Please study these warnings very carefully!
================================================================================


WARNING: your system is open-shell and RHF/RKS was chosen
  ===> : WILL SWITCH to UHF/UKS


WARNING: Geometry Optimization
  ===> : Switching off AutoStart
         For restart on a previous wavefunction, please use MOREAD

WARNING: Minnesota functionals are quite sensitive to the integration grid.
         see SE Wheeler, KN Houk, JCTC 2010, 6, 395,
             N Mardirossian, M Head-Gordon, JCTC 2016, 12, 4303.
         DEFGRID3 seems to be a minimum grid for reliable results with these functionals!
  ===> : Please increase the integration grid!


INFO   : the flag for use of the SHARK integral package has been found!

================================================================================
                                       INPUT FILE
================================================================================
NAME = freq.inp
|  1> ! M062X def2-TZVP OPT FREQ
|  2> %pal nprocs 16 end
|  3> *XYZFile -1 2 opt.xyz
|  4> 
|  5>                          ****END OF INPUT****
================================================================================

                       *****************************
                       * Geometry Optimization Run *
                       *****************************

Geometry optimization settings:
Update method            Update   .... BFGS
Choice of coordinates    CoordSys .... Z-matrix Internals
Initial Hessian          InHess   .... Almoef's Model

Convergence Tolerances:
Energy Change            TolE     ....  5.0000e-06 Eh
Max. Gradient            TolMAXG  ....  3.0000e-04 Eh/bohr
RMS Gradient             TolRMSG  ....  1.0000e-04 Eh/bohr
Max. Displacement        TolMAXD  ....  4.0000e-03 bohr
RMS Displacement         TolRMSD  ....  2.0000e-03 bohr
Strict Convergence                ....  False
------------------------------------------------------------------------------
                        ORCA OPTIMIZATION COORDINATE SETUP
------------------------------------------------------------------------------

The optimization will be done in new redundant internal coordinates
Making redundant internal coordinates   ...  (new redundants) done
Evaluating the initial hessian          ...  (Almloef) done
Evaluating the coordinates              ...  done
Calculating the B-matrix                .... done
Calculating the G-matrix                .... done
Diagonalizing the G-matrix              .... done
Small eigenvalue found = 7.036e-03
Small eigenvalue found = 1.225e-02
Small eigenvalue found = 1.946e-02
The first mode is                       ....   45
The number of degrees of freedom        ....   72

    -----------------------------------------------------------------
                    Redundant Internal Coordinates


    -----------------------------------------------------------------
         Definition                    Initial Value    Approx d2E/dq
    -----------------------------------------------------------------
      1. B(C   1,N   0)                  1.4772         0.406207   
      2. B(C   2,C   1)                  1.5587         0.336238   
      3. B(O   3,C   2)                  1.2488         0.940159   
      4. B(C   4,C   1)                  1.5081         0.404879   
      5. B(H   5,C   4)                  1.0870         0.364079   
      6. B(C   6,C   4)                  1.4927         0.428471   
      7. B(H   7,C   6)                  1.0955         0.352853   
      8. B(H   8,C   6)                  1.0985         0.349002   
      9. B(C   9,C   6)                  1.5975         0.291480   
     10. B(O  10,C   9)                  1.2786         0.842678   
     11. B(O  11,C   9)                  1.2428         0.961000   
     12. B(H  12,N   0)                  1.0165         0.422555   
     13. B(C  13,N   0)                  1.3589         0.627278   
     14. B(N  14,C   2)                  1.3418         0.668044   
     15. B(H  15,N  14)                  1.0700         0.347094   
     16. B(O  16,C  13)                  1.2346         0.990277   
     17. B(C  17,C  13)                  1.5335         0.368767   
     18. B(H  18,C  17)                  1.0939         0.354976   
     19. B(H  19,C  17)                  1.0940         0.354842   
     20. B(H  20,C  17)                  1.0936         0.355424   
     21. B(C  21,N  14)                  1.4566         0.438178   
     22. B(H  22,C  21)                  1.0960         0.352309   
     23. B(H  23,C  21)                  1.0920         0.357403   
     24. B(H  24,C  21)                  1.0970         0.350996   
     25. B(H  25,C   1)                  1.0996         0.347621   
     26. A(C   1,N   0,H  12)          111.8404         0.332742   
     27. A(C   1,N   0,C  13)          123.0196         0.398248   
     28. A(H  12,N   0,C  13)          119.4337         0.357933   
     29. A(C   4,C   1,H  25)          108.0305         0.326739   
     30. A(N   0,C   1,H  25)          107.3919         0.324957   
     31. A(N   0,C   1,C   4)          113.6219         0.371397   
     32. A(N   0,C   1,C   2)          104.8408         0.359770   
     33. A(C   2,C   1,C   4)          116.1809         0.361814   
     34. A(C   2,C   1,H  25)          106.2343         0.316950   
     35. A(O   3,C   2,N  14)          124.3973         0.468303   
     36. A(C   1,C   2,N  14)          115.8358         0.392042   
     37. A(C   1,C   2,O   3)          119.7050         0.416408   
     38. A(H   5,C   4,C   6)          117.9221         0.332340   
     39. A(C   1,C   4,H   5)          115.9805         0.329241   
     40. A(C   1,C   4,C   6)          126.0959         0.377200   
     41. A(H   8,C   6,C   9)          106.7307         0.309896   
     42. A(H   7,C   6,C   9)          105.8867         0.310445   
     43. A(C   4,C   6,C   9)          113.4369         0.356542   
     44. A(H   7,C   6,H   8)          107.8526         0.288494   
     45. A(C   4,C   6,H   8)          111.3408         0.330022   
     46. A(C   4,C   6,H   7)          111.2465         0.330621   
     47. A(C   6,C   9,O  11)          116.6690         0.407569   
     48. A(C   6,C   9,O  10)          115.2233         0.398235   
     49. A(O  10,C   9,O  11)          128.1058         0.490762   
     50. A(O  16,C  13,C  17)          120.6465         0.427277   
     51. A(N   0,C  13,C  17)          115.0807         0.394063   
     52. A(N   0,C  13,O  16)          124.2620         0.467357   
     53. A(C   2,N  14,H  15)          120.6121         0.349913   
     54. A(H  15,N  14,C  21)          115.9162         0.326160   
     55. A(C   2,N  14,C  21)          119.5864         0.408112   
     56. A(H  19,C  17,H  20)          109.4676         0.289574   
     57. A(H  18,C  17,H  20)          109.2071         0.289591   
     58. A(C  13,C  17,H  20)          113.4280         0.322937   
     59. A(H  18,C  17,H  19)          107.7633         0.289517   
     60. A(C  13,C  17,H  19)          108.4673         0.322850   
     61. A(C  13,C  17,H  18)          108.3506         0.322870   
     62. A(H  23,C  21,H  24)          109.1764         0.289332   
     63. A(H  22,C  21,H  24)          107.5352         0.288682   
     64. A(N  14,C  21,H  24)          111.6829         0.329564   
     65. A(H  22,C  21,H  23)          109.3310         0.289501   
     66. A(N  14,C  21,H  23)          107.8411         0.330551   
     67. A(N  14,C  21,H  22)          111.2444         0.329767   
     68. D(H  25,C   1,N   0,C  13)    -40.8210         0.014080   
     69. D(C   4,C   1,N   0,H  12)   -128.3056         0.014080   
     70. D(C   2,C   1,N   0,H  12)     -0.4219         0.014080   
     71. D(H  25,C   1,N   0,H  12)    112.2880         0.014080   
     72. D(C   4,C   1,N   0,C  13)     78.5855         0.014080   
     73. D(C   2,C   1,N   0,C  13)   -153.5309         0.014080   
     74. D(O   3,C   2,C   1,N   0)     16.2623         0.008610   
     75. D(N  14,C   2,C   1,N   0)   -166.4739         0.008610   
     76. D(O   3,C   2,C   1,H  25)    -97.2670         0.008610   
     77. D(N  14,C   2,C   1,C   4)    -40.1613         0.008610   
     78. D(N  14,C   2,C   1,H  25)     79.9968         0.008610   
     79. D(O   3,C   2,C   1,C   4)    142.5749         0.008610   
     80. D(H   5,C   4,C   1,C   2)    146.8338         0.012153   
     81. D(H   5,C   4,C   1,H  25)     27.6475         0.012153   
     82. D(H   5,C   4,C   1,N   0)    -91.3944         0.012153   
     83. D(C   6,C   4,C   1,H  25)   -152.8052         0.012153   
     84. D(C   6,C   4,C   1,C   2)    -33.6189         0.012153   
     85. D(C   6,C   4,C   1,N   0)     88.1529         0.012153   
     86. D(C   9,C   6,C   4,H   5)    -70.4429         0.013561   
     87. D(C   9,C   6,C   4,C   1)    110.0176         0.013561   
     88. D(H   8,C   6,C   4,H   5)    169.1441         0.013561   
     89. D(H   8,C   6,C   4,C   1)    -10.3953         0.013561   
     90. D(H   7,C   6,C   4,H   5)     48.8095         0.013561   
     91. D(H   7,C   6,C   4,C   1)   -130.7299         0.013561   
     92. D(O  11,C   9,C   6,H   8)   -102.1088         0.006726   
     93. D(O  11,C   9,C   6,H   7)     12.6239         0.006726   
     94. D(O  11,C   9,C   6,C   4)    134.9020         0.006726   
     95. D(O  10,C   9,C   6,H   8)     77.4384         0.006726   
     96. D(O  10,C   9,C   6,H   7)   -167.8289         0.006726   
     97. D(O  10,C   9,C   6,C   4)    -45.5508         0.006726   
     98. D(O  16,C  13,N   0,C   1)     -9.5324         0.031921   
     99. D(C  17,C  13,N   0,H  12)     20.4789         0.031921   
    100. D(C  17,C  13,N   0,C   1)    171.6594         0.031921   
    101. D(O  16,C  13,N   0,H  12)   -160.7129         0.031921   
    102. D(C  21,N  14,C   2,O   3)     -3.7350         0.036600   
    103. D(C  21,N  14,C   2,C   1)    179.1454         0.036600   
    104. D(H  15,N  14,C   2,O   3)   -160.6482         0.036600   
    105. D(H  15,N  14,C   2,C   1)     22.2322         0.036600   
    106. D(H  20,C  17,C  13,O  16)   -179.7155         0.010188   
    107. D(H  20,C  17,C  13,N   0)     -0.8604         0.010188   
    108. D(H  19,C  17,C  13,O  16)     58.4378         0.010188   
    109. D(H  19,C  17,C  13,N   0)   -122.7070         0.010188   
    110. D(H  18,C  17,C  13,O  16)    -58.2837         0.010188   
    111. D(H  18,C  17,C  13,N   0)    120.5714         0.010188   
    112. D(H  24,C  21,N  14,H  15)    104.4714         0.016371   
    113. D(H  24,C  21,N  14,C   2)    -53.4913         0.016371   
    114. D(H  23,C  21,N  14,H  15)    -15.4836         0.016371   
    115. D(H  23,C  21,N  14,C   2)   -173.4463         0.016371   
    116. D(H  22,C  21,N  14,H  15)   -135.3665         0.016371   
    117. D(H  22,C  21,N  14,C   2)     66.6708         0.016371   
    -----------------------------------------------------------------

Number of atoms                         .... 26
Number of degrees of freedom            .... 117

         *************************************************************
         *                GEOMETRY OPTIMIZATION CYCLE   1            *
         *************************************************************
---------------------------------
CARTESIAN COORDINATES (ANGSTROEM)
---------------------------------
  N     -3.944932   -0.034768    0.010049
  C     -2.473886    0.014889   -0.115211
  C     -1.944106   -0.121514    1.344296
  O     -2.705150   -0.538090    2.242460
  C     -1.973711    1.204095   -0.896213
  H     -1.846116    1.052385   -1.964993
  C     -1.653595    2.551071   -0.338296
  H     -2.128904    3.346212   -0.923126
  H     -1.997702    2.645529    0.700655
  C     -0.090998    2.883409   -0.337231
  O      0.665495    1.944273    0.087588
  O      0.239292    4.013126   -0.736229
  H     -4.238536   -0.148210    0.976551
  C     -4.759227   -0.463289   -0.989931
  N     -0.648509    0.176272    1.526309
  H     -0.130814    0.803852    0.831280
  O     -4.382849   -0.690434   -2.143646
  C     -6.233339   -0.630027   -0.601481
  H     -6.834001    0.023522   -1.240776
  H     -6.531023   -1.662633   -0.806311
  H     -6.436220   -0.393336    0.446701
  C     -0.072548    0.094647    2.861686
  H     -0.046206   -0.940675    3.220199
  H      0.945806    0.485780    2.811315
  H     -0.648378    0.681367    3.587994
  H     -2.158040   -0.896406   -0.643323

----------------------------
CARTESIAN COORDINATES (A.U.)
----------------------------
  NO LB      ZA    FRAG     MASS         X           Y           Z
   0 N     7.0000    0    14.007   -7.454842   -0.065702    0.018990
   1 C     6.0000    0    12.011   -4.674968    0.028137   -0.217716
   2 C     6.0000    0    12.011   -3.673829   -0.229628    2.540351
   3 O     8.0000    0    15.999   -5.111993   -1.016843    4.237636
   4 C     6.0000    0    12.011   -3.729773    2.275410   -1.693596
   5 H     1.0000    0     1.008   -3.488653    1.988719   -3.713298
   6 C     6.0000    0    12.011   -3.124841    4.820826   -0.639286
   7 H     1.0000    0     1.008   -4.023046    6.323424   -1.744456
   8 H     1.0000    0     1.008   -3.775109    4.999325    1.324045
   9 C     6.0000    0    12.011   -0.171961    5.448854   -0.637274
  10 O     8.0000    0    15.999    1.257604    3.674143    0.165518
  11 O     8.0000    0    15.999    0.452197    7.583710   -1.391272
  12 H     1.0000    0     1.008   -8.009672   -0.280076    1.845414
  13 C     6.0000    0    12.011   -8.993636   -0.875489   -1.870698
  14 N     7.0000    0    14.007   -1.225505    0.333106    2.884306
  15 H     1.0000    0     1.008   -0.247203    1.519060    1.570892
  16 O     8.0000    0    15.999   -8.282383   -1.304731   -4.050903
  17 C     6.0000    0    12.011  -11.779304   -1.190579   -1.136635
  18 H     1.0000    0     1.008  -12.914390    0.044450   -2.344728
  19 H     1.0000    0     1.008  -12.341846   -3.141920   -1.523707
  20 H     1.0000    0     1.008  -12.162693   -0.743297    0.844143
  21 C     6.0000    0    12.011   -0.137095    0.178856    5.407804
  22 H     1.0000    0     1.008   -0.087316   -1.777618    6.085294
  23 H     1.0000    0     1.008    1.787313    0.917991    5.312616
  24 H     1.0000    0     1.008   -1.225257    1.287597    6.780327
  25 H     1.0000    0     1.008   -4.078105   -1.693962   -1.215703

--------------------------------
INTERNAL COORDINATES (ANGSTROEM)
--------------------------------
 N      0   0   0     0.000000000000     0.00000000     0.00000000
 C      1   0   0     1.477203994719     0.00000000     0.00000000
 C      2   1   0     1.558663336309   104.84079706     0.00000000
 O      3   2   1     1.248768534051   119.70501179    16.26227475
 C      2   1   3     1.508094869771   113.62186568   232.11639422
 H      5   2   1     1.087008388771   115.98046520   268.60559780
 C      5   2   1     1.492678687900   126.09593883    88.15287182
 H      7   5   2     1.095533792124   111.24648542   229.27006895
 H      7   5   2     1.098521597097   111.34082894   349.60466977
 C      7   5   2     1.597547672541   113.43690262   110.01764997
 O     10   7   5     1.278565627785   115.22331591   314.44920469
 O     10   7   5     1.242800188794   116.66901257   134.90199717
 H      1   2   3     1.016463521430   111.84044745   359.57805034
 C      1   2   3     1.358921149850   123.01962633   206.46905916
 N      3   2   1     1.341781364804   115.83578685   193.52606459
 H     15   3   2     1.070013780485   120.61209164    22.23224432
 O     14   1   2     1.234631108495   124.26198210   350.46759841
 C     14   1   2     1.533525829554   115.08071177   171.65937461
 H     18  14   1     1.093900964275   108.35059861   120.57142758
 H     18  14   1     1.094004011406   108.46729128   237.29297774
 H     18  14   1     1.093558141440   113.42801880   359.13962776
 C     15   3   2     1.456580732239   119.58642086   179.14540464
 H     22  15   3     1.095954275731   111.24435432    66.67080661
 H     22  15   3     1.092046586094   107.84108700   186.55374122
 H     22  15   3     1.096970766311   111.68288978   306.50869384
 H      2   1   3     1.099600192396   107.39190427   112.70992746

---------------------------
INTERNAL COORDINATES (A.U.)
---------------------------
 N      0   0   0     0.000000000000     0.00000000     0.00000000
 C      1   0   0     2.791510993953     0.00000000     0.00000000
 C      2   1   0     2.945446840607   104.84079706     0.00000000
 O      3   2   1     2.359830534016   119.70501179    16.26227475
 C      2   1   3     2.849886287838   113.62186568   232.11639422
 H      5   2   1     2.054148160053   115.98046520   268.60559780
 C      5   2   1     2.820753926072   126.09593883    88.15287182
 H      7   5   2     2.070258837570   111.24648542   229.27006895
 H      7   5   2     2.075904970711   111.34082894   349.60466977
 C      7   5   2     3.018927586986   113.43690262   110.01764997
 O     10   7   5     2.416138880759   115.22331591   314.44920469
 O     10   7   5     2.348551996006   116.66901257   134.90199717
 H      1   2   3     1.920837680625   111.84044745   359.57805034
 C      1   2   3     2.567988810809   123.01962633   206.46905916
 N      3   2   1     2.535599311079   115.83578685   193.52606459
 H     15   3   2     2.022033004639   120.61209164    22.23224432
 O     14   1   2     2.333114671476   124.26198210   350.46759841
 C     14   1   2     2.897943837152   115.08071177   171.65937461
 H     18  14   1     2.067173240112   108.35059861   120.57142758
 H     18  14   1     2.067367970968   108.46729128   237.29297774
 H     18  14   1     2.066525398842   113.42801880   359.13962776
 C     15   3   2     2.752538675878   119.58642086   179.14540464
 H     22  15   3     2.071053436431   111.24435432    66.67080661
 H     22  15   3     2.063668973202   107.84108700   186.55374122
 H     22  15   3     2.072974325245   111.68288978   306.50869384
 H      2   1   3     2.077943220436   107.39190427   112.70992746

---------------------
BASIS SET INFORMATION
---------------------
There are 4 groups of distinct atoms

 Group   1 Type N   : 11s6p2d1f contracted to 5s3p2d1f pattern {62111/411/11/1}
 Group   2 Type C   : 11s6p2d1f contracted to 5s3p2d1f pattern {62111/411/11/1}
 Group   3 Type O   : 11s6p2d1f contracted to 5s3p2d1f pattern {62111/411/11/1}
 Group   4 Type H   : 5s1p contracted to 3s1p pattern {311/1}

Atom   0N    basis set group =>   1
Atom   1C    basis set group =>   2
Atom   2C    basis set group =>   2
Atom   3O    basis set group =>   3
Atom   4C    basis set group =>   2
Atom   5H    basis set group =>   4
Atom   6C    basis set group =>   2
Atom   7H    basis set group =>   4
Atom   8H    basis set group =>   4
Atom   9C    basis set group =>   2
Atom  10O    basis set group =>   3
Atom  11O    basis set group =>   3
Atom  12H    basis set group =>   4
Atom  13C    basis set group =>   2
Atom  14N    basis set group =>   1
Atom  15H    basis set group =>   4
Atom  16O    basis set group =>   3
Atom  17C    basis set group =>   2
Atom  18H    basis set group =>   4
Atom  19H    basis set group =>   4
Atom  20H    basis set group =>   4
Atom  21C    basis set group =>   2
Atom  22H    basis set group =>   4
Atom  23H    basis set group =>   4
Atom  24H    basis set group =>   4
Atom  25H    basis set group =>   4
---------------------------------
AUXILIARY/J BASIS SET INFORMATION
---------------------------------
There are 4 groups of distinct atoms

 Group   1 Type N   : 12s5p4d2f1g contracted to 6s4p3d1f1g pattern {711111/2111/211/2/1}
 Group   2 Type C   : 12s5p4d2f1g contracted to 6s4p3d1f1g pattern {711111/2111/211/2/1}
 Group   3 Type O   : 12s5p4d2f1g contracted to 6s4p3d1f1g pattern {711111/2111/211/2/1}
 Group   4 Type H   : 5s2p1d contracted to 3s1p1d pattern {311/2/1}

Atom   0N    basis set group =>   1
Atom   1C    basis set group =>   2
Atom   2C    basis set group =>   2
Atom   3O    basis set group =>   3
Atom   4C    basis set group =>   2
Atom   5H    basis set group =>   4
Atom   6C    basis set group =>   2
Atom   7H    basis set group =>   4
Atom   8H    basis set group =>   4
Atom   9C    basis set group =>   2
Atom  10O    basis set group =>   3
Atom  11O    basis set group =>   3
Atom  12H    basis set group =>   4
Atom  13C    basis set group =>   2
Atom  14N    basis set group =>   1
Atom  15H    basis set group =>   4
Atom  16O    basis set group =>   3
Atom  17C    basis set group =>   2
Atom  18H    basis set group =>   4
Atom  19H    basis set group =>   4
Atom  20H    basis set group =>   4
Atom  21C    basis set group =>   2
Atom  22H    basis set group =>   4
Atom  23H    basis set group =>   4
Atom  24H    basis set group =>   4
Atom  25H    basis set group =>   4


           ************************************************************
           *        Program running with 16 parallel MPI-processes    *
           *              working on a common directory               *
           ************************************************************
------------------------------------------------------------------------------
                           ORCA GTO INTEGRAL CALCULATION
                           -- RI-GTO INTEGRALS CHOSEN --
------------------------------------------------------------------------------
------------------------------------------------------------------------------
                   ___                                                        
                  /   \      - P O W E R E D   B Y -                         
                 /     \                                                     
                 |  |  |   _    _      __       _____    __    __             
                 |  |  |  | |  | |    /  \     |  _  \  |  |  /  |          
                  \  \/   | |  | |   /    \    | | | |  |  | /  /          
                 / \  \   | |__| |  /  /\  \   | |_| |  |  |/  /          
                |  |  |   |  __  | /  /__\  \  |    /   |      \           
                |  |  |   | |  | | |   __   |  |    \   |  |\   \          
                \     /   | |  | | |  |  |  |  | |\  \  |  | \   \       
                 \___/    |_|  |_| |__|  |__|  |_| \__\ |__|  \__/        
                                                                              
                      - O R C A' S   B I G   F R I E N D -                    
                                      &                                       
                       - I N T E G R A L  F E E D E R -                       
                                                                              
 v1 FN, 2020, v2 2021                                                         
------------------------------------------------------------------------------


Reading SHARK input file freq.SHARKINP.tmp ... ok
----------------------
SHARK INTEGRAL PACKAGE
----------------------

Number of atoms                             ...     26
Number of basis functions                   ...    506
Number of shells                            ...    202
Maximum angular momentum                    ...      3
Integral batch strategy                     ... SHARK/LIBINT Hybrid
RI-J (if used) integral strategy            ... SPLIT-RIJ (Revised 2003 algorithm where possible)
Printlevel                                  ...      1
Contraction scheme used                     ... SEGMENTED contraction
Coulomb Range Separation                    ... NOT USED
Exchange Range Separation                   ... NOT USED
Finite Nucleus Model                        ... NOT USED
Auxiliary Coulomb fitting basis             ... AVAILABLE
   # of basis functions in Aux-J            ...    818
   # of shells in Aux-J                     ...    270
   Maximum angular momentum in Aux-J        ...      4
Auxiliary J/K fitting basis                 ... NOT available
Auxiliary Correlation fitting basis         ... NOT available
Auxiliary 'external' fitting basis          ... NOT available
Integral threshold                          ...     2.500000e-11
Primitive cut-off                           ...     2.500000e-12
Primitive pair pre-selection threshold      ...     2.500000e-12

Calculating pre-screening integrals         ... done (  0.0 sec) Dimension = 202
Organizing shell pair data                  ... done (  0.1 sec)
Shell pair information
Total number of shell pairs                 ...     20503
Shell pairs after pre-screening             ...     16085
Total number of primitive shell pairs       ...     62472
Primitive shell pairs kept                  ...     34046
          la=0 lb=0:   4311 shell pairs
          la=1 lb=0:   4628 shell pairs
          la=1 lb=1:   1271 shell pairs
          la=2 lb=0:   2261 shell pairs
          la=2 lb=1:   1234 shell pairs
          la=2 lb=2:    316 shell pairs
          la=3 lb=0:   1089 shell pairs
          la=3 lb=1:    608 shell pairs
          la=3 lb=2:    292 shell pairs
          la=3 lb=3:     75 shell pairs

Calculating one electron integrals          ... done (  0.0 sec)
Calculating RI/J V-Matrix + Cholesky decomp.... done (  0.0 sec)
Calculating Nuclear repulsion               ... done (  0.0 sec) ENN=    907.362298381779 Eh

SHARK setup successfully completed in   0.3 seconds

Maximum memory used throughout the entire GTOINT-calculation: 28.5 MB


           ************************************************************
           *        Program running with 16 parallel MPI-processes    *
           *              working on a common directory               *
           ************************************************************
-------------------------------------------------------------------------------
                                 ORCA SCF
-------------------------------------------------------------------------------

------------
SCF SETTINGS
------------
Hamiltonian:
 Density Functional     Method          .... DFT(GTOs)
 Exchange Functional    Exchange        .... M062X
 Correlation Functional Correlation     .... M062X
 Gradients option       PostSCFGGA      .... off
 Hybrid DFT is turned on
   Fraction HF Exchange ScalHFX         ....  0.540000
   Scaling of DF-GGA-X  ScalDFX         ....  0.460000
   Scaling of DF-GGA-C  ScalDFC         ....  1.000000
   Scaling of DF-LDA-C  ScalLDAC        ....  1.000000
   Perturbative correction              ....  0.000000
   Density functional embedding theory  .... OFF
 RI-approximation to the Coulomb term is turned on
   Number of AuxJ basis functions       .... 818
   RIJ-COSX (HFX calculated with COS-X)).... on


General Settings:
 Integral files         IntName         .... freq
 Hartree-Fock type      HFTyp           .... UHF
 Total Charge           Charge          ....   -1
 Multiplicity           Mult            ....    2
 Number of Electrons    NEL             ....  107
 Basis Dimension        Dim             ....  506
 Nuclear Repulsion      ENuc            ....    907.3622983818 Eh

Convergence Acceleration:
 DIIS                   CNVDIIS         .... on
   Start iteration      DIISMaxIt       ....    12
   Startup error        DIISStart       ....  0.200000
   # of expansion vecs  DIISMaxEq       ....     5
   Bias factor          DIISBfac        ....   1.050
   Max. coefficient     DIISMaxC        ....  10.000
 Trust-Rad. Augm. Hess. CNVTRAH         .... auto
   Auto Start mean grad. ratio tolernc. ....  1.125000
   Auto Start start iteration           ....    20
   Auto Start num. interpolation iter.  ....    10
   Max. Number of Micro iterations      ....    16
   Max. Number of Macro iterations      .... Maxiter - #DIIS iter
   Number of Davidson start vectors     ....     2
   Converg. threshold I  (grad. norm)   ....   1.000e-05
   Converg. threshold II (energy diff.) ....   1.000e-08
   Grad. Scal. Fac. for Micro threshold ....   0.100
   Minimum threshold for Micro iter.    ....   0.010
   NR start threshold (gradient norm)   ....   0.001
   Initial trust radius                 ....   0.400
   Minimum AH scaling param. (alpha)    ....   1.000
   Maximum AH scaling param. (alpha)    .... 1000.000
   Orbital update algorithm             .... Taylor
   White noise on init. David. guess    .... on
   Maximum white noise                  ....   0.010
   Quad. conv. algorithm                .... NR
 SOSCF                  CNVSOSCF        .... off
 Level Shifting         CNVShift        .... on
   Level shift para.    LevelShift      ....    0.2500
   Turn off err/grad.   ShiftErr        ....    0.0010
 Zerner damping         CNVZerner       .... off
 Static damping         CNVDamp         .... on
   Fraction old density DampFac         ....    0.7000
   Max. Damping (<1)    DampMax         ....    0.9800
   Min. Damping (>=0)   DampMin         ....    0.0000
   Turn off err/grad.   DampErr         ....    0.1000
 Fernandez-Rico         CNVRico         .... off

SCF Procedure:
 Maximum # iterations   MaxIter         ....   125
 SCF integral mode      SCFMode         .... Direct
   Integral package                     .... SHARK and LIBINT hybrid scheme
 Reset frequency        DirectResetFreq ....    20
 Integral Threshold     Thresh          ....  2.500e-11 Eh
 Primitive CutOff       TCut            ....  2.500e-12 Eh

Convergence Tolerance:
 Convergence Check Mode ConvCheckMode   .... Total+1el-Energy
 Convergence forced     ConvForced      .... 0
 Energy Change          TolE            ....  1.000e-08 Eh
 1-El. energy change                    ....  1.000e-05 Eh
 DIIS Error             TolErr          ....  5.000e-07


Diagonalization of the overlap matrix:
Smallest eigenvalue                        ... 6.683e-05
Time for diagonalization                   ...    0.030 sec
Threshold for overlap eigenvalues          ... 1.000e-08
Number of eigenvalues below threshold      ... 0
Time for construction of square roots      ...    0.021 sec
Total time needed                          ...    0.052 sec

Time for model grid setup =    0.102 sec

------------------------------
INITIAL GUESS: MODEL POTENTIAL
------------------------------
Loading Hartree-Fock densities                     ... done
Calculating cut-offs                               ... done
Initializing the effective Hamiltonian             ... done
Setting up the integral package (SHARK)            ... done
Starting the Coulomb interaction                   ... done (   0.1 sec)
Reading the grid                                   ... done
Mapping shells                                     ... done
Starting the XC term evaluation                    ... done (   0.1 sec)
  promolecular density results
     # of electrons  =    105.991213487
     EX              =    -90.052447259
     EC              =     -3.545845357
     EX+EC           =    -93.598292617
Transforming the Hamiltonian                       ... done (   0.0 sec)
Diagonalizing the Hamiltonian                      ... done (   0.0 sec)
Back transforming the eigenvectors                 ... done (   0.0 sec)
Now organizing SCF variables                       ... done
                      ------------------
                      INITIAL GUESS DONE (   0.4 sec)
                      ------------------
-------------------
DFT GRID GENERATION
-------------------

General Integration Accuracy     IntAcc      ... 4.388
Radial Grid Type                 RadialGrid  ... OptM3 with GC (2021)
Angular Grid (max. ang.)         AngularGrid ... 4 (Lebedev-302)
Angular grid pruning method      GridPruning ... 4 (adaptive)
Weight generation scheme         WeightScheme... Becke
Basis function cutoff            BFCut       ... 1.0000e-11
Integration weight cutoff        WCut        ... 1.0000e-14
Angular grids for H and He will be reduced by one unit
Partially contracted basis set               ... off
Rotationally invariant grid construction     ... off

Total number of grid points                  ...   122678
Total number of batches                      ...     1928
Average number of points per batch           ...       63
Average number of grid points per atom       ...     4718
Time for grid setup =    0.541 sec

--------------------
COSX GRID GENERATION
--------------------

GRIDX 1
-------
General Integration Accuracy     IntAcc      ... 3.816
Radial Grid Type                 RadialGrid  ... OptM3 with GC (2021)
Angular Grid (max. ang.)         AngularGrid ... 1 (Lebedev-50)
Angular grid pruning method      GridPruning ... 4 (adaptive)
Weight generation scheme         WeightScheme... Becke
Basis function cutoff            BFCut       ... 1.0000e-11
Integration weight cutoff        WCut        ... 1.0000e-14
Angular grids for H and He will be reduced by one unit
Partially contracted basis set               ... on
Rotationally invariant grid construction     ... off

Total number of grid points                  ...    15615
Total number of batches                      ...      259
Average number of points per batch           ...       60
Average number of grid points per atom       ...      601
UseSFitting                                  ... on

GRIDX 2
-------
General Integration Accuracy     IntAcc      ... 4.020
Radial Grid Type                 RadialGrid  ... OptM3 with GC (2021)
Angular Grid (max. ang.)         AngularGrid ... 2 (Lebedev-110)
Angular grid pruning method      GridPruning ... 4 (adaptive)
Weight generation scheme         WeightScheme... Becke
Basis function cutoff            BFCut       ... 1.0000e-11
Integration weight cutoff        WCut        ... 1.0000e-14
Angular grids for H and He will be reduced by one unit
Partially contracted basis set               ... on
Rotationally invariant grid construction     ... off

Total number of grid points                  ...    33998
Total number of batches                      ...      543
Average number of points per batch           ...       62
Average number of grid points per atom       ...     1308
UseSFitting                                  ... on

GRIDX 3
-------
General Integration Accuracy     IntAcc      ... 4.338
Radial Grid Type                 RadialGrid  ... OptM3 with GC (2021)
Angular Grid (max. ang.)         AngularGrid ... 3 (Lebedev-194)
Angular grid pruning method      GridPruning ... 4 (adaptive)
Weight generation scheme         WeightScheme... Becke
Basis function cutoff            BFCut       ... 1.0000e-11
Integration weight cutoff        WCut        ... 1.0000e-14
Angular grids for H and He will be reduced by one unit
Partially contracted basis set               ... on
Rotationally invariant grid construction     ... off

Total number of grid points                  ...    74502
Total number of batches                      ...     1178
Average number of points per batch           ...       63
Average number of grid points per atom       ...     2865
UseSFitting                                  ... on

Time for X-Grid setup             =    0.677 sec

--------------
SCF ITERATIONS
--------------
ITER       Energy         Delta-E        Max-DP      RMS-DP      [F,P]     Damp
               ***  Starting incremental Fock matrix formation  ***
  0   -721.9765033119   0.000000000000 0.09866685  0.00058843  0.1568058 0.7000
  1   -722.2246859313  -0.248182619411 0.10731506  0.00052256  0.0770806 0.7000
                               ***Turning on DIIS***
  2   -722.3325684142  -0.107882482945 0.20385174  0.00096589  0.0294183 0.0000
  3   -722.5069468714  -0.174378457130 0.08894492  0.00038436  0.0387842 0.0000
  4   -722.5384736048  -0.031526733481 0.02825205  0.00012480  0.0054432 0.0000
  5   -722.5398613074  -0.001387702592 0.00926434  0.00004860  0.0026504 0.0000
  6   -722.5401151421  -0.000253834625 0.00255649  0.00002270  0.0017808 0.0000
  7   -722.5401970806  -0.000081938522 0.00210981  0.00001553  0.0011892 0.0000
  8   -722.5402349404  -0.000037859849 0.00192872  0.00001479  0.0007161 0.0000
               *** Restarting incremental Fock matrix formation ***
                                   *** Resetting DIIS ***
  9   -722.5402940829  -0.000059142512 0.00159109  0.00000829  0.0002302 0.0000
 10   -722.5402951496  -0.000001066650 0.00014943  0.00000178  0.0003088 0.0000
 11   -722.5402961988  -0.000001049182 0.00027803  0.00000171  0.0000896 0.0000
 12   -722.5402964315  -0.000000232732 0.00024273  0.00000111  0.0000600 0.0000
 13   -722.5402965162  -0.000000084744 0.00004373  0.00000033  0.0000301 0.0000
 14   -722.5402965142   0.000000002003 0.00001916  0.00000009  0.0000142 0.0000
 15   -722.5402965052   0.000000009022 0.00001280  0.00000005  0.0000028 0.0000
 16   -722.5402964994   0.000000005808 0.00000418  0.00000002  0.0000017 0.0000
 17   -722.5402964845   0.000000014912 0.00000347  0.00000002  0.0000011 0.0000
                            ***DIIS convergence achieved***

               *****************************************************
               *                     SUCCESS                       *
               *           SCF CONVERGED AFTER  18 CYCLES          *
               *****************************************************

Old exchange energy                            =    -49.708290517 Eh
New exchange energy                            =    -49.708262962 Eh
Exchange energy change after final integration =      0.000027555 Eh
Total energy after final integration           =   -722.540268946 Eh
Final COS-X integration done in                =     3.942 sec

----------------
TOTAL SCF ENERGY
----------------

Total Energy       :         -722.54026895 Eh          -19661.32028 eV

Components:
Nuclear Repulsion  :          907.36229838 Eh           24690.58338 eV
Electronic Energy  :        -1629.90256733 Eh          -44351.90366 eV
One Electron Energy:        -2802.00638551 Eh          -76246.47005 eV
Two Electron Energy:         1172.10381818 Eh           31894.56638 eV
Max COSX asymmetry :            0.00000322 Eh               0.00009 eV

Virial components:
Potential Energy   :        -1441.32760269 Eh          -39220.51800 eV
Kinetic Energy     :          718.78733374 Eh           19559.19772 eV
Virial Ratio       :            2.00522120


DFT components:
N(Alpha)           :       54.000047518876 electrons
N(Beta)            :       53.000037646043 electrons
N(Total)           :      107.000085164919 electrons
E(XC)              :      -46.346810446073 Eh       
DFET-embed. en.    :        0.000000000000 Eh       

---------------
SCF CONVERGENCE
---------------

  Last Energy change         ...   -1.6246e-08  Tolerance :   1.0000e-08
  Last MAX-Density change    ...    0.0000e+00  Tolerance :   1.0000e-07
  Last RMS-Density change    ...    0.0000e+00  Tolerance :   5.0000e-09
  Last DIIS Error            ...    6.7760e-07  Tolerance :   5.0000e-07

             **** THE GBW FILE WAS UPDATED (freq.gbw) ****
             **** DENSITY freq.scfp WAS UPDATED ****
             **** ENERGY FILE WAS UPDATED (freq.en.tmp) ****
----------------------
UHF SPIN CONTAMINATION
----------------------

Warning: in a DFT calculation there is little theoretical justification to 
         calculate <S**2> as in Hartree-Fock theory. We will do it anyways
         but you should keep in mind that the values have only limited relevance

Expectation value of <S**2>     :     0.755898
Ideal value S*(S+1) for S=0.5   :     0.750000
Deviation                       :     0.005898

             **** THE GBW FILE WAS UPDATED (freq.gbw) ****
             **** DENSITY freq.scfp WAS UPDATED ****
----------------
ORBITAL ENERGIES
----------------
                 SPIN UP ORBITALS
  NO   OCC          E(Eh)            E(eV) 
   0   1.0000     -19.486374      -530.2512 
   1   1.0000     -19.481102      -530.1077 
   2   1.0000     -19.422854      -528.5227 
   3   1.0000     -19.415057      -528.3106 
   4   1.0000     -14.660246      -398.9256 
   5   1.0000     -14.634545      -398.2262 
   6   1.0000     -10.541977      -286.8618 
   7   1.0000     -10.526515      -286.4410 
   8   1.0000     -10.483200      -285.2624 
   9   1.0000     -10.476843      -285.0894 
  10   1.0000     -10.452659      -284.4313 
  11   1.0000     -10.452204      -284.4189 
  12   1.0000     -10.428008      -283.7605 
  13   1.0000     -10.402546      -283.0677 
  14   1.0000      -1.047583       -28.5062 
  15   1.0000      -1.035811       -28.1859 
  16   1.0000      -0.996908       -27.1272 
  17   1.0000      -0.919900       -25.0318 
  18   1.0000      -0.911689       -24.8083 
  19   1.0000      -0.894497       -24.3405 
  20   1.0000      -0.773977       -21.0610 
  21   1.0000      -0.731707       -19.9108 
  22   1.0000      -0.694688       -18.9034 
  23   1.0000      -0.657625       -17.8949 
  24   1.0000      -0.583570       -15.8798 
  25   1.0000      -0.545628       -14.8473 
  26   1.0000      -0.518364       -14.1054 
  27   1.0000      -0.495978       -13.4962 
  28   1.0000      -0.458503       -12.4765 
  29   1.0000      -0.448112       -12.1938 
  30   1.0000      -0.434801       -11.8315 
  31   1.0000      -0.423004       -11.5105 
  32   1.0000      -0.417696       -11.3661 
  33   1.0000      -0.407965       -11.1013 
  34   1.0000      -0.397562       -10.8182 
  35   1.0000      -0.380453       -10.3527 
  36   1.0000      -0.371313       -10.1039 
  37   1.0000      -0.368349       -10.0233 
  38   1.0000      -0.359441        -9.7809 
  39   1.0000      -0.345960        -9.4141 
  40   1.0000      -0.337094        -9.1728 
  41   1.0000      -0.332798        -9.0559 
  42   1.0000      -0.327607        -8.9146 
  43   1.0000      -0.313701        -8.5362 
  44   1.0000      -0.299907        -8.1609 
  45   1.0000      -0.283106        -7.7037 
  46   1.0000      -0.232982        -6.3398 
  47   1.0000      -0.224866        -6.1189 
  48   1.0000      -0.218396        -5.9429 
  49   1.0000      -0.199468        -5.4278 
  50   1.0000      -0.180452        -4.9104 
  51   1.0000      -0.172538        -4.6950 
  52   1.0000      -0.166908        -4.5418 
  53   1.0000      -0.116280        -3.1641 
  54   0.0000       0.154804         4.2124 
  55   0.0000       0.162392         4.4189 
  56   0.0000       0.172209         4.6860 
  57   0.0000       0.186034         5.0623 
  58   0.0000       0.207840         5.6556 
  59   0.0000       0.212290         5.7767 
  60   0.0000       0.224341         6.1046 
  61   0.0000       0.235169         6.3993 
  62   0.0000       0.239019         6.5040 
  63   0.0000       0.243859         6.6357 
  64   0.0000       0.246649         6.7117 
  65   0.0000       0.253569         6.9000 
  66   0.0000       0.265438         7.2229 
  67   0.0000       0.267662         7.2835 
  68   0.0000       0.283108         7.7038 
  69   0.0000       0.286809         7.8045 
  70   0.0000       0.299564         8.1516 
  71   0.0000       0.307664         8.3720 
  72   0.0000       0.320110         8.7106 
  73   0.0000       0.325055         8.8452 
  74   0.0000       0.335747         9.1361 
  75   0.0000       0.342744         9.3265 
  76   0.0000       0.350917         9.5489 
  77   0.0000       0.355158         9.6644 
  78   0.0000       0.357842         9.7374 
  79   0.0000       0.370715        10.0877 
  80   0.0000       0.385080        10.4785 
  81   0.0000       0.390437        10.6243 
  82   0.0000       0.397538        10.8176 
  83   0.0000       0.399846        10.8804 
  84   0.0000       0.411865        11.2074 
  85   0.0000       0.427388        11.6298 
  86   0.0000       0.441157        12.0045 
  87   0.0000       0.444690        12.1006 
  88   0.0000       0.450302        12.2534 
  89   0.0000       0.463244        12.6055 
  90   0.0000       0.474785        12.9196 
  91   0.0000       0.475883        12.9494 
  92   0.0000       0.484880        13.1943 
  93   0.0000       0.497111        13.5271 
  94   0.0000       0.500236        13.6121 
  95   0.0000       0.506565        13.7843 
  96   0.0000       0.521235        14.1835 
  97   0.0000       0.523897        14.2560 
  98   0.0000       0.527438        14.3523 
  99   0.0000       0.535455        14.5705 
 100   0.0000       0.537994        14.6396 
 101   0.0000       0.549652        14.9568 
 102   0.0000       0.553008        15.0481 
 103   0.0000       0.556744        15.1498 
 104   0.0000       0.565900        15.3989 
 105   0.0000       0.576542        15.6885 
 106   0.0000       0.583530        15.8786 
 107   0.0000       0.589473        16.0404 
 108   0.0000       0.593823        16.1587 
 109   0.0000       0.607078        16.5194 
 110   0.0000       0.612804        16.6752 
 111   0.0000       0.617199        16.7948 
 112   0.0000       0.619541        16.8586 
 113   0.0000       0.621860        16.9217 
 114   0.0000       0.633748        17.2452 
 115   0.0000       0.641196        17.4478 
 116   0.0000       0.653728        17.7888 
 117   0.0000       0.654834        17.8189 
 118   0.0000       0.660607        17.9760 
 119   0.0000       0.673333        18.3223 
 120   0.0000       0.679797        18.4982 
 121   0.0000       0.686299        18.6751 
 122   0.0000       0.697456        18.9787 
 123   0.0000       0.700287        19.0558 
 124   0.0000       0.700878        19.0718 
 125   0.0000       0.711905        19.3719 
 126   0.0000       0.724441        19.7130 
 127   0.0000       0.730168        19.8689 
 128   0.0000       0.737484        20.0680 
 129   0.0000       0.742788        20.2123 
 130   0.0000       0.750177        20.4134 
 131   0.0000       0.761294        20.7159 
 132   0.0000       0.773563        21.0497 
 133   0.0000       0.785132        21.3645 
 134   0.0000       0.790202        21.5025 
 135   0.0000       0.802274        21.8310 
 136   0.0000       0.817735        22.2517 
 137   0.0000       0.835131        22.7251 
 138   0.0000       0.848415        23.0865 
 139   0.0000       0.861843        23.4519 
 140   0.0000       0.869064        23.6484 
 141   0.0000       0.879951        23.9447 
 142   0.0000       0.891278        24.2529 
 143   0.0000       0.892236        24.2790 
 144   0.0000       0.916052        24.9271 
 145   0.0000       0.924181        25.1482 
 146   0.0000       0.941027        25.6066 
 147   0.0000       0.955051        25.9883 
 148   0.0000       0.968333        26.3497 
 149   0.0000       0.987108        26.8606 
 150   0.0000       1.002409        27.2769 
 151   0.0000       1.011880        27.5346 
 152   0.0000       1.018579        27.7169 
 153   0.0000       1.035036        28.1648 
 154   0.0000       1.048556        28.5327 
 155   0.0000       1.055731        28.7279 
 156   0.0000       1.073470        29.2106 
 157   0.0000       1.076770        29.3004 
 158   0.0000       1.085043        29.5255 
 159   0.0000       1.098530        29.8925 
 160   0.0000       1.109653        30.1952 
 161   0.0000       1.118868        30.4459 
 162   0.0000       1.128961        30.7206 
 163   0.0000       1.139813        31.0159 
 164   0.0000       1.155236        31.4356 
 165   0.0000       1.165457        31.7137 
 166   0.0000       1.172312        31.9002 
 167   0.0000       1.190919        32.4066 
 168   0.0000       1.196536        32.5594 
 169   0.0000       1.210182        32.9307 
 170   0.0000       1.231536        33.5118 
 171   0.0000       1.232391        33.5351 
 172   0.0000       1.250472        34.0271 
 173   0.0000       1.263090        34.3704 
 174   0.0000       1.283829        34.9348 
 175   0.0000       1.290869        35.1263 
 176   0.0000       1.310017        35.6474 
 177   0.0000       1.331321        36.2271 
 178   0.0000       1.358954        36.9790 
 179   0.0000       1.374563        37.4038 
 180   0.0000       1.384326        37.6694 
 181   0.0000       1.409228        38.3470 
 182   0.0000       1.426662        38.8214 
 183   0.0000       1.434636        39.0384 
 184   0.0000       1.462072        39.7850 
 185   0.0000       1.467538        39.9337 
 186   0.0000       1.488298        40.4987 
 187   0.0000       1.499463        40.8025 
 188   0.0000       1.516697        41.2714 
 189   0.0000       1.520132        41.3649 
 190   0.0000       1.548551        42.1382 
 191   0.0000       1.560916        42.4747 
 192   0.0000       1.591672        43.3116 
 193   0.0000       1.600233        43.5445 
 194   0.0000       1.617657        44.0187 
 195   0.0000       1.619165        44.0597 
 196   0.0000       1.625789        44.2400 
 197   0.0000       1.634571        44.4789 
 198   0.0000       1.640124        44.6301 
 199   0.0000       1.652339        44.9624 
 200   0.0000       1.661131        45.2017 
 201   0.0000       1.671253        45.4771 
 202   0.0000       1.678819        45.6830 
 203   0.0000       1.686117        45.8816 
 204   0.0000       1.693139        46.0726 
 205   0.0000       1.694279        46.1037 
 206   0.0000       1.711892        46.5830 
 207   0.0000       1.718589        46.7652 
 208   0.0000       1.728381        47.0316 
 209   0.0000       1.745249        47.4906 
 210   0.0000       1.752791        47.6959 
 211   0.0000       1.760727        47.9118 
 212   0.0000       1.763358        47.9834 
 213   0.0000       1.776545        48.3422 
 214   0.0000       1.795072        48.8464 
 215   0.0000       1.813803        49.3561 
 216   0.0000       1.820017        49.5252 
 217   0.0000       1.827276        49.7227 
 218   0.0000       1.834929        49.9310 
 219   0.0000       1.838956        50.0405 
 220   0.0000       1.855789        50.4986 
 221   0.0000       1.869845        50.8811 
 222   0.0000       1.896239        51.5993 
 223   0.0000       1.902352        51.7656 
 224   0.0000       1.908919        51.9443 
 225   0.0000       1.921938        52.2986 
 226   0.0000       1.953332        53.1529 
 227   0.0000       1.960308        53.3427 
 228   0.0000       1.974662        53.7333 
 229   0.0000       1.991929        54.2031 
 230   0.0000       1.998845        54.3913 
 231   0.0000       2.004462        54.5442 
 232   0.0000       2.021824        55.0166 
 233   0.0000       2.045616        55.6640 
 234   0.0000       2.059301        56.0364 
 235   0.0000       2.075805        56.4855 
 236   0.0000       2.084017        56.7090 
 237   0.0000       2.100003        57.1440 
 238   0.0000       2.108398        57.3724 
 239   0.0000       2.119275        57.6684 
 240   0.0000       2.132670        58.0329 
 241   0.0000       2.151207        58.5373 
 242   0.0000       2.157815        58.7171 
 243   0.0000       2.166640        58.9573 
 244   0.0000       2.180988        59.3477 
 245   0.0000       2.191095        59.6227 
 246   0.0000       2.202687        59.9381 
 247   0.0000       2.225783        60.5666 
 248   0.0000       2.239889        60.9505 
 249   0.0000       2.241263        60.9879 
 250   0.0000       2.259973        61.4970 
 251   0.0000       2.266249        61.6678 
 252   0.0000       2.290277        62.3216 
 253   0.0000       2.302557        62.6558 
 254   0.0000       2.333014        63.4845 
 255   0.0000       2.343697        63.7753 
 256   0.0000       2.345785        63.8321 
 257   0.0000       2.373855        64.5959 
 258   0.0000       2.378411        64.7199 
 259   0.0000       2.391036        65.0634 
 260   0.0000       2.400686        65.3260 
 261   0.0000       2.418314        65.8057 
 262   0.0000       2.428098        66.0719 
 263   0.0000       2.434418        66.2439 
 264   0.0000       2.444537        66.5192 
 265   0.0000       2.449500        66.6543 
 266   0.0000       2.455631        66.8211 
 267   0.0000       2.462372        67.0045 
 268   0.0000       2.489303        67.7374 
 269   0.0000       2.494254        67.8721 
 270   0.0000       2.516752        68.4843 
 271   0.0000       2.522518        68.6412 
 272   0.0000       2.542513        69.1853 
 273   0.0000       2.550474        69.4019 
 274   0.0000       2.557065        69.5813 
 275   0.0000       2.571138        69.9642 
 276   0.0000       2.591605        70.5212 
 277   0.0000       2.627309        71.4927 
 278   0.0000       2.636536        71.7438 
 279   0.0000       2.645750        71.9945 
 280   0.0000       2.656864        72.2970 
 281   0.0000       2.661221        72.4155 
 282   0.0000       2.686115        73.0929 
 283   0.0000       2.688093        73.1467 
 284   0.0000       2.698054        73.4178 
 285   0.0000       2.711426        73.7816 
 286   0.0000       2.719877        74.0116 
 287   0.0000       2.732905        74.3661 
 288   0.0000       2.743862        74.6643 
 289   0.0000       2.762249        75.1646 
 290   0.0000       2.772797        75.4516 
 291   0.0000       2.786534        75.8254 
 292   0.0000       2.808506        76.4233 
 293   0.0000       2.821092        76.7658 
 294   0.0000       2.828323        76.9626 
 295   0.0000       2.833886        77.1140 
 296   0.0000       2.840512        77.2943 
 297   0.0000       2.870579        78.1124 
 298   0.0000       2.907874        79.1273 
 299   0.0000       2.919265        79.4373 
 300   0.0000       2.928013        79.6753 
 301   0.0000       2.951421        80.3122 
 302   0.0000       2.962295        80.6081 
 303   0.0000       2.968724        80.7831 
 304   0.0000       2.998369        81.5898 
 305   0.0000       3.005641        81.7877 
 306   0.0000       3.008996        81.8790 
 307   0.0000       3.033077        82.5342 
 308   0.0000       3.045814        82.8808 
 309   0.0000       3.054152        83.1077 
 310   0.0000       3.081762        83.8590 
 311   0.0000       3.081881        83.8622 
 312   0.0000       3.092484        84.1508 
 313   0.0000       3.109911        84.6250 
 314   0.0000       3.118572        84.8606 
 315   0.0000       3.126228        85.0690 
 316   0.0000       3.134723        85.3001 
 317   0.0000       3.149384        85.6991 
 318   0.0000       3.162061        86.0440 
 319   0.0000       3.171667        86.3055 
 320   0.0000       3.178035        86.4787 
 321   0.0000       3.195305        86.9487 
 322   0.0000       3.198174        87.0268 
 323   0.0000       3.210843        87.3715 
 324   0.0000       3.216102        87.5146 
 325   0.0000       3.228795        87.8600 
 326   0.0000       3.241321        88.2008 
 327   0.0000       3.247542        88.3701 
 328   0.0000       3.257501        88.6411 
 329   0.0000       3.267051        88.9010 
 330   0.0000       3.276330        89.1535 
 331   0.0000       3.282358        89.3175 
 332   0.0000       3.296934        89.7141 
 333   0.0000       3.306819        89.9831 
 334   0.0000       3.311340        90.1061 
 335   0.0000       3.320375        90.3520 
 336   0.0000       3.339581        90.8746 
 337   0.0000       3.360674        91.4486 
 338   0.0000       3.367481        91.6338 
 339   0.0000       3.376371        91.8757 
 340   0.0000       3.389386        92.2299 
 341   0.0000       3.398767        92.4851 
 342   0.0000       3.402028        92.5739 
 343   0.0000       3.411741        92.8382 
 344   0.0000       3.416657        92.9720 
 345   0.0000       3.437412        93.5367 
 346   0.0000       3.443765        93.7096 
 347   0.0000       3.455990        94.0423 
 348   0.0000       3.470186        94.4286 
 349   0.0000       3.473432        94.5169 
 350   0.0000       3.476370        94.5968 
 351   0.0000       3.480345        94.7050 
 352   0.0000       3.497337        95.1674 
 353   0.0000       3.510363        95.5218 
 354   0.0000       3.520051        95.7855 
 355   0.0000       3.521883        95.8353 
 356   0.0000       3.542381        96.3931 
 357   0.0000       3.549812        96.5953 
 358   0.0000       3.570977        97.1712 
 359   0.0000       3.576230        97.3142 
 360   0.0000       3.599420        97.9452 
 361   0.0000       3.616727        98.4162 
 362   0.0000       3.628724        98.7426 
 363   0.0000       3.635586        98.9293 
 364   0.0000       3.659516        99.5805 
 365   0.0000       3.668963        99.8375 
 366   0.0000       3.678514       100.0974 
 367   0.0000       3.681016       100.1655 
 368   0.0000       3.704537       100.8056 
 369   0.0000       3.713789       101.0573 
 370   0.0000       3.720636       101.2436 
 371   0.0000       3.750157       102.0470 
 372   0.0000       3.778848       102.8277 
 373   0.0000       3.793846       103.2358 
 374   0.0000       3.809526       103.6625 
 375   0.0000       3.835667       104.3738 
 376   0.0000       3.842950       104.5720 
 377   0.0000       3.861734       105.0831 
 378   0.0000       3.884403       105.7000 
 379   0.0000       3.911167       106.4283 
 380   0.0000       3.918219       106.6202 
 381   0.0000       3.950742       107.5052 
 382   0.0000       3.969216       108.0079 
 383   0.0000       3.973553       108.1259 
 384   0.0000       3.997667       108.7820 
 385   0.0000       4.017006       109.3083 
 386   0.0000       4.036828       109.8477 
 387   0.0000       4.046480       110.1103 
 388   0.0000       4.081537       111.0643 
 389   0.0000       4.084934       111.1567 
 390   0.0000       4.104602       111.6919 
 391   0.0000       4.128676       112.3470 
 392   0.0000       4.161954       113.2525 
 393   0.0000       4.175762       113.6282 
 394   0.0000       4.213448       114.6538 
 395   0.0000       4.231292       115.1393 
 396   0.0000       4.234518       115.2271 
 397   0.0000       4.250722       115.6680 
 398   0.0000       4.314886       117.4140 
 399   0.0000       4.330418       117.8367 
 400   0.0000       4.377830       119.1268 
 401   0.0000       4.394913       119.5917 
 402   0.0000       4.413951       120.1097 
 403   0.0000       4.442943       120.8986 
 404   0.0000       4.464313       121.4801 
 405   0.0000       4.477621       121.8423 
 406   0.0000       4.486612       122.0869 
 407   0.0000       4.492569       122.2490 
 408   0.0000       4.532947       123.3478 
 409   0.0000       4.551627       123.8561 
 410   0.0000       4.572037       124.4115 
 411   0.0000       4.604339       125.2904 
 412   0.0000       4.632153       126.0473 
 413   0.0000       4.699788       127.8877 
 414   0.0000       4.727563       128.6435 
 415   0.0000       4.759986       129.5258 
 416   0.0000       4.776279       129.9692 
 417   0.0000       4.836012       131.5946 
 418   0.0000       4.865008       132.3836 
 419   0.0000       4.876538       132.6973 
 420   0.0000       4.891187       133.0960 
 421   0.0000       4.917482       133.8115 
 422   0.0000       4.965100       135.1072 
 423   0.0000       4.995685       135.9395 
 424   0.0000       5.015568       136.4805 
 425   0.0000       5.071006       137.9891 
 426   0.0000       5.102708       138.8517 
 427   0.0000       5.120186       139.3273 
 428   0.0000       5.152034       140.1940 
 429   0.0000       5.177844       140.8963 
 430   0.0000       5.218317       141.9976 
 431   0.0000       5.235749       142.4720 
 432   0.0000       5.264927       143.2660 
 433   0.0000       5.283388       143.7683 
 434   0.0000       5.300176       144.2251 
 435   0.0000       5.341647       145.3536 
 436   0.0000       5.350934       145.6063 
 437   0.0000       5.366651       146.0340 
 438   0.0000       5.388526       146.6292 
 439   0.0000       5.401317       146.9773 
 440   0.0000       5.404863       147.0738 
 441   0.0000       5.405522       147.0917 
 442   0.0000       5.412123       147.2714 
 443   0.0000       5.487187       149.3140 
 444   0.0000       5.502137       149.7208 
 445   0.0000       5.549244       151.0026 
 446   0.0000       5.553672       151.1231 
 447   0.0000       5.575363       151.7133 
 448   0.0000       5.607158       152.5785 
 449   0.0000       5.664128       154.1288 
 450   0.0000       5.681447       154.6000 
 451   0.0000       5.707153       155.2995 
 452   0.0000       5.735893       156.0816 
 453   0.0000       5.761926       156.7900 
 454   0.0000       5.779042       157.2557 
 455   0.0000       5.786152       157.4492 
 456   0.0000       5.886334       160.1753 
 457   0.0000       5.921957       161.1446 
 458   0.0000       5.953619       162.0062 
 459   0.0000       5.986215       162.8932 
 460   0.0000       6.045520       164.5070 
 461   0.0000       6.181186       168.1986 
 462   0.0000       6.198358       168.6659 
 463   0.0000       6.219127       169.2311 
 464   0.0000       6.225292       169.3988 
 465   0.0000       6.289991       171.1593 
 466   0.0000       6.384860       173.7409 
 467   0.0000       6.396029       174.0448 
 468   0.0000       6.522174       177.4774 
 469   0.0000       6.532123       177.7481 
 470   0.0000       6.539933       177.9606 
 471   0.0000       6.546051       178.1271 
 472   0.0000       6.627202       180.3353 
 473   0.0000       6.643163       180.7697 
 474   0.0000       6.652398       181.0209 
 475   0.0000       6.665851       181.3870 
 476   0.0000       6.753250       183.7653 
 477   0.0000       6.757099       183.8700 
 478   0.0000       6.828341       185.8086 
 479   0.0000       6.856606       186.5777 
 480   0.0000       6.929828       188.5702 
 481   0.0000       6.943709       188.9479 
 482   0.0000       6.947547       189.0524 
 483   0.0000       7.030488       191.3093 
 484   0.0000       7.125469       193.8939 
 485   0.0000       7.142113       194.3468 
 486   0.0000       7.160704       194.8527 
 487   0.0000       7.176760       195.2896 
 488   0.0000       7.227129       196.6602 
 489   0.0000       7.295315       198.5156 
 490   0.0000       7.318731       199.1528 
 491   0.0000       7.374742       200.6769 
 492   0.0000      22.483296       611.8016 
 493   0.0000      22.588484       614.6639 
 494   0.0000      22.628290       615.7471 
 495   0.0000      22.696143       617.5935 
 496   0.0000      22.846651       621.6890 
 497   0.0000      23.452543       638.1761 
 498   0.0000      23.510657       639.7575 
 499   0.0000      23.606950       642.3778 
 500   0.0000      32.720778       890.3776 
 501   0.0000      32.794907       892.3948 
 502   0.0000      44.148319      1201.3368 
 503   0.0000      44.169730      1201.9195 
 504   0.0000      44.207002      1202.9337 
 505   0.0000      44.228080      1203.5072 

                 SPIN DOWN ORBITALS
  NO   OCC          E(Eh)            E(eV) 
   0   1.0000     -19.486334      -530.2501 
   1   1.0000     -19.481006      -530.1051 
   2   1.0000     -19.422609      -528.5161 
   3   1.0000     -19.414820      -528.3041 
   4   1.0000     -14.659082      -398.8939 
   5   1.0000     -14.634489      -398.2247 
   6   1.0000     -10.541992      -286.8622 
   7   1.0000     -10.526299      -286.4352 
   8   1.0000     -10.482260      -285.2368 
   9   1.0000     -10.477573      -285.1093 
  10   1.0000     -10.452656      -284.4312 
  11   1.0000     -10.452146      -284.4174 
  12   1.0000     -10.421295      -283.5779 
  13   1.0000     -10.403262      -283.0871 
  14   1.0000      -1.047155       -28.4945 
  15   1.0000      -1.035502       -28.1774 
  16   1.0000      -0.995554       -27.0904 
  17   1.0000      -0.917091       -24.9553 
  18   1.0000      -0.910778       -24.7835 
  19   1.0000      -0.894026       -24.3277 
  20   1.0000      -0.763971       -20.7887 
  21   1.0000      -0.724361       -19.7109 
  22   1.0000      -0.690596       -18.7921 
  23   1.0000      -0.656109       -17.8536 
  24   1.0000      -0.572463       -15.5775 
  25   1.0000      -0.541420       -14.7328 
  26   1.0000      -0.509820       -13.8729 
  27   1.0000      -0.492131       -13.3916 
  28   1.0000      -0.452296       -12.3076 
  29   1.0000      -0.447059       -12.1651 
  30   1.0000      -0.430766       -11.7217 
  31   1.0000      -0.420677       -11.4472 
  32   1.0000      -0.416261       -11.3270 
  33   1.0000      -0.405855       -11.0439 
  34   1.0000      -0.395245       -10.7552 
  35   1.0000      -0.379668       -10.3313 
  36   1.0000      -0.369026       -10.0417 
  37   1.0000      -0.361983        -9.8500 
  38   1.0000      -0.355264        -9.6672 
  39   1.0000      -0.344415        -9.3720 
  40   1.0000      -0.335936        -9.1413 
  41   1.0000      -0.330648        -8.9974 
  42   1.0000      -0.324161        -8.8209 
  43   1.0000      -0.312324        -8.4988 
  44   1.0000      -0.295421        -8.0388 
  45   1.0000      -0.280056        -7.6207 
  46   1.0000      -0.229900        -6.2559 
  47   1.0000      -0.223137        -6.0719 
  48   1.0000      -0.216145        -5.8816 
  49   1.0000      -0.198587        -5.4038 
  50   1.0000      -0.171958        -4.6792 
  51   1.0000      -0.169675        -4.6171 
  52   1.0000      -0.157502        -4.2859 
  53   0.0000       0.111669         3.0387 
  54   0.0000       0.156704         4.2641 
  55   0.0000       0.162784         4.4296 
  56   0.0000       0.173530         4.7220 
  57   0.0000       0.186272         5.0687 
  58   0.0000       0.207496         5.6463 
  59   0.0000       0.210886         5.7385 
  60   0.0000       0.220998         6.0137 
  61   0.0000       0.234002         6.3675 
  62   0.0000       0.240815         6.5529 
  63   0.0000       0.244252         6.6464 
  64   0.0000       0.246569         6.7095 
  65   0.0000       0.254485         6.9249 
  66   0.0000       0.266487         7.2515 
  67   0.0000       0.268065         7.2944 
  68   0.0000       0.282118         7.6768 
  69   0.0000       0.286799         7.8042 
  70   0.0000       0.299279         8.1438 
  71   0.0000       0.307461         8.3664 
  72   0.0000       0.319764         8.7012 
  73   0.0000       0.325695         8.8626 
  74   0.0000       0.336510         9.1569 
  75   0.0000       0.342927         9.3315 
  76   0.0000       0.350728         9.5438 
  77   0.0000       0.355485         9.6732 
  78   0.0000       0.358752         9.7621 
  79   0.0000       0.372725        10.1424 
  80   0.0000       0.385909        10.5011 
  81   0.0000       0.390845        10.6354 
  82   0.0000       0.398920        10.8552 
  83   0.0000       0.401549        10.9267 
  84   0.0000       0.414571        11.2810 
  85   0.0000       0.431577        11.7438 
  86   0.0000       0.440903        11.9976 
  87   0.0000       0.446447        12.1484 
  88   0.0000       0.451232        12.2787 
  89   0.0000       0.466616        12.6973 
  90   0.0000       0.475731        12.9453 
  91   0.0000       0.481705        13.1079 
  92   0.0000       0.485932        13.2229 
  93   0.0000       0.498522        13.5655 
  94   0.0000       0.500933        13.6311 
  95   0.0000       0.507348        13.8056 
  96   0.0000       0.524535        14.2733 
  97   0.0000       0.525588        14.3020 
  98   0.0000       0.533014        14.5040 
  99   0.0000       0.535383        14.5685 
 100   0.0000       0.539419        14.6783 
 101   0.0000       0.549664        14.9571 
 102   0.0000       0.556049        15.1309 
 103   0.0000       0.559862        15.2346 
 104   0.0000       0.567254        15.4358 
 105   0.0000       0.577674        15.7193 
 106   0.0000       0.587192        15.9783 
 107   0.0000       0.590847        16.0778 
 108   0.0000       0.593970        16.1627 
 109   0.0000       0.607525        16.5316 
 110   0.0000       0.613156        16.6848 
 111   0.0000       0.617698        16.8084 
 112   0.0000       0.622253        16.9324 
 113   0.0000       0.623841        16.9756 
 114   0.0000       0.638754        17.3814 
 115   0.0000       0.644226        17.5303 
 116   0.0000       0.655056        17.8250 
 117   0.0000       0.658616        17.9219 
 118   0.0000       0.663802        18.0630 
 119   0.0000       0.675370        18.3778 
 120   0.0000       0.680605        18.5202 
 121   0.0000       0.687087        18.6966 
 122   0.0000       0.698471        19.0064 
 123   0.0000       0.699837        19.0435 
 124   0.0000       0.701193        19.0804 
 125   0.0000       0.715303        19.4644 
 126   0.0000       0.724267        19.7083 
 127   0.0000       0.730045        19.8655 
 128   0.0000       0.738115        20.0851 
 129   0.0000       0.745263        20.2796 
 130   0.0000       0.750101        20.4113 
 131   0.0000       0.762327        20.7440 
 132   0.0000       0.773782        21.0557 
 133   0.0000       0.786472        21.4010 
 134   0.0000       0.790221        21.5030 
 135   0.0000       0.802477        21.8365 
 136   0.0000       0.817567        22.2471 
 137   0.0000       0.836268        22.7560 
 138   0.0000       0.849575        23.1181 
 139   0.0000       0.863046        23.4847 
 140   0.0000       0.869522        23.6609 
 141   0.0000       0.881993        24.0003 
 142   0.0000       0.891186        24.2504 
 143   0.0000       0.892881        24.2965 
 144   0.0000       0.915885        24.9225 
 145   0.0000       0.925537        25.1851 
 146   0.0000       0.943776        25.6814 
 147   0.0000       0.957590        26.0574 
 148   0.0000       0.968807        26.3626 
 149   0.0000       0.988067        26.8867 
 150   0.0000       1.003310        27.3015 
 151   0.0000       1.013731        27.5850 
 152   0.0000       1.018544        27.7160 
 153   0.0000       1.035646        28.1814 
 154   0.0000       1.050439        28.5839 
 155   0.0000       1.055313        28.7165 
 156   0.0000       1.074241        29.2316 
 157   0.0000       1.078795        29.3555 
 158   0.0000       1.089342        29.6425 
 159   0.0000       1.099595        29.9215 
 160   0.0000       1.110695        30.2235 
 161   0.0000       1.119785        30.4709 
 162   0.0000       1.129178        30.7265 
 163   0.0000       1.142043        31.0766 
 164   0.0000       1.156041        31.4575 
 165   0.0000       1.167849        31.7788 
 166   0.0000       1.173211        31.9247 
 167   0.0000       1.190890        32.4058 
 168   0.0000       1.198716        32.6187 
 169   0.0000       1.210825        32.9482 
 170   0.0000       1.232895        33.5488 
 171   0.0000       1.235013        33.6064 
 172   0.0000       1.253344        34.1052 
 173   0.0000       1.264088        34.3976 
[...]
     14      -0.000106   0.000034   0.000060  -0.000260  -0.082364   0.000057
     15      -0.000501   0.000118   0.000100  -0.000483  -0.198030  -0.000965
     16       0.000215  -0.000090  -0.000187   0.000701   0.176044  -0.000502
     17       0.001821  -0.000433  -0.000505   0.002993   0.958506   0.000783
     18       0.000974   0.000027  -0.000043  -0.000005   0.000300   0.000022
     19      -0.002343  -0.000056  -0.000024   0.000005   0.002761   0.000034
     20       0.004689   0.000015   0.000135   0.000046  -0.003831  -0.000041
     21      -0.023291  -0.000366  -0.000362  -0.000053   0.012008   0.000105
     22       0.031713   0.000581   0.000378   0.000091  -0.019679  -0.000276
     23      -0.025963  -0.000474  -0.000374  -0.000003   0.013095   0.000442
     24       0.011434  -0.000084   0.000534   0.000135  -0.013262  -0.000215
     25      -0.002228   0.000005  -0.000026  -0.000072   0.004776   0.000083
     26      -0.031013   0.000359  -0.001339  -0.000481   0.039669  -0.000024
     27       0.000077   0.000003   0.000073  -0.000011   0.000740  -0.000141
     28      -0.000128  -0.000002  -0.000122  -0.000010  -0.000089   0.000064
     29       0.000095   0.000009   0.000069   0.000002   0.000005  -0.000050
     30      -0.000081  -0.000015  -0.000080   0.000003  -0.000247   0.000046
     31       0.000061   0.000014  -0.000036   0.000007   0.000183  -0.000084
     32       0.000030  -0.000004  -0.000042  -0.000014   0.000042   0.000085
     33      -0.000037  -0.000024  -0.000007  -0.000007  -0.000216   0.000029
     34       0.000047   0.000006   0.000036   0.000009  -0.000106  -0.000013
     35      -0.000017   0.000000  -0.000026  -0.000006   0.000080   0.000016
     36      -0.000196   0.000090  -0.000521  -0.004199  -0.000226   0.348893
     37      -0.000171  -0.000617   0.000008  -0.000391  -0.000244   0.090777
     38       0.000232  -0.000641   0.000326   0.004372   0.000806  -0.929824
     39      -0.000012   0.000208  -0.000010   0.001454   0.000072  -0.001032
     40      -0.000015  -0.001173  -0.000008   0.000485  -0.000101  -0.000322
     41      -0.000053  -0.000028  -0.000026   0.002531  -0.000750  -0.000222
     42      -0.000359   0.000019  -0.000403   0.000065  -0.000161  -0.000623
     43       0.000094   0.000013  -0.000094   0.000030  -0.000046  -0.000408
     44       0.000399  -0.000013  -0.000754  -0.000030   0.000111   0.000334
     45       0.006389  -0.000072   0.003404  -0.000222   0.002115   0.001769
     46      -0.000775  -0.000143   0.002924  -0.000297   0.000702   0.002821
     47      -0.007833   0.000153   0.002734   0.000369  -0.002065  -0.004192
     48      -0.000007  -0.000038  -0.000002  -0.000081  -0.000241   0.000069
     49       0.000011   0.000200   0.000001  -0.000122  -0.000063  -0.000357
     50       0.000023   0.000068   0.000030  -0.000694   0.000355  -0.001756
     51      -0.000017   0.007397   0.000059   0.014823  -0.000075  -0.000001
     52       0.000033  -0.091104   0.000125   0.012099  -0.000061   0.000243
     53       0.000032   0.010541   0.000379   0.091753  -0.000179   0.000438
     54       0.000202  -0.339004  -0.000501  -0.200635   0.000597  -0.000893
     55      -0.000294   0.487851   0.000813   0.308942  -0.000728   0.000358
     56       0.000226  -0.371440  -0.000488  -0.207370   0.000545  -0.000686
     57      -0.000011   0.251893  -0.000750  -0.133925   0.000668  -0.000475
     58      -0.000064   0.623024  -0.001967  -0.353865   0.001449  -0.001338
     59      -0.000008   0.219692  -0.000594  -0.102923   0.000485  -0.000422
     60       0.000074  -0.002707   0.000594   0.145702  -0.000683  -0.000778
     61      -0.000082  -0.012389  -0.000400  -0.100790   0.000269  -0.000556
     62      -0.000496   0.024600  -0.003270  -0.792021   0.002253  -0.006317
     63       0.040828   0.000091   0.077612  -0.000307   0.000069   0.000100
     64      -0.081895   0.000014   0.044706  -0.000159  -0.000035  -0.000019
     65      -0.012812  -0.000023  -0.022754   0.000078   0.000066   0.000078
     66      -0.034281   0.000027   0.032123  -0.000093  -0.000090   0.000134
     67       0.717254  -0.000006  -0.294099   0.000892   0.000827   0.000380
     68      -0.256674  -0.000003   0.095617  -0.000279  -0.000397  -0.000288
     69      -0.094588  -0.000770  -0.841911   0.003560  -0.000971  -0.000581
     70      -0.061139  -0.000339  -0.368193   0.001550  -0.000420  -0.000224
     71       0.002788   0.000043   0.049798  -0.000228  -0.000053   0.000110
     72      -0.356013  -0.000200  -0.112790   0.000507   0.000028   0.000176
     73       0.316451   0.000200   0.128408  -0.000556  -0.000097   0.000077
     74       0.408549   0.000246   0.136645  -0.000574  -0.000082  -0.000310
     75      -0.000687  -0.000109  -0.000055   0.001024  -0.006928   0.004446
     76       0.001904  -0.000452   0.000306  -0.001614   0.031416  -0.005176
     77       0.000584  -0.000238   0.000326  -0.000790   0.013592  -0.001027


-----------
IR SPECTRUM
-----------

 Mode   freq       eps      Int      T**2         TX        TY        TZ
       cm**-1   L/(mol*cm) km/mol    a.u.
----------------------------------------------------------------------------
  7:     43.96   0.000162    0.82  0.001152  ( 0.014853 -0.011000  0.028473)
  8:     52.89   0.000434    2.20  0.002563  ( 0.017879 -0.020771 -0.042571)
  9:     73.89   0.000281    1.42  0.001186  ( 0.003923 -0.027840  0.019884)
 10:     85.07   0.000167    0.84  0.000612  ( 0.016974 -0.017910 -0.001709)
 11:    104.46   0.002317   11.71  0.006923  (-0.014100  0.080270  0.016754)
 12:    113.37   0.000334    1.69  0.000920  ( 0.029871  0.004827 -0.002191)
 13:    161.12   0.002958   14.95  0.005729  (-0.038535  0.018964 -0.062326)
 14:    174.00   0.000366    1.85  0.000657  (-0.017222  0.001242 -0.018939)
 15:    177.75   0.002822   14.26  0.004954  (-0.018385 -0.048095  0.047988)
 16:    202.83   0.004021   20.32  0.006186  (-0.008932 -0.069859  0.035017)
 17:    221.40   0.006483   32.76  0.009138  ( 0.072757  0.061847 -0.004337)
 18:    244.28   0.004766   24.08  0.006088  ( 0.033933  0.057928 -0.039761)
 19:    283.76   0.001816    9.18  0.001997  (-0.002287 -0.023733  0.037796)
 20:    306.05   0.001209    6.11  0.001232  ( 0.010838 -0.029355  0.015911)
 21:    376.47   0.005732   28.97  0.004752  ( 0.045032 -0.025392  0.045596)
 22:    405.37   0.000630    3.18  0.000485  (-0.002293 -0.012279  0.018142)
 23:    477.06   0.001628    8.23  0.001065  (-0.019384 -0.026236 -0.000815)
 24:    527.15   0.002890   14.61  0.001711  (-0.041243  0.003030  0.000976)
 25:    544.26   0.001753    8.86  0.001005  ( 0.013975 -0.020076 -0.020176)
 26:    571.48   0.007109   35.92  0.003882  (-0.021824  0.057854 -0.007641)
 27:    583.68   0.010880   54.98  0.005817  (-0.026405 -0.069895 -0.015309)
 28:    630.77   0.003468   17.53  0.001716  (-0.030725  0.007891  0.026640)
 29:    660.88   0.000765    3.87  0.000361  ( 0.002313 -0.016064 -0.009897)
 30:    704.53   0.000469    2.37  0.000208  ( 0.009437  0.000898 -0.010855)
 31:    750.31   0.004734   23.93  0.001969  (-0.037716 -0.019661 -0.012650)
 32:    798.84   0.003681   18.60  0.001438  (-0.018557 -0.030317  0.013207)
 33:    876.63   0.004924   24.88  0.001753  ( 0.039771 -0.013073  0.000247)
 34:    883.96   0.009954   50.30  0.003514  ( 0.034314  0.047756 -0.007484)
 35:    919.82   0.011972   60.50  0.004062  ( 0.041004  0.047014 -0.013039)
 36:    972.23   0.003146   15.90  0.001010  (-0.031145  0.002857  0.005636)
 37:   1006.89   0.001707    8.62  0.000529  ( 0.016464  0.012243  0.010390)
 38:   1036.40   0.002424   12.25  0.000730  (-0.016911 -0.019530 -0.007903)
 39:   1056.33   0.013262   67.02  0.003918  (-0.021097  0.052700 -0.026372)
 40:   1058.83   0.017560   88.74  0.005175  ( 0.016537 -0.066879  0.020713)
 41:   1087.86   0.004505   22.77  0.001292  ( 0.007792  0.034404 -0.006926)
 42:   1131.53   0.000439    2.22  0.000121  (-0.009517 -0.005378 -0.001264)
 43:   1150.38   0.001583    8.00  0.000430  (-0.014549 -0.011809  0.008854)
 44:   1162.54   0.001207    6.10  0.000324  (-0.013880  0.009605 -0.006262)
 45:   1193.27   0.003076   15.54  0.000804  (-0.026216 -0.005810  0.009131)
 46:   1206.91   0.002443   12.35  0.000632  ( 0.003871  0.022481 -0.010548)
 47:   1227.57   0.005923   29.93  0.001506  (-0.036629 -0.005460 -0.011581)
 48:   1260.12   0.000930    4.70  0.000230  ( 0.013312  0.006520  0.003252)
 49:   1322.68   0.001721    8.70  0.000406  ( 0.013273  0.001968 -0.015037)
 50:   1344.52   0.030073  151.98  0.006980  (-0.074327 -0.011995 -0.036216)
 51:   1363.21   0.012912   65.25  0.002956  ( 0.048453 -0.015662  0.019049)
 52:   1390.36   0.006845   34.59  0.001536  (-0.007726  0.010320 -0.037016)
 53:   1397.40   0.016166   81.70  0.003610  (-0.045958  0.010418 -0.037276)
 54:   1425.94   0.006193   31.30  0.001355  ( 0.021152  0.017805  0.024308)
 55:   1455.24   0.005703   28.82  0.001223  ( 0.004255  0.005877 -0.034210)
 56:   1469.46   0.001553    7.85  0.000330  ( 0.009339 -0.011393 -0.010617)
 57:   1474.14   0.001289    6.51  0.000273  ( 0.006914 -0.013682  0.006147)
 58:   1483.87   0.011210   56.65  0.002358  (-0.032220 -0.011094 -0.034589)
 59:   1489.70   0.001800    9.10  0.000377  (-0.013922  0.013337  0.002316)
 60:   1507.46   0.001085    5.48  0.000225  ( 0.002931  0.012151 -0.008271)
 61:   1537.61   0.094441  477.26  0.019167  ( 0.125998  0.032884  0.047014)
 62:   1673.46   0.074418  376.08  0.013877  ( 0.090695  0.075111  0.003187)
 63:   1724.03   0.155553  786.10  0.028156  (-0.067287 -0.125221  0.089154)
 64:   1745.41   0.076088  384.52  0.013604  (-0.047673  0.102646 -0.028195)
 65:   1772.80   0.064687  326.90  0.011387  (-0.011910 -0.013621 -0.105163)
 66:   2476.00   0.328375  1659.47  0.041387  ( 0.085737  0.142921 -0.116661)
 67:   3052.79   0.004888   24.70  0.000500  (-0.013749  0.014646 -0.009805)
 68:   3054.79   0.008912   45.04  0.000910  (-0.005712 -0.010501 -0.027704)
 69:   3055.73   0.002785   14.07  0.000284  ( 0.013709 -0.004604  0.008673)
 70:   3083.11   0.001954    9.87  0.000198  ( 0.013474  0.002140 -0.003410)
 71:   3110.91   0.002943   14.87  0.000295  (-0.002317  0.010023 -0.013763)
 72:   3111.91   0.006210   31.38  0.000623  ( 0.012064 -0.021842 -0.000290)
 73:   3164.16   0.001145    5.79  0.000113  ( 0.000244 -0.010607  0.000638)
 74:   3169.04   0.001848    9.34  0.000182  ( 0.011400  0.006512 -0.003109)
 75:   3173.68   0.002607   13.17  0.000256  (-0.000024  0.002801  0.015762)
 76:   3225.45   0.001672    8.45  0.000162  ( 0.001551 -0.002277 -0.012416)
 77:   3592.01   0.024303  122.82  0.002111  (-0.013215  0.001186 -0.043992)

* The epsilon (eps) is given for a Dirac delta lineshape.
** The dipole moment derivative (T) already includes vibrational overlap.

The first frequency considered to be a vibration is 7
The total number of vibrations considered is 71


--------------------------
THERMOCHEMISTRY AT 298.15K
--------------------------

Temperature         ... 298.15 K
Pressure            ... 1.00 atm
Total Mass          ... 200.19 AMU

Throughout the following assumptions are being made:
  (1) The electronic state is orbitally nondegenerate
      but the spin degeneracy is treated
  (2) There are no thermally accessible electronically excited states
  (3) Hindered rotations indicated by low frequency modes are not
      treated as such but are treated as vibrations and this may
      cause some error
  (4) All equations used are the standard statistical mechanics
      equations for an ideal gas
  (5) All vibrations are strictly harmonic

freq.      43.96  E(vib)   ...       0.53 
freq.      52.89  E(vib)   ...       0.52 
freq.      73.89  E(vib)   ...       0.49 
freq.      85.07  E(vib)   ...       0.48 
freq.     104.46  E(vib)   ...       0.46 
freq.     113.37  E(vib)   ...       0.45 
freq.     161.12  E(vib)   ...       0.39 
freq.     174.00  E(vib)   ...       0.38 
freq.     177.75  E(vib)   ...       0.37 
freq.     202.83  E(vib)   ...       0.35 
freq.     221.40  E(vib)   ...       0.33 
freq.     244.28  E(vib)   ...       0.31 
freq.     283.76  E(vib)   ...       0.28 
freq.     306.05  E(vib)   ...       0.26 
freq.     376.47  E(vib)   ...       0.21 
freq.     405.37  E(vib)   ...       0.19 
freq.     477.06  E(vib)   ...       0.15 
freq.     527.15  E(vib)   ...       0.13 
freq.     544.26  E(vib)   ...       0.12 
freq.     571.48  E(vib)   ...       0.11 
freq.     583.68  E(vib)   ...       0.11 
freq.     630.77  E(vib)   ...       0.09 
freq.     660.88  E(vib)   ...       0.08 
freq.     704.53  E(vib)   ...       0.07 
freq.     750.31  E(vib)   ...       0.06 
freq.     798.84  E(vib)   ...       0.05 
freq.     876.63  E(vib)   ...       0.04 
freq.     883.96  E(vib)   ...       0.04 
freq.     919.82  E(vib)   ...       0.03 
freq.     972.23  E(vib)   ...       0.03 
freq.    1006.89  E(vib)   ...       0.02 
freq.    1036.40  E(vib)   ...       0.02 
freq.    1056.33  E(vib)   ...       0.02 
freq.    1058.83  E(vib)   ...       0.02 
freq.    1087.86  E(vib)   ...       0.02 
freq.    1131.53  E(vib)   ...       0.01 
freq.    1150.38  E(vib)   ...       0.01 
freq.    1162.54  E(vib)   ...       0.01 
freq.    1193.27  E(vib)   ...       0.01 
freq.    1206.91  E(vib)   ...       0.01 
freq.    1227.57  E(vib)   ...       0.01 
freq.    1260.12  E(vib)   ...       0.01 
freq.    1322.68  E(vib)   ...       0.01 
freq.    1344.52  E(vib)   ...       0.01 
freq.    1363.21  E(vib)   ...       0.01 
freq.    1390.36  E(vib)   ...       0.00 
freq.    1397.40  E(vib)   ...       0.00 
freq.    1425.94  E(vib)   ...       0.00 
freq.    1455.24  E(vib)   ...       0.00 
freq.    1469.46  E(vib)   ...       0.00 
freq.    1474.14  E(vib)   ...       0.00 
freq.    1483.87  E(vib)   ...       0.00 
freq.    1489.70  E(vib)   ...       0.00 
freq.    1507.46  E(vib)   ...       0.00 
freq.    1537.61  E(vib)   ...       0.00 
freq.    1673.46  E(vib)   ...       0.00 
freq.    1724.03  E(vib)   ...       0.00 
freq.    1745.41  E(vib)   ...       0.00 
freq.    1772.80  E(vib)   ...       0.00 
freq.    2476.00  E(vib)   ...       0.00 
freq.    3052.79  E(vib)   ...       0.00 
freq.    3054.79  E(vib)   ...       0.00 
freq.    3055.73  E(vib)   ...       0.00 
freq.    3083.11  E(vib)   ...       0.00 
freq.    3110.91  E(vib)   ...       0.00 
freq.    3111.91  E(vib)   ...       0.00 
freq.    3164.16  E(vib)   ...       0.00 
freq.    3169.04  E(vib)   ...       0.00 
freq.    3173.68  E(vib)   ...       0.00 
freq.    3225.45  E(vib)   ...       0.00 
freq.    3592.01  E(vib)   ...       0.00 

------------
INNER ENERGY
------------

The inner energy is: U= E(el) + E(ZPE) + E(vib) + E(rot) + E(trans)
    E(el)   - is the total energy from the electronic structure calculation
              = E(kin-el) + E(nuc-el) + E(el-el) + E(nuc-nuc)
    E(ZPE)  - the the zero temperature vibrational energy from the frequency calculation
    E(vib)  - the the finite temperature correction to E(ZPE) due to population
              of excited vibrational states
    E(rot)  - is the rotational thermal energy
    E(trans)- is the translational thermal energy

Summary of contributions to the inner energy U:
Electronic energy                ...   -722.54381933 Eh
Zero point energy                ...      0.20356286 Eh     127.74 kcal/mol
Thermal vibrational correction   ...      0.01167474 Eh       7.33 kcal/mol
Thermal rotational correction    ...      0.00141627 Eh       0.89 kcal/mol
Thermal translational correction ...      0.00141627 Eh       0.89 kcal/mol
-----------------------------------------------------------------------
Total thermal energy                   -722.32574920 Eh


Summary of corrections to the electronic energy:
(perhaps to be used in another calculation)
Total thermal correction                  0.01450728 Eh       9.10 kcal/mol
Non-thermal (ZPE) correction              0.20356286 Eh     127.74 kcal/mol
-----------------------------------------------------------------------
Total correction                          0.21807014 Eh     136.84 kcal/mol


--------
ENTHALPY
--------

The enthalpy is H = U + kB*T
                kB is Boltzmann's constant
Total free energy                 ...   -722.32574920 Eh 
Thermal Enthalpy correction       ...      0.00094421 Eh       0.59 kcal/mol
-----------------------------------------------------------------------
Total Enthalpy                    ...   -722.32480499 Eh


Note: Only C1 symmetry has been detected, increase convergence thresholds 
      if your molecule has a higher symmetry. Symmetry factor of 1.0 is   
      used for the rotational entropy correction. 
 

Note: Rotational entropy computed according to Herzberg 
Infrared and Raman Spectra, Chapter V,1, Van Nostrand Reinhold, 1945 
Point Group:  C1, Symmetry Number:   1  
Rotational constants in cm-1:     0.030745     0.014810     0.010855 

Vibrational entropy computed according to the QRRHO of S. Grimme
Chem.Eur.J. 2012 18 9955


-------
ENTROPY
-------

The entropy contributions are T*S = T*(S(el)+S(vib)+S(rot)+S(trans))
     S(el)   - electronic entropy
     S(vib)  - vibrational entropy
     S(rot)  - rotational entropy
     S(trans)- translational entropy
The entropies will be listed as multiplied by the temperature to get
units of energy

Electronic entropy                ...      0.00065446 Eh      0.41 kcal/mol
Vibrational entropy               ...      0.02085425 Eh     13.09 kcal/mol
Rotational entropy                ...      0.01527862 Eh      9.59 kcal/mol
Translational entropy             ...      0.01985430 Eh     12.46 kcal/mol
-----------------------------------------------------------------------
Final entropy term                ...      0.05664163 Eh     35.54 kcal/mol

In case the symmetry of your molecule has not been determined correctly
or in case you have a reason to use a different symmetry number we print 
out the resulting rotational entropy values for sn=1,12 :
 --------------------------------------------------------
|  sn= 1 | S(rot)=       0.01527862 Eh      9.59 kcal/mol|
|  sn= 2 | S(rot)=       0.01462416 Eh      9.18 kcal/mol|
|  sn= 3 | S(rot)=       0.01424133 Eh      8.94 kcal/mol|
|  sn= 4 | S(rot)=       0.01396971 Eh      8.77 kcal/mol|
|  sn= 5 | S(rot)=       0.01375902 Eh      8.63 kcal/mol|
|  sn= 6 | S(rot)=       0.01358688 Eh      8.53 kcal/mol|
|  sn= 7 | S(rot)=       0.01344133 Eh      8.43 kcal/mol|
|  sn= 8 | S(rot)=       0.01331525 Eh      8.36 kcal/mol|
|  sn= 9 | S(rot)=       0.01320404 Eh      8.29 kcal/mol|
|  sn=10 | S(rot)=       0.01310456 Eh      8.22 kcal/mol|
|  sn=11 | S(rot)=       0.01301457 Eh      8.17 kcal/mol|
|  sn=12 | S(rot)=       0.01293242 Eh      8.12 kcal/mol|
 --------------------------------------------------------


-------------------
GIBBS FREE ENERGY
-------------------

The Gibbs free energy is G = H - T*S

Total enthalpy                    ...   -722.32480499 Eh 
Total entropy correction          ...     -0.05664163 Eh    -35.54 kcal/mol
-----------------------------------------------------------------------
Final Gibbs free energy         ...   -722.38144662 Eh

For completeness - the Gibbs free energy minus the electronic energy
G-E(el)                           ...      0.16237271 Eh    101.89 kcal/mol


Timings for individual modules:

Sum of individual times         ...     1584.413 sec (=  26.407 min)
GTO integral calculation        ...       48.480 sec (=   0.808 min)   3.1 %
SCF iterations                  ...      717.837 sec (=  11.964 min)  45.3 %
SCF Gradient evaluation         ...      190.095 sec (=   3.168 min)  12.0 %
Geometry relaxation             ...        0.586 sec (=   0.010 min)   0.0 %
Analytical frequency calculation...      627.417 sec (=  10.457 min)  39.6 %
                             ****ORCA TERMINATED NORMALLY****
TOTAL RUN TIME: 0 days 0 hours 27 minutes 6 seconds 195 msec
