
                                 *****************
                                 * O   R   C   A *
                                 *****************

                                            #,                                       
                                            ###                                      
                                            ####                                     
                                            #####                                    
                                            ######                                   
                                           ########,                                 
                                     ,,################,,,,,                         
                               ,,#################################,,                 
                          ,,##########################################,,             
                       ,#########################################, ''#####,          
                    ,#############################################,,   '####,        
                  ,##################################################,,,,####,       
                ,###########''''           ''''###############################       
              ,#####''   ,,,,##########,,,,          '''####'''          '####       
            ,##' ,,,,###########################,,,                        '##       
           ' ,,###''''                  '''############,,,                           
         ,,##''                                '''############,,,,        ,,,,,,###''
      ,#''                                            '''#######################'''  
     '                                                          ''''####''''         
             ,#######,   #######,   ,#######,      ##                                
            ,#'     '#,  ##    ##  ,#'     '#,    #''#        ######   ,####,        
            ##       ##  ##   ,#'  ##            #'  '#       #        #'  '#        
            ##       ##  #######   ##           ,######,      #####,   #    #        
            '#,     ,#'  ##    ##  '#,     ,#' ,#      #,         ##   #,  ,#        
             '#######'   ##     ##  '#######'  #'      '#     #####' # '####'        



                  #######################################################
                  #                        -***-                        #
                  #          Department of theory and spectroscopy      #
                  #    Directorship and core code : Frank Neese         #
                  #        Max Planck Institute fuer Kohlenforschung    #
                  #                Kaiser Wilhelm Platz 1               #
                  #                 D-45470 Muelheim/Ruhr               #
                  #                      Germany                        #
                  #                                                     #
                  #                  All rights reserved                #
                  #                        -***-                        #
                  #######################################################


                         Program Version 5.0.4 -  RELEASE  -


 With contributions from (in alphabetic order):
   Daniel Aravena         : Magnetic Suceptibility
   Michael Atanasov       : Ab Initio Ligand Field Theory (pilot matlab implementation)
   Alexander A. Auer      : GIAO ZORA, VPT2 properties, NMR spectrum
   Ute Becker             : Parallelization
   Giovanni Bistoni       : ED, misc. LED, open-shell LED, HFLD
   Martin Brehm           : Molecular dynamics
   Dmytro Bykov           : SCF Hessian
   Vijay G. Chilkuri      : MRCI spin determinant printing, contributions to CSF-ICE
   Dipayan Datta          : RHF DLPNO-CCSD density
   Achintya Kumar Dutta   : EOM-CC, STEOM-CC
   Dmitry Ganyushin       : Spin-Orbit,Spin-Spin,Magnetic field MRCI
   Miquel Garcia          : C-PCM and meta-GGA Hessian, CC/C-PCM, Gaussian charge scheme
   Yang Guo               : DLPNO-NEVPT2, F12-NEVPT2, CIM, IAO-localization
   Andreas Hansen         : Spin unrestricted coupled pair/coupled cluster methods
   Benjamin Helmich-Paris : MC-RPA, TRAH-SCF, COSX integrals
   Lee Huntington         : MR-EOM, pCC
   Robert Izsak           : Overlap fitted RIJCOSX, COSX-SCS-MP3, EOM
   Marcus Kettner         : VPT2
   Christian Kollmar      : KDIIS, OOCD, Brueckner-CCSD(T), CCSD density, CASPT2, CASPT2-K
   Simone Kossmann        : Meta GGA functionals, TD-DFT gradient, OOMP2, MP2 Hessian
   Martin Krupicka        : Initial AUTO-CI
   Lucas Lang             : DCDCAS
   Marvin Lechner         : AUTO-CI (C++ implementation), FIC-MRCC
   Dagmar Lenk            : GEPOL surface, SMD
   Dimitrios Liakos       : Extrapolation schemes; Compound Job, initial MDCI parallelization
   Dimitrios Manganas     : Further ROCIS development; embedding schemes
   Dimitrios Pantazis     : SARC Basis sets
   Anastasios Papadopoulos: AUTO-CI, single reference methods and gradients
   Taras Petrenko         : DFT Hessian,TD-DFT gradient, ASA, ECA, R-Raman, ABS, FL, XAS/XES, NRVS
   Peter Pinski           : DLPNO-MP2, DLPNO-MP2 Gradient
   Christoph Reimann      : Effective Core Potentials
   Marius Retegan         : Local ZFS, SOC
   Christoph Riplinger    : Optimizer, TS searches, QM/MM, DLPNO-CCSD(T), (RO)-DLPNO pert. Triples
   Tobias Risthaus        : Range-separated hybrids, TD-DFT gradient, RPA, STAB
   Michael Roemelt        : Original ROCIS implementation
   Masaaki Saitow         : Open-shell DLPNO-CCSD energy and density
   Barbara Sandhoefer     : DKH picture change effects
   Avijit Sen             : IP-ROCIS
   Kantharuban Sivalingam : CASSCF convergence, NEVPT2, FIC-MRCI
   Bernardo de Souza      : ESD, SOC TD-DFT
   Georgi Stoychev        : AutoAux, RI-MP2 NMR, DLPNO-MP2 response
   Willem Van den Heuvel  : Paramagnetic NMR
   Boris Wezisla          : Elementary symmetry handling
   Frank Wennmohs         : Technical directorship


 We gratefully acknowledge several colleagues who have allowed us to
 interface, adapt or use parts of their codes:
   Stefan Grimme, W. Hujo, H. Kruse, P. Pracht,  : VdW corrections, initial TS optimization,
                  C. Bannwarth, S. Ehlert          DFT functionals, gCP, sTDA/sTD-DF
   Ed Valeev, F. Pavosevic, A. Kumar             : LibInt (2-el integral package), F12 methods
   Garnet Chan, S. Sharma, J. Yang, R. Olivares  : DMRG
   Ulf Ekstrom                                   : XCFun DFT Library
   Mihaly Kallay                                 : mrcc  (arbitrary order and MRCC methods)
   Jiri Pittner, Ondrej Demel                    : Mk-CCSD
   Frank Weinhold                                : gennbo (NPA and NBO analysis)
   Christopher J. Cramer and Donald G. Truhlar   : smd solvation model
   Lars Goerigk                                  : TD-DFT with DH, B97 family of functionals
   V. Asgeirsson, H. Jonsson                     : NEB implementation
   FAccTs GmbH                                   : IRC, NEB, NEB-TS, DLPNO-Multilevel, CI-OPT
                                                   MM, QMMM, 2- and 3-layer-ONIOM, Crystal-QMMM,
                                                   LR-CPCM, SF, NACMEs, symmetry and pop. for TD-DFT,
                                                   nearIR, NL-DFT gradient (VV10), updates on ESD,
                                                   ML-optimized integration grids
   S Lehtola, MJT Oliveira, MAL Marques          : LibXC Library
   Liviu Ungur et al                             : ANISO software


 Your calculation uses the libint2 library for the computation of 2-el integrals
 For citations please refer to: http://libint.valeyev.net

 Your ORCA version has been built with support for libXC version: 5.1.0
 For citations please refer to: https://tddft.org/programs/libxc/

 This ORCA versions uses:
   CBLAS   interface :  Fast vector & matrix operations
   LAPACKE interface :  Fast linear algebra routines
   SCALAPACK package :  Parallel linear algebra routines
   Shared memory     :  Shared parallel matrices
   BLAS/LAPACK       :  OpenBLAS 0.3.15  USE64BITINT DYNAMIC_ARCH NO_AFFINITY Zen SINGLE_THREADED
        Core in use  :  Zen
   Copyright (c) 2011-2014, The OpenBLAS Project




***************************************
The coordinates will be read from file: model.xyz
***************************************


================================================================================

----- Orbital basis set information -----
Your calculation utilizes the basis: EPR-II
   V. Barone, in Recent Advances in Density Functional Methods, Part 1 (ed. D. P. Chong), World Scientific, Singapore, 1995, p. 287.

----- AuxJ basis set information -----
Your calculation utilizes the auxiliary basis: def2/J
   F. Weigend, Phys. Chem. Chem. Phys. 8, 1057 (2006).

================================================================================
                                        WARNINGS
                       Please study these warnings very carefully!
================================================================================


WARNING: your system is open-shell and RHF/RKS was chosen
  ===> : WILL SWITCH to UHF/UKS


WARNING: Geometry Optimization
  ===> : Switching off AutoStart
         For restart on a previous wavefunction, please use MOREAD

INFO   : the flag for use of the SHARK integral package has been found!

================================================================================
                                       INPUT FILE
================================================================================
NAME = opt.inp
|  1> ! B3LYP EPR-II OPT
|  2> %pal nprocs 16 end
|  3> *XYZFile -1 2 model.xyz
|  4> 
|  5>                          ****END OF INPUT****
================================================================================

                       *****************************
                       * Geometry Optimization Run *
                       *****************************

Geometry optimization settings:
Update method            Update   .... BFGS
Choice of coordinates    CoordSys .... Z-matrix Internals
Initial Hessian          InHess   .... Almoef's Model

Convergence Tolerances:
Energy Change            TolE     ....  5.0000e-06 Eh
Max. Gradient            TolMAXG  ....  3.0000e-04 Eh/bohr
RMS Gradient             TolRMSG  ....  1.0000e-04 Eh/bohr
Max. Displacement        TolMAXD  ....  4.0000e-03 bohr
RMS Displacement         TolRMSD  ....  2.0000e-03 bohr
Strict Convergence                ....  False
------------------------------------------------------------------------------
                        ORCA OPTIMIZATION COORDINATE SETUP
------------------------------------------------------------------------------

The optimization will be done in new redundant internal coordinates
Making redundant internal coordinates   ...  (new redundants) done
Evaluating the initial hessian          ...  (Almloef) done
Evaluating the coordinates              ...  done
Calculating the B-matrix                .... done
Calculating the G-matrix                .... done
Diagonalizing the G-matrix              .... done
Small eigenvalue found = 7.149e-03
Small eigenvalue found = 1.218e-02
Small eigenvalue found = 1.986e-02
The first mode is                       ....   45
The number of degrees of freedom        ....   72

    -----------------------------------------------------------------
                    Redundant Internal Coordinates


    -----------------------------------------------------------------
         Definition                    Initial Value    Approx d2E/dq
    -----------------------------------------------------------------
      1. B(C   1,N   0)                  1.4643         0.425874   
      2. B(C   2,C   1)                  1.5529         0.343378   
      3. B(O   3,C   2)                  1.2304         1.005613   
      4. B(C   4,C   1)                  1.5083         0.404603   
      5. B(H   5,C   4)                  1.0878         0.362994   
      6. B(C   6,C   4)                  1.4920         0.429520   
      7. B(H   7,C   6)                  1.0974         0.350407   
      8. B(H   8,C   6)                  1.1005         0.346518   
      9. B(C   9,C   6)                  1.5938         0.295516   
     10. B(O  10,C   9)                  1.2584         0.907511   
     11. B(O  11,C   9)                  1.2308         1.004478   
     12. B(H  12,N   0)                  1.0124         0.428953   
     13. B(C  13,N   0)                  1.3481         0.652824   
     14. B(N  14,C   2)                  1.3327         0.690604   
     15. B(H  15,N  14)                  1.0501         0.373418   
     16. B(O  16,C  13)                  1.2193         1.047602   
     17. B(C  17,C  13)                  1.5294         0.374423   
     18. B(H  18,C  17)                  1.0961         0.352143   
     19. B(H  19,C  17)                  1.0963         0.351811   
     20. B(H  20,C  17)                  1.0953         0.353172   
     21. B(C  21,N  14)                  1.4469         0.454034   
     22. B(H  22,C  21)                  1.0986         0.348865   
     23. B(H  23,C  21)                  1.0945         0.354168   
     24. B(H  24,C  21)                  1.0993         0.347953   
     25. B(H  25,C   1)                  1.1007         0.346158   
     26. A(C   1,N   0,H  12)          114.0447         0.336204   
     27. A(C   1,N   0,C  13)          122.7493         0.404412   
     28. A(H  12,N   0,C  13)          120.2576         0.361298   
     29. A(C   4,C   1,H  25)          108.1791         0.326475   
     30. A(N   0,C   1,H  25)          107.1946         0.327268   
     31. A(N   0,C   1,C   4)          113.2739         0.374392   
     32. A(N   0,C   1,C   2)          105.6198         0.363988   
     33. A(C   2,C   1,C   4)          115.7164         0.363072   
     34. A(C   2,C   1,H  25)          106.3492         0.317818   
     35. A(O   3,C   2,N  14)          124.0894         0.477031   
     36. A(C   1,C   2,N  14)          115.4370         0.395784   
     37. A(C   1,C   2,O   3)          120.4237         0.423019   
     38. A(H   5,C   4,C   6)          118.5236         0.332311   
     39. A(C   1,C   4,H   5)          115.9346         0.329042   
     40. A(C   1,C   4,C   6)          125.5130         0.377315   
     41. A(H   8,C   6,C   9)          106.7542         0.310226   
     42. A(H   7,C   6,C   9)          105.9735         0.310786   
     43. A(C   4,C   6,C   9)          113.4907         0.357525   
     44. A(H   7,C   6,H   8)          107.8591         0.287859   
     45. A(C   4,C   6,H   8)          111.1120         0.329766   
     46. A(C   4,C   6,H   7)          111.3157         0.330375   
     47. A(C   6,C   9,O  11)          116.1658         0.411779   
     48. A(C   6,C   9,O  10)          115.3580         0.404447   
     49. A(O  10,C   9,O  11)          128.4657         0.501671   
     50. A(O  16,C  13,C  17)          120.7807         0.432795   
     51. A(N   0,C  13,C  17)          115.3545         0.397895   
     52. A(N   0,C  13,O  16)          123.8622         0.475685   
     53. A(C   2,N  14,H  15)          120.7073         0.356267   
     54. A(H  15,N  14,C  21)          116.3304         0.332064   
     55. A(C   2,N  14,C  21)          119.9766         0.413117   
     56. A(H  19,C  17,H  20)          109.5449         0.288898   
     57. A(H  18,C  17,H  20)          109.3932         0.288940   
     58. A(C  13,C  17,H  20)          113.2899         0.323407   
     59. A(H  18,C  17,H  19)          107.8668         0.288766   
     60. A(C  13,C  17,H  19)          108.4402         0.323202   
     61. A(C  13,C  17,H  18)          108.1565         0.323252   
     62. A(H  23,C  21,H  24)          109.3613         0.288526   
     63. A(H  22,C  21,H  24)          107.6465         0.287846   
     64. A(N  14,C  21,H  24)          111.4551         0.331030   
     65. A(H  22,C  21,H  23)          109.5641         0.288645   
     66. A(N  14,C  21,H  23)          107.8261         0.332001   
     67. A(N  14,C  21,H  22)          110.9735         0.331173   
     68. D(H  25,C   1,N   0,C  13)    -44.7070         0.015463   
     69. D(C   4,C   1,N   0,H  12)   -124.8914         0.015463   
     70. D(C   2,C   1,N   0,H  12)      2.7503         0.015463   
     71. D(H  25,C   1,N   0,H  12)    115.8589         0.015463   
     72. D(C   4,C   1,N   0,C  13)     74.5427         0.015463   
     73. D(C   2,C   1,N   0,C  13)   -157.8156         0.015463   
     74. D(O   3,C   2,C   1,N   0)     16.7821         0.008942   
     75. D(N  14,C   2,C   1,N   0)   -165.6839         0.008942   
     76. D(O   3,C   2,C   1,H  25)    -96.9152         0.008942   
     77. D(N  14,C   2,C   1,C   4)    -39.5246         0.008942   
     78. D(N  14,C   2,C   1,H  25)     80.6188         0.008942   
     79. D(O   3,C   2,C   1,C   4)    142.9414         0.008942   
     80. D(H   5,C   4,C   1,C   2)    145.9045         0.012137   
     81. D(H   5,C   4,C   1,H  25)     26.7605         0.012137   
     82. D(H   5,C   4,C   1,N   0)    -91.9220         0.012137   
     83. D(C   6,C   4,C   1,H  25)   -155.2281         0.012137   
     84. D(C   6,C   4,C   1,C   2)    -36.0841         0.012137   
     85. D(C   6,C   4,C   1,N   0)     86.0894         0.012137   
     86. D(C   9,C   6,C   4,H   5)    -69.8075         0.013626   
     87. D(C   9,C   6,C   4,C   1)    112.2279         0.013626   
     88. D(H   8,C   6,C   4,H   5)    169.8784         0.013626   
     89. D(H   8,C   6,C   4,C   1)     -8.0862         0.013626   
     90. D(H   7,C   6,C   4,H   5)     49.6437         0.013626   
     91. D(H   7,C   6,C   4,C   1)   -128.3208         0.013626   
     92. D(O  11,C   9,C   6,H   8)    -98.7795         0.006882   
     93. D(O  11,C   9,C   6,H   7)     16.0113         0.006882   
     94. D(O  11,C   9,C   6,C   4)    138.4693         0.006882   
     95. D(O  10,C   9,C   6,H   8)     80.1460         0.006882   
     96. D(O  10,C   9,C   6,H   7)   -165.0632         0.006882   
     97. D(O  10,C   9,C   6,C   4)    -42.6052         0.006882   
     98. D(O  16,C  13,N   0,C   1)     -5.8667         0.034807   
     99. D(C  17,C  13,N   0,H  12)     15.3007         0.034807   
    100. D(C  17,C  13,N   0,C   1)    174.7048         0.034807   
    101. D(O  16,C  13,N   0,H  12)   -165.2708         0.034807   
    102. D(C  21,N  14,C   2,O   3)     -2.5889         0.039362   
    103. D(C  21,N  14,C   2,C   1)    179.9788         0.039362   
    104. D(H  15,N  14,C   2,O   3)   -162.3286         0.039362   
    105. D(H  15,N  14,C   2,C   1)     20.2391         0.039362   
    106. D(H  20,C  17,C  13,O  16)   -177.9681         0.010481   
    107. D(H  20,C  17,C  13,N   0)      1.4796         0.010481   
    108. D(H  19,C  17,C  13,O  16)     60.1974         0.010481   
    109. D(H  19,C  17,C  13,N   0)   -120.3550         0.010481   
    110. D(H  18,C  17,C  13,O  16)    -56.5274         0.010481   
    111. D(H  18,C  17,C  13,N   0)    122.9203         0.010481   
    112. D(H  24,C  21,N  14,H  15)    106.3016         0.017590   
    113. D(H  24,C  21,N  14,C   2)    -54.2962         0.017590   
    114. D(H  23,C  21,N  14,H  15)    -13.7347         0.017590   
    115. D(H  23,C  21,N  14,C   2)   -174.3325         0.017590   
    116. D(H  22,C  21,N  14,H  15)   -133.7330         0.017590   
    117. D(H  22,C  21,N  14,C   2)     65.6692         0.017590   
    -----------------------------------------------------------------

Number of atoms                         .... 26
Number of degrees of freedom            .... 117

         *************************************************************
         *                GEOMETRY OPTIMIZATION CYCLE   1            *
         *************************************************************
---------------------------------
CARTESIAN COORDINATES (ANGSTROEM)
---------------------------------
  N     -3.925235   -0.082611    0.036607
  C     -2.466301   -0.036750   -0.080355
  C     -1.926785   -0.145372    1.371802
  O     -2.655007   -0.547036    2.278643
  C     -1.969081    1.143739   -0.876676
  H     -1.830250    0.974339   -1.942220
  C     -1.700809    2.506212   -0.330967
  H     -2.210850    3.279282   -0.919666
  H     -2.047069    2.591472    0.710119
  C     -0.156282    2.899447   -0.335112
  O      0.632154    1.990899    0.034283
  O      0.109538    4.051472   -0.677073
  H     -4.261397   -0.126491    0.990529
  C     -4.727548   -0.446479   -0.983758
  N     -0.642083    0.171784    1.530390
  H     -0.142516    0.758356    0.816874
  O     -4.329907   -0.668576   -2.114809
  C     -6.213873   -0.557149   -0.640827
  H     -6.769476    0.109256   -1.310608
  H     -6.540504   -1.584301   -0.841401
  H     -6.438843   -0.297594    0.399209
  C     -0.037785    0.105326    2.843379
  H     -0.003144   -0.930324    3.208361
  H      0.979924    0.500268    2.764211
  H     -0.602846    0.698344    3.576581
  H     -2.152220   -0.956466   -0.597196

----------------------------
CARTESIAN COORDINATES (A.U.)
----------------------------
  NO LB      ZA    FRAG     MASS         X           Y           Z
   0 N     7.0000    0    14.007   -7.417619   -0.156112    0.069178
   1 C     6.0000    0    12.011   -4.660633   -0.069448   -0.151849
   2 C     6.0000    0    12.011   -3.641097   -0.274713    2.592329
   3 O     8.0000    0    15.999   -5.017236   -1.033748    4.306011
   4 C     6.0000    0    12.011   -3.721025    2.161354   -1.656678
   5 H     1.0000    0     1.008   -3.458671    1.841234   -3.670264
   6 C     6.0000    0    12.011   -3.214063    4.736055   -0.625437
   7 H     1.0000    0     1.008   -4.177902    6.196945   -1.737918
   8 H     1.0000    0     1.008   -3.868400    4.897173    1.341930
   9 C     6.0000    0    12.011   -0.295331    5.479161   -0.633270
  10 O     8.0000    0    15.999    1.194597    3.762253    0.064785
  11 O     8.0000    0    15.999    0.206996    7.656172   -1.279483
  12 H     1.0000    0     1.008   -8.052874   -0.239033    1.871829
  13 C     6.0000    0    12.011   -8.933772   -0.843723   -1.859033
  14 N     7.0000    0    14.007   -1.213362    0.324624    2.892018
  15 H     1.0000    0     1.008   -0.269317    1.433085    1.543669
  16 O     8.0000    0    15.999   -8.182339   -1.263426   -3.996410
  17 C     6.0000    0    12.011  -11.742519   -1.052859   -1.210988
  18 H     1.0000    0     1.008  -12.792456    0.206463   -2.476691
  19 H     1.0000    0     1.008  -12.359762   -2.993894   -1.590018
  20 H     1.0000    0     1.008  -12.167650   -0.562370    0.754396
  21 C     6.0000    0    12.011   -0.071403    0.199038    5.373207
  22 H     1.0000    0     1.008   -0.005941   -1.758058    6.062924
  23 H     1.0000    0     1.008    1.851788    0.945369    5.223601
  24 H     1.0000    0     1.008   -1.139214    1.319679    6.758759
  25 H     1.0000    0     1.008   -4.067106   -1.807458   -1.128536

--------------------------------
INTERNAL COORDINATES (ANGSTROEM)
--------------------------------
 N      0   0   0     0.000000000000     0.00000000     0.00000000
 C      1   0   0     1.464333318780     0.00000000     0.00000000
 C      2   1   0     1.552943594828   105.61981131     0.00000000
 O      3   2   1     1.230447681412   120.42366442    16.78205895
 C      2   1   3     1.508280697594   113.27387745   232.35834253
 H      5   2   1     1.087821043907   115.93462993   268.07798070
 C      5   2   1     1.492012721013   125.51303706    86.08935608
 H      7   5   2     1.097427324568   111.31573100   231.67917524
 H      7   5   2     1.100465824211   111.11199497   351.91379672
 C      7   5   2     1.593804447898   113.49074192   112.22792596
 O     10   7   5     1.258389443946   115.35802706   317.39483329
 O     10   7   5     1.230755133533   116.16578806   138.46933454
 H      1   2   3     1.012372276209   114.04474873     2.75029220
 C      1   2   3     1.348055010597   122.74934760   202.18438061
 N      3   2   1     1.332740490945   115.43700919   194.31608378
 H     15   3   2     1.050113939410   120.70734450    20.23907404
 O     14   1   2     1.219312580877   123.86224275   354.13334272
 C     14   1   2     1.529382378568   115.35453031   174.70481205
 H     18  14   1     1.096082179375   108.15651900   122.92028294
 H     18  14   1     1.096338769430   108.44019753   239.64504653
 H     18  14   1     1.095287979772   113.28994150     1.47959041
 C     15   3   2     1.446904328894   119.97658123   179.97878958
 H     22  15   3     1.098628433659   110.97345104    65.66919065
 H     22  15   3     1.094521656706   107.82609626   185.66746846
 H     22  15   3     1.099340590235   111.45506386   305.70379680
 H      2   1   3     1.100748386552   107.19461232   113.10861254

---------------------------
INTERNAL COORDINATES (A.U.)
---------------------------
 N      0   0   0     0.000000000000     0.00000000     0.00000000
 C      1   0   0     2.767188941270     0.00000000     0.00000000
 C      2   1   0     2.934638095652   105.61981131     0.00000000
 O      3   2   1     2.325209139988   120.42366442    16.78205895
 C      2   1   3     2.850237451531   113.27387745   232.35834253
 H      5   2   1     2.055683855701   115.93462993   268.07798070
 C      5   2   1     2.819495431042   125.51303706    86.08935608
 H      7   5   2     2.073837095315   111.31573100   231.67917524
 H      7   5   2     2.079579027498   111.11199497   351.91379672
 C      7   5   2     3.011853917553   113.49074192   112.22792596
 O     10   7   5     2.378011418875   115.35802706   317.39483329
 O     10   7   5     2.325790140296   116.16578806   138.46933454
 H      1   2   3     1.913106347610   114.04474873     2.75029220
 C      1   2   3     2.547454783489   122.74934760   202.18438061
 N      3   2   1     2.518514535475   115.43700919   194.31608378
 H     15   3   2     1.984427754899   120.70734450    20.23907404
 O     14   1   2     2.304166849502   123.86224275   354.13334272
 C     14   1   2     2.890113849539   115.35453031   174.70481205
 H     18  14   1     2.071295139291   108.15651900   122.92028294
 H     18  14   1     2.071780024223   108.44019753   239.64504653
 H     18  14   1     2.069794319545   113.28994150     1.47959041
 C     15   3   2     2.734252923595   119.97658123   179.97878958
 H     22  15   3     2.076106862554   110.97345104    65.66919065
 H     22  15   3     2.068346178820   107.82609626   185.66746846
 H     22  15   3     2.077452643448   111.45506386   305.70379680
 H      2   1   3     2.080112992938   107.19461232   113.10861254

---------------------
BASIS SET INFORMATION
---------------------
There are 4 groups of distinct atoms

 Group   1 Type N   : 10s5p1d contracted to 6s2p1d pattern {511111/41/1}
 Group   2 Type C   : 10s5p1d contracted to 6s2p1d pattern {511111/41/1}
 Group   3 Type O   : 10s5p1d contracted to 6s2p1d pattern {511111/41/1}
 Group   4 Type H   : 6s1p contracted to 4s1p pattern {3111/1}

Atom   0N    basis set group =>   1
Atom   1C    basis set group =>   2
Atom   2C    basis set group =>   2
Atom   3O    basis set group =>   3
Atom   4C    basis set group =>   2
Atom   5H    basis set group =>   4
Atom   6C    basis set group =>   2
Atom   7H    basis set group =>   4
Atom   8H    basis set group =>   4
Atom   9C    basis set group =>   2
Atom  10O    basis set group =>   3
Atom  11O    basis set group =>   3
Atom  12H    basis set group =>   4
Atom  13C    basis set group =>   2
Atom  14N    basis set group =>   1
Atom  15H    basis set group =>   4
Atom  16O    basis set group =>   3
Atom  17C    basis set group =>   2
Atom  18H    basis set group =>   4
Atom  19H    basis set group =>   4
Atom  20H    basis set group =>   4
Atom  21C    basis set group =>   2
Atom  22H    basis set group =>   4
Atom  23H    basis set group =>   4
Atom  24H    basis set group =>   4
Atom  25H    basis set group =>   4
---------------------------------
AUXILIARY/J BASIS SET INFORMATION
---------------------------------
There are 4 groups of distinct atoms

 Group   1 Type N   : 12s5p4d2f1g contracted to 6s4p3d1f1g pattern {711111/2111/211/2/1}
 Group   2 Type C   : 12s5p4d2f1g contracted to 6s4p3d1f1g pattern {711111/2111/211/2/1}
 Group   3 Type O   : 12s5p4d2f1g contracted to 6s4p3d1f1g pattern {711111/2111/211/2/1}
 Group   4 Type H   : 5s2p1d contracted to 3s1p1d pattern {311/2/1}

Atom   0N    basis set group =>   1
Atom   1C    basis set group =>   2
Atom   2C    basis set group =>   2
Atom   3O    basis set group =>   3
Atom   4C    basis set group =>   2
Atom   5H    basis set group =>   4
Atom   6C    basis set group =>   2
Atom   7H    basis set group =>   4
Atom   8H    basis set group =>   4
Atom   9C    basis set group =>   2
Atom  10O    basis set group =>   3
Atom  11O    basis set group =>   3
Atom  12H    basis set group =>   4
Atom  13C    basis set group =>   2
Atom  14N    basis set group =>   1
Atom  15H    basis set group =>   4
Atom  16O    basis set group =>   3
Atom  17C    basis set group =>   2
Atom  18H    basis set group =>   4
Atom  19H    basis set group =>   4
Atom  20H    basis set group =>   4
Atom  21C    basis set group =>   2
Atom  22H    basis set group =>   4
Atom  23H    basis set group =>   4
Atom  24H    basis set group =>   4
Atom  25H    basis set group =>   4


           ************************************************************
           *        Program running with 16 parallel MPI-processes    *
           *              working on a common directory               *
           ************************************************************
------------------------------------------------------------------------------
                           ORCA GTO INTEGRAL CALCULATION
                           -- RI-GTO INTEGRALS CHOSEN --
------------------------------------------------------------------------------
------------------------------------------------------------------------------
                   ___                                                        
                  /   \      - P O W E R E D   B Y -                         
                 /     \                                                     
                 |  |  |   _    _      __       _____    __    __             
                 |  |  |  | |  | |    /  \     |  _  \  |  |  /  |          
                  \  \/   | |  | |   /    \    | | | |  |  | /  /          
                 / \  \   | |__| |  /  /\  \   | |_| |  |  |/  /          
                |  |  |   |  __  | /  /__\  \  |    /   |      \           
                |  |  |   | |  | | |   __   |  |    \   |  |\   \          
                \     /   | |  | | |  |  |  |  | |\  \  |  | \   \       
                 \___/    |_|  |_| |__|  |__|  |_| \__\ |__|  \__/        
                                                                              
                      - O R C A' S   B I G   F R I E N D -                    
                                      &                                       
                       - I N T E G R A L  F E E D E R -                       
                                                                              
 v1 FN, 2020, v2 2021                                                         
------------------------------------------------------------------------------


Reading SHARK input file opt.SHARKINP.tmp ... ok
----------------------
SHARK INTEGRAL PACKAGE
----------------------

Number of atoms                             ...     26
Number of basis functions                   ...    322
Number of shells                            ...    186
Maximum angular momentum                    ...      2
Integral batch strategy                     ... SHARK/LIBINT Hybrid
RI-J (if used) integral strategy            ... SPLIT-RIJ (Revised 2003 algorithm where possible)
Printlevel                                  ...      1
Contraction scheme used                     ... SEGMENTED contraction
Coulomb Range Separation                    ... NOT USED
Exchange Range Separation                   ... NOT USED
Finite Nucleus Model                        ... NOT USED
Auxiliary Coulomb fitting basis             ... AVAILABLE
   # of basis functions in Aux-J            ...    818
   # of shells in Aux-J                     ...    270
   Maximum angular momentum in Aux-J        ...      4
Auxiliary J/K fitting basis                 ... NOT available
Auxiliary Correlation fitting basis         ... NOT available
Auxiliary 'external' fitting basis          ... NOT available
Integral threshold                          ...     2.500000e-11
Primitive cut-off                           ...     2.500000e-12
Primitive pair pre-selection threshold      ...     2.500000e-12

Calculating pre-screening integrals         ... done (  0.0 sec) Dimension = 186
Organizing shell pair data                  ... done (  0.0 sec)
Shell pair information
Total number of shell pairs                 ...     17391
Shell pairs after pre-screening             ...     12370
Total number of primitive shell pairs       ...     47846
Primitive shell pairs kept                  ...     24707
          la=0 lb=0:   5578 shell pairs
          la=1 lb=0:   4207 shell pairs
          la=1 lb=1:    733 shell pairs
          la=2 lb=0:   1292 shell pairs
          la=2 lb=1:    477 shell pairs
          la=2 lb=2:     83 shell pairs

Calculating one electron integrals          ... done (  0.0 sec)
Calculating RI/J V-Matrix + Cholesky decomp.... done (  0.0 sec)
Calculating Nuclear repulsion               ... done (  0.0 sec) ENN=    912.321885081990 Eh

SHARK setup successfully completed in   0.2 seconds

Maximum memory used throughout the entire GTOINT-calculation: 19.3 MB


           ************************************************************
           *        Program running with 16 parallel MPI-processes    *
           *              working on a common directory               *
           ************************************************************
-------------------------------------------------------------------------------
                                 ORCA SCF
-------------------------------------------------------------------------------

------------
SCF SETTINGS
------------
Hamiltonian:
 Density Functional     Method          .... DFT(GTOs)
 Exchange Functional    Exchange        .... B88
   X-Alpha parameter    XAlpha          ....  0.666667
   Becke's b parameter  XBeta           ....  0.004200
 Correlation Functional Correlation     .... LYP
 LDA part of GGA corr.  LDAOpt          .... VWN-5
 Gradients option       PostSCFGGA      .... off
 Hybrid DFT is turned on
   Fraction HF Exchange ScalHFX         ....  0.200000
   Scaling of DF-GGA-X  ScalDFX         ....  0.720000
   Scaling of DF-GGA-C  ScalDFC         ....  0.810000
   Scaling of DF-LDA-C  ScalLDAC        ....  1.000000
   Perturbative correction              ....  0.000000
   Density functional embedding theory  .... OFF
   NL short-range parameter             ....  4.800000
 RI-approximation to the Coulomb term is turned on
   Number of AuxJ basis functions       .... 818
   RIJ-COSX (HFX calculated with COS-X)).... on


General Settings:
 Integral files         IntName         .... opt
 Hartree-Fock type      HFTyp           .... UHF
 Total Charge           Charge          ....   -1
 Multiplicity           Mult            ....    2
 Number of Electrons    NEL             ....  107
 Basis Dimension        Dim             ....  322
 Nuclear Repulsion      ENuc            ....    912.3218850820 Eh

Convergence Acceleration:
 DIIS                   CNVDIIS         .... on
   Start iteration      DIISMaxIt       ....    12
   Startup error        DIISStart       ....  0.200000
   # of expansion vecs  DIISMaxEq       ....     5
   Bias factor          DIISBfac        ....   1.050
   Max. coefficient     DIISMaxC        ....  10.000
 Trust-Rad. Augm. Hess. CNVTRAH         .... auto
   Auto Start mean grad. ratio tolernc. ....  1.125000
   Auto Start start iteration           ....    20
   Auto Start num. interpolation iter.  ....    10
   Max. Number of Micro iterations      ....    16
   Max. Number of Macro iterations      .... Maxiter - #DIIS iter
   Number of Davidson start vectors     ....     2
   Converg. threshold I  (grad. norm)   ....   1.000e-05
   Converg. threshold II (energy diff.) ....   1.000e-08
   Grad. Scal. Fac. for Micro threshold ....   0.100
   Minimum threshold for Micro iter.    ....   0.010
   NR start threshold (gradient norm)   ....   0.001
   Initial trust radius                 ....   0.400
   Minimum AH scaling param. (alpha)    ....   1.000
   Maximum AH scaling param. (alpha)    .... 1000.000
   Orbital update algorithm             .... Taylor
   White noise on init. David. guess    .... on
   Maximum white noise                  ....   0.010
   Quad. conv. algorithm                .... NR
 SOSCF                  CNVSOSCF        .... off
 Level Shifting         CNVShift        .... on
   Level shift para.    LevelShift      ....    0.2500
   Turn off err/grad.   ShiftErr        ....    0.0010
 Zerner damping         CNVZerner       .... off
 Static damping         CNVDamp         .... on
   Fraction old density DampFac         ....    0.7000
   Max. Damping (<1)    DampMax         ....    0.9800
   Min. Damping (>=0)   DampMin         ....    0.0000
   Turn off err/grad.   DampErr         ....    0.1000
 Fernandez-Rico         CNVRico         .... off

SCF Procedure:
 Maximum # iterations   MaxIter         ....   125
 SCF integral mode      SCFMode         .... Direct
   Integral package                     .... SHARK and LIBINT hybrid scheme
 Reset frequency        DirectResetFreq ....    20
 Integral Threshold     Thresh          ....  2.500e-11 Eh
 Primitive CutOff       TCut            ....  2.500e-12 Eh

Convergence Tolerance:
 Convergence Check Mode ConvCheckMode   .... Total+1el-Energy
 Convergence forced     ConvForced      .... 0
 Energy Change          TolE            ....  1.000e-08 Eh
 1-El. energy change                    ....  1.000e-05 Eh
 DIIS Error             TolErr          ....  5.000e-07


Diagonalization of the overlap matrix:
Smallest eigenvalue                        ... 7.398e-04
Time for diagonalization                   ...    0.011 sec
Threshold for overlap eigenvalues          ... 1.000e-08
Number of eigenvalues below threshold      ... 0
Time for construction of square roots      ...    0.008 sec
Total time needed                          ...    0.020 sec

Time for model grid setup =    0.106 sec

------------------------------
INITIAL GUESS: MODEL POTENTIAL
------------------------------
Loading Hartree-Fock densities                     ... done
Calculating cut-offs                               ... done
Initializing the effective Hamiltonian             ... done
Setting up the integral package (SHARK)            ... done
Starting the Coulomb interaction                   ... done (   0.0 sec)
Reading the grid                                   ... done
Mapping shells                                     ... done
Starting the XC term evaluation                    ... done (   0.0 sec)
  promolecular density results
     # of electrons  =    105.990954574
     EX              =    -90.591173844
     EC              =     -3.649827135
     EX+EC           =    -94.241000978
Transforming the Hamiltonian                       ... done (   0.0 sec)
Diagonalizing the Hamiltonian                      ... done (   0.0 sec)
Back transforming the eigenvectors                 ... done (   0.0 sec)
Now organizing SCF variables                       ... done
                      ------------------
                      INITIAL GUESS DONE (   0.3 sec)
                      ------------------
-------------------
DFT GRID GENERATION
-------------------

General Integration Accuracy     IntAcc      ... 4.388
Radial Grid Type                 RadialGrid  ... OptM3 with GC (2021)
Angular Grid (max. ang.)         AngularGrid ... 4 (Lebedev-302)
Angular grid pruning method      GridPruning ... 4 (adaptive)
Weight generation scheme         WeightScheme... Becke
Basis function cutoff            BFCut       ... 1.0000e-11
Integration weight cutoff        WCut        ... 1.0000e-14
Angular grids for H and He will be reduced by one unit
Partially contracted basis set               ... off
Rotationally invariant grid construction     ... off

Total number of grid points                  ...   122638
Total number of batches                      ...     1927
Average number of points per batch           ...       63
Average number of grid points per atom       ...     4717
Time for grid setup =    0.526 sec

--------------------
COSX GRID GENERATION
--------------------

GRIDX 1
-------
General Integration Accuracy     IntAcc      ... 3.816
Radial Grid Type                 RadialGrid  ... OptM3 with GC (2021)
Angular Grid (max. ang.)         AngularGrid ... 1 (Lebedev-50)
Angular grid pruning method      GridPruning ... 4 (adaptive)
Weight generation scheme         WeightScheme... Becke
Basis function cutoff            BFCut       ... 1.0000e-11
Integration weight cutoff        WCut        ... 1.0000e-14
Angular grids for H and He will be reduced by one unit
Partially contracted basis set               ... on
Rotationally invariant grid construction     ... off

Total number of grid points                  ...    15615
Total number of batches                      ...      257
Average number of points per batch           ...       60
Average number of grid points per atom       ...      601
UseSFitting                                  ... on

GRIDX 2
-------
General Integration Accuracy     IntAcc      ... 4.020
Radial Grid Type                 RadialGrid  ... OptM3 with GC (2021)
Angular Grid (max. ang.)         AngularGrid ... 2 (Lebedev-110)
Angular grid pruning method      GridPruning ... 4 (adaptive)
Weight generation scheme         WeightScheme... Becke
Basis function cutoff            BFCut       ... 1.0000e-11
Integration weight cutoff        WCut        ... 1.0000e-14
Angular grids for H and He will be reduced by one unit
Partially contracted basis set               ... on
Rotationally invariant grid construction     ... off

Total number of grid points                  ...    33968
Total number of batches                      ...      543
Average number of points per batch           ...       62
Average number of grid points per atom       ...     1306
UseSFitting                                  ... on

GRIDX 3
-------
General Integration Accuracy     IntAcc      ... 4.338
Radial Grid Type                 RadialGrid  ... OptM3 with GC (2021)
Angular Grid (max. ang.)         AngularGrid ... 3 (Lebedev-194)
Angular grid pruning method      GridPruning ... 4 (adaptive)
Weight generation scheme         WeightScheme... Becke
Basis function cutoff            BFCut       ... 1.0000e-11
Integration weight cutoff        WCut        ... 1.0000e-14
Angular grids for H and He will be reduced by one unit
Partially contracted basis set               ... on
Rotationally invariant grid construction     ... off

Total number of grid points                  ...    74470
Total number of batches                      ...     1179
Average number of points per batch           ...       63
Average number of grid points per atom       ...     2864
UseSFitting                                  ... on

Time for X-Grid setup             =    0.622 sec

--------------
SCF ITERATIONS
--------------
ITER       Energy         Delta-E        Max-DP      RMS-DP      [F,P]     Damp
               ***  Starting incremental Fock matrix formation  ***
  0   -721.7364375969   0.000000000000 0.06292554  0.00119190  0.1364590 0.7000
  1   -722.0109900123  -0.274552415383 0.04340176  0.00086336  0.0565680 0.7000
                               ***Turning on DIIS***
  2   -722.1075633128  -0.096573300555 0.08789599  0.00140575  0.0191697 0.0000
  3   -722.2704768388  -0.162913525979 0.03387939  0.00060810  0.0317357 0.0000
  4   -722.3034845785  -0.033007739654 0.01723854  0.00022539  0.0063774 0.0000
  5   -722.3059004882  -0.002415909711 0.00847614  0.00009034  0.0031931 0.0000
  6   -722.3061439343  -0.000243446093 0.00727597  0.00007386  0.0008515 0.0000
               *** Restarting incremental Fock matrix formation ***
                                   *** Resetting DIIS ***
  7   -722.3061722264  -0.000028292166 0.00224531  0.00003290  0.0008562 0.0000
  8   -722.3061376495   0.000034576896 0.00098487  0.00001277  0.0016576 0.0000
  9   -722.3061875650  -0.000049915469 0.00059643  0.00000883  0.0003882 0.0000
 10   -722.3061922187  -0.000004653736 0.00032538  0.00000326  0.0001196 0.0000
 11   -722.3061924765  -0.000000257791 0.00013327  0.00000161  0.0001052 0.0000
 12   -722.3061926610  -0.000000184440 0.00007469  0.00000074  0.0000525 0.0000
 13   -722.3061926852  -0.000000024270 0.00003129  0.00000041  0.0000293 0.0000
 14   -722.3061927054  -0.000000020212 0.00000803  0.00000011  0.0000050 0.0000
 15   -722.3061927013   0.000000004103 0.00000620  0.00000008  0.0000045 0.0000
 16   -722.3061926926   0.000000008706 0.00000211  0.00000003  0.0000017 0.0000
 17   -722.3061926818   0.000000010823 0.00000215  0.00000002  0.0000015 0.0000
                 **** Energy Check signals convergence ****

               *****************************************************
               *                     SUCCESS                       *
               *           SCF CONVERGED AFTER  18 CYCLES          *
               *****************************************************

Old exchange energy                            =    -18.414690460 Eh
New exchange energy                            =    -18.414730233 Eh
Exchange energy change after final integration =     -0.000039773 Eh
Total energy after final integration           =   -722.306232462 Eh
Final COS-X integration done in                =     1.762 sec

----------------
TOTAL SCF ENERGY
----------------

Total Energy       :         -722.30623246 Eh          -19654.95182 eV

Components:
Nuclear Repulsion  :          912.32188508 Eh           24825.54060 eV
Electronic Energy  :        -1634.62811754 Eh          -44480.49242 eV
One Electron Energy:        -2812.26362081 Eh          -76525.58361 eV
Two Electron Energy:         1177.63550327 Eh           32045.09118 eV
Max COSX asymmetry :            0.00000135 Eh               0.00004 eV

Virial components:
Potential Energy   :        -1440.16550252 Eh          -39188.89565 eV
Kinetic Energy     :          717.85927005 Eh           19533.94382 eV
Virial Ratio       :            2.00619476


DFT components:
N(Alpha)           :       54.000037744344 electrons
N(Beta)            :       53.000037675297 electrons
N(Total)           :      107.000075419640 electrons
E(X)               :      -73.244436419660 Eh       
E(C)               :       -4.329821527264 Eh       
E(XC)              :      -77.574257946923 Eh       
DFET-embed. en.    :        0.000000000000 Eh       

---------------
SCF CONVERGENCE
---------------

  Last Energy change         ...   -7.5175e-09  Tolerance :   1.0000e-08
  Last MAX-Density change    ...    0.0000e+00  Tolerance :   1.0000e-07
  Last RMS-Density change    ...    0.0000e+00  Tolerance :   5.0000e-09
  Last DIIS Error            ...    9.3645e-07  Tolerance :   5.0000e-07

             **** THE GBW FILE WAS UPDATED (opt.gbw) ****
             **** DENSITY opt.scfp WAS UPDATED ****
             **** ENERGY FILE WAS UPDATED (opt.en.tmp) ****
----------------------
UHF SPIN CONTAMINATION
----------------------

Warning: in a DFT calculation there is little theoretical justification to 
         calculate <S**2> as in Hartree-Fock theory. We will do it anyways
         but you should keep in mind that the values have only limited relevance

Expectation value of <S**2>     :     0.754513
Ideal value S*(S+1) for S=0.5   :     0.750000
Deviation                       :     0.004513

             **** THE GBW FILE WAS UPDATED (opt.gbw) ****
             **** DENSITY opt.scfp WAS UPDATED ****
----------------
ORBITAL ENERGIES
----------------
                 SPIN UP ORBITALS
  NO   OCC          E(Eh)            E(eV) 
   0   1.0000     -18.997075      -516.9367 
   1   1.0000     -18.994188      -516.8581 
   2   1.0000     -18.931314      -515.1473 
   3   1.0000     -18.925999      -515.0026 
   4   1.0000     -14.239683      -387.4815 
   5   1.0000     -14.215935      -386.8353 
   6   1.0000     -10.182737      -277.0864 
   7   1.0000     -10.168189      -276.6905 
   8   1.0000     -10.122938      -275.4591 
   9   1.0000     -10.116935      -275.2958 
  10   1.0000     -10.097786      -274.7747 
  11   1.0000     -10.096504      -274.7399 
  12   1.0000     -10.065349      -273.8921 
  13   1.0000     -10.044107      -273.3141 
  14   1.0000      -0.928133       -25.2558 
  15   1.0000      -0.918284       -24.9878 
  16   1.0000      -0.872102       -23.7311 
  17   1.0000      -0.809683       -22.0326 
  18   1.0000      -0.795769       -21.6540 
  19   1.0000      -0.782450       -21.2915 
  20   1.0000      -0.668953       -18.2031 
  21   1.0000      -0.629820       -17.1383 
  22   1.0000      -0.596087       -16.2204 
  23   1.0000      -0.562930       -15.3181 
  24   1.0000      -0.493008       -13.4154 
  25   1.0000      -0.458509       -12.4767 
  26   1.0000      -0.436277       -11.8717 
  27   1.0000      -0.415274       -11.3002 
  28   1.0000      -0.373402       -10.1608 
  29   1.0000      -0.367021        -9.9871 
  30   1.0000      -0.346555        -9.4303 
  31   1.0000      -0.341732        -9.2990 
  32   1.0000      -0.336244        -9.1497 
  33   1.0000      -0.331811        -9.0290 
  34   1.0000      -0.320866        -8.7312 
  35   1.0000      -0.303176        -8.2498 
  36   1.0000      -0.294852        -8.0233 
  37   1.0000      -0.288308        -7.8453 
  38   1.0000      -0.283956        -7.7268 
  39   1.0000      -0.272522        -7.4157 
  40   1.0000      -0.262183        -7.1344 
  41   1.0000      -0.258056        -7.0221 
  42   1.0000      -0.248500        -6.7620 
  43   1.0000      -0.239925        -6.5287 
  44   1.0000      -0.226288        -6.1576 
  45   1.0000      -0.206726        -5.6253 
  46   1.0000      -0.152616        -4.1529 
  47   1.0000      -0.148203        -4.0328 
  48   1.0000      -0.142648        -3.8817 
  49   1.0000      -0.131646        -3.5823 
  50   1.0000      -0.101402        -2.7593 
  51   1.0000      -0.093828        -2.5532 
  52   1.0000      -0.081920        -2.2292 
  53   1.0000      -0.048645        -1.3237 
  54   0.0000       0.104173         2.8347 
  55   0.0000       0.122514         3.3338 
  56   0.0000       0.131177         3.5695 
  57   0.0000       0.143274         3.8987 
  58   0.0000       0.155185         4.2228 
  59   0.0000       0.165390         4.5005 
  60   0.0000       0.177642         4.8339 
  61   0.0000       0.188687         5.1344 
  62   0.0000       0.197641         5.3781 
  63   0.0000       0.211149         5.7456 
  64   0.0000       0.219296         5.9674 
  65   0.0000       0.226494         6.1632 
  66   0.0000       0.241496         6.5714 
  67   0.0000       0.251208         6.8357 
  68   0.0000       0.272260         7.4086 
  69   0.0000       0.283442         7.7128 
  70   0.0000       0.299458         8.1487 
  71   0.0000       0.301044         8.1918 
  72   0.0000       0.302421         8.2293 
  73   0.0000       0.306890         8.3509 
  74   0.0000       0.324675         8.8349 
  75   0.0000       0.326370         8.8810 
  76   0.0000       0.329752         8.9730 
  77   0.0000       0.339434         9.2365 
  78   0.0000       0.347607         9.4589 
  79   0.0000       0.354471         9.6456 
  80   0.0000       0.363706         9.8970 
  81   0.0000       0.368715        10.0332 
  82   0.0000       0.379768        10.3340 
  83   0.0000       0.386459        10.5161 
  84   0.0000       0.389458        10.5977 
  85   0.0000       0.397917        10.8279 
  86   0.0000       0.399430        10.8690 
  87   0.0000       0.408583        11.1181 
  88   0.0000       0.419494        11.4150 
  89   0.0000       0.423811        11.5325 
  90   0.0000       0.433301        11.7907 
  91   0.0000       0.444301        12.0900 
  92   0.0000       0.447617        12.1803 
  93   0.0000       0.461050        12.5458 
  94   0.0000       0.475109        12.9284 
  95   0.0000       0.482691        13.1347 
  96   0.0000       0.495105        13.4725 
  97   0.0000       0.511390        13.9156 
  98   0.0000       0.517243        14.0749 
  99   0.0000       0.525519        14.3001 
 100   0.0000       0.533515        14.5177 
 101   0.0000       0.536621        14.6022 
 102   0.0000       0.552386        15.0312 
 103   0.0000       0.555113        15.1054 
 104   0.0000       0.563981        15.3467 
 105   0.0000       0.575354        15.6562 
 106   0.0000       0.587444        15.9852 
 107   0.0000       0.595210        16.1965 
 108   0.0000       0.601422        16.3655 
 109   0.0000       0.607162        16.5217 
 110   0.0000       0.629686        17.1346 
 111   0.0000       0.639592        17.4042 
 112   0.0000       0.655392        17.8341 
 113   0.0000       0.666121        18.1261 
 114   0.0000       0.680396        18.5145 
 115   0.0000       0.700207        19.0536 
 116   0.0000       0.720043        19.5934 
 117   0.0000       0.733251        19.9528 
 118   0.0000       0.742295        20.1989 
 119   0.0000       0.757688        20.6177 
 120   0.0000       0.766081        20.8461 
 121   0.0000       0.793766        21.5995 
 122   0.0000       0.810306        22.0495 
 123   0.0000       0.839123        22.8337 
 124   0.0000       0.866997        23.5922 
 125   0.0000       0.881982        23.9999 
 126   0.0000       0.890209        24.2238 
 127   0.0000       0.897695        24.4275 
 128   0.0000       0.912597        24.8330 
 129   0.0000       0.928487        25.2654 
 130   0.0000       0.933311        25.3967 
 131   0.0000       0.947992        25.7962 
 132   0.0000       0.962338        26.1866 
 133   0.0000       0.965957        26.2850 
 134   0.0000       0.968621        26.3575 
 135   0.0000       0.977434        26.5973 
 136   0.0000       0.987747        26.8780 
 137   0.0000       0.997633        27.1470 
 138   0.0000       1.005672        27.3657 
 139   0.0000       1.014526        27.6067 
 140   0.0000       1.027482        27.9592 
 141   0.0000       1.032028        28.0829 
 142   0.0000       1.039349        28.2821 
 143   0.0000       1.048456        28.5299 
 144   0.0000       1.054206        28.6864 
 145   0.0000       1.062677        28.9169 
 146   0.0000       1.073789        29.2193 
 147   0.0000       1.090351        29.6700 
 148   0.0000       1.091249        29.6944 
 149   0.0000       1.097969        29.8772 
 150   0.0000       1.111278        30.2394 
 151   0.0000       1.130014        30.7492 
 152   0.0000       1.135327        30.8938 
 153   0.0000       1.145427        31.1687 
 154   0.0000       1.161801        31.6142 
 155   0.0000       1.171826        31.8870 
 156   0.0000       1.184635        32.2355 
 157   0.0000       1.210118        32.9290 
 158   0.0000       1.231387        33.5077 
 159   0.0000       1.243767        33.8446 
 160   0.0000       1.283586        34.9281 
 161   0.0000       1.286357        35.0036 
 162   0.0000       1.291324        35.1387 
 163   0.0000       1.301960        35.4281 
 164   0.0000       1.327152        36.1136 
 165   0.0000       1.355280        36.8790 
 166   0.0000       1.373258        37.3682 
 167   0.0000       1.401031        38.1240 
 168   0.0000       1.412957        38.4485 
 169   0.0000       1.437306        39.1111 
 170   0.0000       1.451189        39.4889 
 171   0.0000       1.481474        40.3129 
 172   0.0000       1.489543        40.5325 
 173   0.0000       1.498407        40.7737 
 174   0.0000       1.506323        40.9891 
 175   0.0000       1.522943        41.4414 
 176   0.0000       1.529539        41.6209 
 177   0.0000       1.566255        42.6200 
 178   0.0000       1.579427        42.9784 
 179   0.0000       1.586064        43.1590 
 180   0.0000       1.607631        43.7459 
 181   0.0000       1.609317        43.7918 
 182   0.0000       1.621166        44.1142 
 183   0.0000       1.635141        44.4944 
 184   0.0000       1.649486        44.8848 
 185   0.0000       1.667796        45.3830 
 186   0.0000       1.671762        45.4910 
 187   0.0000       1.680877        45.7390 
 188   0.0000       1.704221        46.3742 
 189   0.0000       1.724862        46.9359 
 190   0.0000       1.728741        47.0414 
 191   0.0000       1.736457        47.2514 
 192   0.0000       1.753582        47.7174 
 193   0.0000       1.777180        48.3595 
 194   0.0000       1.799282        48.9609 
 195   0.0000       1.817773        49.4641 
 196   0.0000       1.822519        49.5933 
 197   0.0000       1.828667        49.7606 
 198   0.0000       1.839697        50.0607 
 199   0.0000       1.852610        50.4121 
 200   0.0000       1.869175        50.8628 
 201   0.0000       1.888688        51.3938 
 202   0.0000       1.907736        51.9121 
 203   0.0000       1.915999        52.1370 
 204   0.0000       1.942239        52.8510 
 205   0.0000       1.955845        53.2213 
 206   0.0000       1.961356        53.3712 
 207   0.0000       1.978311        53.8326 
 208   0.0000       1.992100        54.2078 
 209   0.0000       2.010844        54.7178 
 210   0.0000       2.020035        54.9679 
 211   0.0000       2.037368        55.4396 
 212   0.0000       2.073598        56.4255 
 213   0.0000       2.101318        57.1798 
 214   0.0000       2.116838        57.6021 
 215   0.0000       2.133781        58.0631 
 216   0.0000       2.154371        58.6234 
 217   0.0000       2.166038        58.9409 
 218   0.0000       2.184595        59.4458 
 219   0.0000       2.206379        60.0386 
 220   0.0000       2.239802        60.9481 
 221   0.0000       2.242116        61.0111 
 222   0.0000       2.261573        61.5405 
 223   0.0000       2.263432        61.5911 
 224   0.0000       2.302706        62.6598 
 225   0.0000       2.330648        63.4202 
 226   0.0000       2.345035        63.8116 
 227   0.0000       2.373081        64.5748 
 228   0.0000       2.398899        65.2774 
 229   0.0000       2.416205        65.7483 
 230   0.0000       2.453384        66.7600 
 231   0.0000       2.468346        67.1671 
 232   0.0000       2.482995        67.5657 
 233   0.0000       2.488949        67.7277 
 234   0.0000       2.505762        68.1853 
 235   0.0000       2.542343        69.1807 
 236   0.0000       2.570337        69.9424 
 237   0.0000       2.579267        70.1854 
 238   0.0000       2.609774        71.0156 
 239   0.0000       2.627167        71.4888 
 240   0.0000       2.634496        71.6883 
 241   0.0000       2.644339        71.9561 
 242   0.0000       2.670902        72.6789 
 243   0.0000       2.721824        74.0646 
 244   0.0000       2.737410        74.4887 
 245   0.0000       2.773755        75.4777 
 246   0.0000       2.794599        76.0449 
 247   0.0000       2.818508        76.6955 
 248   0.0000       2.825206        76.8778 
 249   0.0000       2.860334        77.8336 
 250   0.0000       2.868426        78.0538 
 251   0.0000       2.871650        78.1416 
 252   0.0000       2.901788        78.9617 
 253   0.0000       2.906245        79.0829 
 254   0.0000       2.921160        79.4888 
 255   0.0000       3.063486        83.3617 
 256   0.0000       3.118591        84.8612 
 257   0.0000       3.146838        85.6298 
 258   0.0000       3.213757        87.4508 
 259   0.0000       3.229436        87.8774 
 260   0.0000       3.256111        88.6033 
 261   0.0000       3.330459        90.6264 
 262   0.0000       3.377724        91.9126 
 263   0.0000       3.480793        94.7172 
 264   0.0000       3.509041        95.4859 
 265   0.0000       3.536947        96.2452 
 266   0.0000       3.559699        96.8643 
 267   0.0000       3.572420        97.2105 
 268   0.0000       3.601309        97.9966 
 269   0.0000       3.690958       100.4361 
 270   0.0000       5.073402       138.0543 
 271   0.0000       5.102723       138.8522 
 272   0.0000       5.106893       138.9656 
 273   0.0000       5.116799       139.2352 
 274   0.0000       5.134649       139.7209 
 275   0.0000       5.184835       141.0865 
 276   0.0000       5.228441       142.2731 
 277   0.0000       5.297216       144.1446 
 278   0.0000       5.313606       144.5906 
 279   0.0000       5.327741       144.9752 
 280   0.0000       5.366288       146.0241 
 281   0.0000       5.387558       146.6029 
 282   0.0000       5.416050       147.3782 
 283   0.0000       5.441767       148.0780 
 284   0.0000       5.480061       149.1200 
 285   0.0000       5.585230       151.9818 
 286   0.0000       5.728840       155.8897 
 287   0.0000       5.797511       157.7583 
 288   0.0000       5.827784       158.5821 
 289   0.0000       5.927864       161.3054 
 290   0.0000       7.428627       202.1432 
 291   0.0000       7.503500       204.1806 
 292   0.0000       9.152733       249.0585 
 293   0.0000       9.184478       249.9223 
 294   0.0000       9.251780       251.7537 
 295   0.0000       9.370608       254.9872 
 296   0.0000      29.691970       807.9596 
 297   0.0000      29.712148       808.5086 
 298   0.0000      29.797774       810.8387 
 299   0.0000      29.979667       815.7882 
 300   0.0000      30.063939       818.0814 
 301   0.0000      30.159232       820.6744 
 302   0.0000      30.255821       823.3027 
 303   0.0000      30.317365       824.9774 
 304   0.0000      36.694357       998.5042 
 305   0.0000      36.723949       999.3095 
 306   0.0000      36.730443       999.4862 
 307   0.0000      36.748199       999.9693 
 308   0.0000      36.794834      1001.2383 
 309   0.0000      36.833088      1002.2793 
 310   0.0000      36.899023      1004.0735 
 311   0.0000      36.911615      1004.4161 
 312   0.0000      36.952325      1005.5239 
 313   0.0000      37.002499      1006.8892 
 314   0.0000      37.014856      1007.2254 
 315   0.0000      37.044119      1008.0217 
 316   0.0000      41.363918      1125.5694 
 317   0.0000      41.445806      1127.7977 
 318   0.0000      53.695160      1461.1196 
 319   0.0000      53.722889      1461.8741 
 320   0.0000      53.788812      1463.6680 
 321   0.0000      53.906945      1466.8826 

                 SPIN DOWN ORBITALS
  NO   OCC          E(Eh)            E(eV) 
   0   1.0000     -18.996998      -516.9346 
   1   1.0000     -18.994034      -516.8539 
   2   1.0000     -18.930904      -515.1361 
   3   1.0000     -18.925389      -514.9860 
   4   1.0000     -14.238214      -387.4415 
   5   1.0000     -14.215825      -386.8323 
   6   1.0000     -10.182715      -277.0858 
   7   1.0000     -10.167865      -276.6817 
   8   1.0000     -10.121643      -275.4239 
   9   1.0000     -10.117795      -275.3192 
  10   1.0000     -10.097783      -274.7746 
  11   1.0000     -10.096423      -274.7376 
  12   1.0000     -10.051962      -273.5278 
  13   1.0000     -10.044898      -273.3356 
  14   1.0000      -0.927672       -25.2432 
  15   1.0000      -0.917975       -24.9794 
  16   1.0000      -0.870613       -23.6906 
  17   1.0000      -0.807304       -21.9678 
  18   1.0000      -0.795110       -21.6360 
  19   1.0000      -0.781425       -21.2636 
  20   1.0000      -0.661657       -18.0046 
  21   1.0000      -0.623968       -16.9790 
  22   1.0000      -0.591613       -16.0986 
  23   1.0000      -0.561808       -15.2876 
  24   1.0000      -0.485185       -13.2025 
  25   1.0000      -0.454715       -12.3734 
  26   1.0000      -0.427480       -11.6323 
  27   1.0000      -0.412511       -11.2250 
  28   1.0000      -0.369997       -10.0681 
  29   1.0000      -0.366469        -9.9721 
  30   1.0000      -0.344700        -9.3798 
  31   1.0000      -0.339763        -9.2454 
  32   1.0000      -0.332730        -9.0540 
  33   1.0000      -0.330560        -8.9950 
  34   1.0000      -0.319284        -8.6882 
  35   1.0000      -0.302678        -8.2363 
  36   1.0000      -0.292344        -7.9551 
  37   1.0000      -0.285046        -7.7565 
  38   1.0000      -0.281541        -7.6611 
  39   1.0000      -0.270366        -7.3570 
  40   1.0000      -0.260148        -7.0790 
  41   1.0000      -0.256530        -6.9805 
  42   1.0000      -0.245377        -6.6770 
  43   1.0000      -0.238313        -6.4848 
  44   1.0000      -0.222729        -6.0608 
  45   1.0000      -0.204434        -5.5629 
  46   1.0000      -0.149952        -4.0804 
  47   1.0000      -0.145932        -3.9710 
  48   1.0000      -0.141831        -3.8594 
  49   1.0000      -0.130975        -3.5640 
  50   1.0000      -0.095108        -2.5880 
  51   1.0000      -0.087142        -2.3713 
  52   1.0000      -0.073655        -2.0043 
  53   0.0000       0.074236         2.0201 
  54   0.0000       0.105642         2.8747 
  55   0.0000       0.122833         3.3424 
  56   0.0000       0.132411         3.6031 
  57   0.0000       0.144289         3.9263 
  58   0.0000       0.156320         4.2537 
  59   0.0000       0.165745         4.5101 
  60   0.0000       0.178848         4.8667 
  61   0.0000       0.190322         5.1789 
  62   0.0000       0.199321         5.4238 
  63   0.0000       0.211742         5.7618 
  64   0.0000       0.221914         6.0386 
  65   0.0000       0.227157         6.1813 
  66   0.0000       0.242266         6.5924 
  67   0.0000       0.251666         6.8482 
  68   0.0000       0.272573         7.4171 
  69   0.0000       0.283996         7.7279 
  70   0.0000       0.299846         8.1592 
  71   0.0000       0.302414         8.2291 
  72   0.0000       0.306759         8.3473 
  73   0.0000       0.307901         8.3784 
  74   0.0000       0.325654         8.8615 
  75   0.0000       0.328481         8.9384 
  76   0.0000       0.331952         9.0329 
  77   0.0000       0.340707         9.2711 
  78   0.0000       0.349056         9.4983 
  79   0.0000       0.355776         9.6812 
  80   0.0000       0.366340         9.9686 
  81   0.0000       0.369525        10.0553 
  82   0.0000       0.387935        10.5562 
  83   0.0000       0.389696        10.6042 
  84   0.0000       0.392539        10.6815 
  85   0.0000       0.398779        10.8513 
  86   0.0000       0.399834        10.8800 
  87   0.0000       0.409747        11.1498 
  88   0.0000       0.420268        11.4361 
  89   0.0000       0.427900        11.6437 
  90   0.0000       0.434355        11.8194 
  91   0.0000       0.446326        12.1452 
  92   0.0000       0.451731        12.2922 
  93   0.0000       0.461862        12.5679 
  94   0.0000       0.483248        13.1498 
  95   0.0000       0.484785        13.1917 
  96   0.0000       0.497382        13.5344 
  97   0.0000       0.513134        13.9631 
  98   0.0000       0.518262        14.1026 
  99   0.0000       0.527384        14.3508 
 100   0.0000       0.535508        14.5719 
 101   0.0000       0.539073        14.6689 
 102   0.0000       0.553013        15.0482 
 103   0.0000       0.557039        15.1578 
 104   0.0000       0.570670        15.5287 
 105   0.0000       0.578551        15.7432 
 106   0.0000       0.595236        16.1972 
 107   0.0000       0.599073        16.3016 
 108   0.0000       0.604472        16.4485 
 109   0.0000       0.613832        16.7032 
 110   0.0000       0.631948        17.1962 
 111   0.0000       0.645883        17.5754 
 112   0.0000       0.658351        17.9146 
 113   0.0000       0.669273        18.2118 
 114   0.0000       0.682301        18.5664 
 115   0.0000       0.704936        19.1823 
 116   0.0000       0.723134        19.6775 
 117   0.0000       0.734734        19.9931 
 118   0.0000       0.745133        20.2761 
 119   0.0000       0.760602        20.6970 
 120   0.0000       0.770049        20.9541 
 121   0.0000       0.795188        21.6382 
 122   0.0000       0.812998        22.1228 
 123   0.0000       0.843641        22.9566 
 124   0.0000       0.867642        23.6097 
 125   0.0000       0.882698        24.0194 
 126   0.0000       0.891438        24.2573 
 127   0.0000       0.899475        24.4760 
 128   0.0000       0.913300        24.8522 
 129   0.0000       0.929424        25.2909 
 130   0.0000       0.935375        25.4529 
 131   0.0000       0.948941        25.8220 
 132   0.0000       0.963294        26.2126 
 133   0.0000       0.967938        26.3389 
 134   0.0000       0.969867        26.3914 
 135   0.0000       0.979116        26.6431 
 136   0.0000       0.989597        26.9283 
 137   0.0000       0.999128        27.1877 
 138   0.0000       1.006591        27.3907 
 139   0.0000       1.015820        27.6419 
 140   0.0000       1.029768        28.0214 
 141   0.0000       1.034112        28.1396 
 142   0.0000       1.040232        28.3061 
 143   0.0000       1.050066        28.5737 
 144   0.0000       1.056432        28.7470 
 145   0.0000       1.063910        28.9505 
 146   0.0000       1.077361        29.3165 
 147   0.0000       1.092331        29.7238 
 148   0.0000       1.098053        29.8796 
 149   0.0000       1.099373        29.9155 
 150   0.0000       1.113040        30.2874 
 151   0.0000       1.131957        30.8021 
 152   0.0000       1.137917        30.9643 
 153   0.0000       1.148499        31.2523 
 154   0.0000       1.165372        31.7114 
 155   0.0000       1.174719        31.9657 
 156   0.0000       1.187216        32.3058 
 157   0.0000       1.211068        32.9548 
 158   0.0000       1.233829        33.5742 
 159   0.0000       1.248174        33.9645 
 160   0.0000       1.285437        34.9785 
 161   0.0000       1.289402        35.0864 
 162   0.0000       1.292462        35.1697 
 163   0.0000       1.303936        35.4819 
 164   0.0000       1.328283        36.1444 
 165   0.0000       1.357390        36.9364 
 166   0.0000       1.375364        37.4255 
 167   0.0000       1.413232        38.4560 
 168   0.0000       1.417063        38.5602 
 169   0.0000       1.438780        39.1512 
 170   0.0000       1.453350        39.5477 
 171   0.0000       1.484175        40.3864 
 172   0.0000       1.493032        40.6275 
 173   0.0000       1.498788        40.7841 
 174   0.0000       1.507675        41.0259 
 175   0.0000       1.523143        41.4468 
 176   0.0000       1.539305        41.8866 
 177   0.0000       1.568732        42.6874 
 178   0.0000       1.581266        43.0284 
 179   0.0000       1.587780        43.2057 
 180   0.0000       1.609601        43.7995 
 181   0.0000       1.612743        43.8850 
 182   0.0000       1.624186        44.1963 
 183   0.0000       1.637312        44.5535 
 184   0.0000       1.654060        45.0093 
 185   0.0000       1.669007        45.4160 
 186   0.0000       1.674418        45.5632 
 187   0.0000       1.682442        45.7816 
 188   0.0000       1.705812        46.4175 
 189   0.0000       1.726455        46.9792 
 190   0.0000       1.733846        47.1803 
 191   0.0000       1.740878        47.3717 
 192   0.0000       1.755912        47.7808 
 193   0.0000       1.781640        48.4809 
 194   0.0000       1.802318        49.0436 
 195   0.0000       1.821278        49.5595 
 196   0.0000       1.828806        49.7644 
 197   0.0000       1.831903        49.8486 
 198   0.0000       1.840427        50.0806 
 199   0.0000       1.854127        50.4533 
 200   0.0000       1.871734        50.9325 
 201   0.0000       1.891335        51.4658 
 202   0.0000       1.911865        52.0245 
 203   0.0000       1.917679        52.1827 
 204   0.0000       1.943949        52.8976 
 205   0.0000       1.961966        53.3878 
 206   0.0000       1.962510        53.4026 
 207   0.0000       1.984029        53.9882 
 208   0.0000       1.993467        54.2450 
 209   0.0000       2.016000        54.8581 
 210   0.0000       2.026283        55.1380 
 211   0.0000       2.038631        55.4740 
 212   0.0000       2.076759        56.5115 
 213   0.0000       2.104747        57.2731 
 214   0.0000       2.117814        57.6287 
 215   0.0000       2.135535        58.1109 
 216   0.0000       2.154953        58.6392 
 217   0.0000       2.167865        58.9906 
 218   0.0000       2.188321        59.5473 
 219   0.0000       2.208912        60.1076 
 220   0.0000       2.240637        60.9708 
 221   0.0000       2.246049        61.1181 
 222   0.0000       2.266863        61.6845 
 223   0.0000       2.267278        61.6958 
 224   0.0000       2.303705        62.6870 
 225   0.0000       2.332073        63.4589 
 226   0.0000       2.350061        63.9484 
 227   0.0000       2.374446        64.6120 
 228   0.0000       2.399858        65.3035 
 229   0.0000       2.418180        65.8020 
 230   0.0000       2.457066        66.8602 
 231   0.0000       2.469159        67.1892 
 232   0.0000       2.483197        67.5712 
 233   0.0000       2.489783        67.7504 
 234   0.0000       2.507162        68.2234 
 235   0.0000       2.546329        69.2891 
 236   0.0000       2.571863        69.9840 
 237   0.0000       2.579473        70.1910 
 238   0.0000       2.610171        71.0264 
 239   0.0000       2.629038        71.5398 
 240   0.0000       2.635048        71.7033 
 241   0.0000       2.646022        72.0019 
 242   0.0000       2.673777        72.7572 
 243   0.0000       2.725046        74.1523 
 244   0.0000       2.738228        74.5110 
 245   0.0000       2.776380        75.5491 
 246   0.0000       2.796082        76.0852 
 247   0.0000       2.819663        76.7269 
 248   0.0000       2.826129        76.9029 
 249   0.0000       2.861384        77.8622 
 250   0.0000       2.869455        78.0818 
 251   0.0000       2.872728        78.1709 
 252   0.0000       2.902848        78.9905 
 253   0.0000       2.907523        79.1177 
 254   0.0000       2.922235        79.5181 
 255   0.0000       3.064319        83.3844 
 256   0.0000       3.119727        84.8921 
 257   0.0000       3.147787        85.6556 
 258   0.0000       3.214010        87.4577 
 259   0.0000       3.229789        87.8870 
 260   0.0000       3.257081        88.6297 
 261   0.0000       3.332358        90.6781 
 262   0.0000       3.378942        91.9457 
 263   0.0000       3.481680        94.7413 
 264   0.0000       3.509626        95.5018 
 265   0.0000       3.537271        96.2540 
 266   0.0000       3.560282        96.8802 
 267   0.0000       3.573056        97.2278 
 268   0.0000       3.602299        98.0235 
 269   0.0000       3.692636       100.4817 
 270   0.0000       5.073472       138.0562 
 271   0.0000       5.102801       138.8543 
 272   0.0000       5.107165       138.9730 
 273   0.0000       5.117995       139.2677 
 274   0.0000       5.135843       139.7534 
 275   0.0000       5.189299       141.2080 
 276   0.0000       5.233415       142.4085 
 277   0.0000       5.297334       144.1478 
 278   0.0000       5.314392       144.6120 
 279   0.0000       5.329260       145.0165 
 280   0.0000       5.366663       146.0343 
 281   0.0000       5.387808       146.6097 
 282   0.0000       5.416862       147.4003 
 283   0.0000       5.442386       148.0948 
 284   0.0000       5.484815       149.2494 
 285   0.0000       5.595397       152.2585 
 286   0.0000       5.729841       155.9169 
 287   0.0000       5.797628       157.7615 
 288   0.0000       5.827606       158.5772 
 289   0.0000       5.937808       161.5760 
 290   0.0000       7.431345       202.2172 
 291   0.0000       7.503828       204.1895 
 292   0.0000       9.153880       249.0897 
 293   0.0000       9.184646       249.9269 
 294   0.0000       9.252114       251.7628 
 295   0.0000       9.371733       255.0178 
 296   0.0000      29.695716       808.0615 
 297   0.0000      29.712345       808.5140 
 298   0.0000      29.798774       810.8659 
 299   0.0000      29.986912       815.9854 
 300   0.0000      30.067838       818.1875 
 301   0.0000      30.159309       820.6765 
 302   0.0000      30.255064       823.2822 
 303   0.0000      30.322076       825.1056 
 304   0.0000      36.694454       998.5068 
 305   0.0000      36.723969       999.3100 
 306   0.0000      36.730475       999.4870 
 307   0.0000      36.748283       999.9716 
 308   0.0000      36.800189      1001.3840 
 309   0.0000      36.835743      1002.3515 
 310   0.0000      36.893058      1003.9112 
 311   0.0000      36.911491      1004.4127 
 312   0.0000      36.953408      1005.5534 
 313   0.0000      37.002955      1006.9016 
 314   0.0000      37.015216      1007.2352 
 315   0.0000      37.046711      1008.0923 
 316   0.0000      41.365724      1125.6186 
 317   0.0000      41.445983      1127.8025 
 318   0.0000      53.695748      1461.1356 
 319   0.0000      53.722979      1461.8766 
 320   0.0000      53.788993      1463.6729 
 321   0.0000      53.907539      1466.8987 

                    ********************************
                    * MULLIKEN POPULATION ANALYSIS *
                    ********************************

--------------------------------------------
MULLIKEN ATOMIC CHARGES AND SPIN POPULATIONS
--------------------------------------------
   0 N :   -0.078494    0.034663
   1 C :   -0.100147   -0.044443
   2 C :    0.016440    0.009554
   3 O :   -0.400880    0.003535
   4 C :   -0.110291    0.967510
   5 H :    0.104819   -0.049706
   6 C :   -0.362060   -0.053605
   7 H :    0.144056    0.029240
   8 H :    0.140176    0.003249
   9 C :    0.112129    0.041458
  10 O :   -0.414943    0.012407
  11 O :   -0.399935    0.023235
  12 H :    0.233523    0.002473
  13 C :    0.162316    0.006884
  14 N :   -0.036422    0.004655
  15 H :    0.266359    0.000252
  16 O :   -0.339181    0.001252
  17 C :   -0.576091    0.001836
  18 H :    0.174698    0.000893
  19 H :    0.170791   -0.000408
  20 H :    0.144742   -0.000100
  21 C :   -0.480055   -0.000322
  22 H :    0.150471    0.000377
  23 H :    0.158935    0.000073
  24 H :    0.156718    0.000019
  25 H :    0.162325    0.005018
Sum of atomic charges         :   -1.0000000
Sum of atomic spin populations:    1.0000000

-----------------------------------------------------
MULLIKEN REDUCED ORBITAL CHARGES AND SPIN POPULATIONS
-----------------------------------------------------
CHARGE
  0 N s       :     3.360165  s :     3.360165
      pz      :     1.081726  p :     3.683115
      px      :     1.017546
      py      :     1.583843
      dz2     :     0.009572  d :     0.035215
      dxz     :     0.012243
      dyz     :     0.002771
      dx2y2   :     0.005397
      dxy     :     0.005232
  1 C s       :     3.125627  s :     3.125627
      pz      :     0.988942  p :     2.866450
      px      :     0.831339
      py      :     1.046169
      dz2     :     0.020847  d :     0.108070
      dxz     :     0.016305
      dyz     :     0.017326
      dx2y2   :     0.029847
      dxy     :     0.023745
  2 C s       :     3.115649  s :     3.115649
      pz      :     0.938675  p :     2.670820
      px      :     0.887165
      py      :     0.844979
      dz2     :     0.058530  d :     0.197091
      dxz     :     0.044700
[...]
  16 O :   -0.212590    0.001965
  17 C :   -0.059025    0.003115
  18 H :    0.047120    0.000483
  19 H :    0.045850   -0.000095
  20 H :    0.030497    0.000053
  21 C :   -0.015709    0.000337
  22 H :    0.027316    0.000152
  23 H :    0.035045    0.000063
  24 H :    0.030622   -0.000037
  25 H :    0.070930    0.004326

----------------------------------------------------
LOEWDIN REDUCED ORBITAL CHARGES AND SPIN POPULATIONS
----------------------------------------------------
CHARGE
  0 N s       :     3.081571  s :     3.081571
      pz      :     1.137130  p :     3.778505
      px      :     1.150481
      py      :     1.490895
      dz2     :     0.020340  d :     0.080782
      dxz     :     0.025851
      dyz     :     0.007547
      dx2y2   :     0.014490
      dxy     :     0.012555
  1 C s       :     2.848812  s :     2.848812
      pz      :     1.021201  p :     2.942754
      px      :     0.879375
      py      :     1.042178
      dz2     :     0.056835  d :     0.263346
      dxz     :     0.041330
      dyz     :     0.039969
      dx2y2   :     0.069702
      dxy     :     0.055510
  2 C s       :     2.844378  s :     2.844378
      pz      :     0.991332  p :     2.782372
      px      :     0.967250
      py      :     0.823790
      dz2     :     0.137328  d :     0.479831
      dxz     :     0.113149
      dyz     :     0.051191
      dx2y2   :     0.087458
      dxy     :     0.090705
  3 O s       :     3.593145  s :     3.593145
      pz      :     1.561210  p :     4.628446
      px      :     1.589450
      py      :     1.477785
      dz2     :     0.006309  d :     0.030017
      dxz     :     0.010814
      dyz     :     0.005569
      dx2y2   :     0.003354
      dxy     :     0.003971
  4 C s       :     2.927617  s :     2.927617
      pz      :     1.008812  p :     2.960252
      px      :     0.941454
      py      :     1.009986
      dz2     :     0.040075  d :     0.149522
      dxz     :     0.008699
      dyz     :     0.047055
      dx2y2   :     0.027360
      dxy     :     0.026333
  5 H s       :     0.870541  s :     0.870541
      pz      :     0.048910  p :     0.090061
      px      :     0.024530
      py      :     0.016620
  6 C s       :     2.881972  s :     2.881972
      pz      :     1.016890  p :     3.044498
      px      :     1.012447
      py      :     1.015161
      dz2     :     0.031554  d :     0.162719
      dxz     :     0.018836
      dyz     :     0.028649
      dx2y2   :     0.046000
      dxy     :     0.037681
  7 H s       :     0.868629  s :     0.868629
      pz      :     0.025053  p :     0.081574
      px      :     0.023345
      py      :     0.033177
  8 H s       :     0.866920  s :     0.866920
      pz      :     0.042986  p :     0.081377
      px      :     0.021849
      py      :     0.016543
  9 C s       :     2.859183  s :     2.859183
      pz      :     0.819010  p :     2.753149
      px      :     0.975519
      py      :     0.958620
      dz2     :     0.060603  d :     0.567617
      dxz     :     0.046217
      dyz     :     0.112650
      dx2y2   :     0.187859
      dxy     :     0.160288
 10 O s       :     3.607038  s :     3.607038
      pz      :     1.537499  p :     4.661897
      px      :     1.626444
      py      :     1.497954
      dz2     :     0.003227  d :     0.026287
      dxz     :     0.003582
      dyz     :     0.004683
      dx2y2   :     0.004562
      dxy     :     0.010234
 11 O s       :     3.603986  s :     3.603986
      pz      :     1.478578  p :     4.637512
      px      :     1.708478
      py      :     1.450456
      dz2     :     0.003706  d :     0.029425
      dxz     :     0.001301
      dyz     :     0.007748
      dx2y2   :     0.009376
      dxy     :     0.007294
 12 H s       :     0.755345  s :     0.755345
      pz      :     0.088152  p :     0.159017
      px      :     0.026115
      py      :     0.044750
 13 C s       :     2.844602  s :     2.844602
      pz      :     0.970129  p :     2.780269
      px      :     0.996807
      py      :     0.813333
      dz2     :     0.127851  d :     0.489508
      dxz     :     0.167387
      dyz     :     0.108740
      dx2y2   :     0.049347
      dxy     :     0.036183
 14 N s       :     3.096223  s :     3.096223
      pz      :     1.187065  p :     3.786706
      px      :     1.204329
      py      :     1.395312
      dz2     :     0.020789  d :     0.082108
      dxz     :     0.023208
      dyz     :     0.009991
      dx2y2   :     0.016279
      dxy     :     0.011841
 15 H s       :     0.689417  s :     0.689417
      pz      :     0.077255  p :     0.231121
      px      :     0.057838
      py      :     0.096027
 16 O s       :     3.587350  s :     3.587350
      pz      :     1.445619  p :     4.593799
      px      :     1.695311
      py      :     1.452869
      dz2     :     0.014251  d :     0.031441
      dxz     :     0.008790
      dyz     :     0.006635
      dx2y2   :     0.000870
      dxy     :     0.000896
 17 C s       :     2.880017  s :     2.880017
      pz      :     1.024973  p :     3.072775
      px      :     1.008870
      py      :     1.038932
      dz2     :     0.025573  d :     0.106234
      dxz     :     0.020970
      dyz     :     0.010325
      dx2y2   :     0.029996
      dxy     :     0.019370
 18 H s       :     0.871702  s :     0.871702
      pz      :     0.027265  p :     0.081178
      px      :     0.026124
      py      :     0.027789
 19 H s       :     0.873169  s :     0.873169
      pz      :     0.017685  p :     0.080981
      px      :     0.019491
      py      :     0.043806
 20 H s       :     0.888130  s :     0.888130
      pz      :     0.044632  p :     0.081373
      px      :     0.018195
      py      :     0.018546
 21 C s       :     2.863188  s :     2.863188
      pz      :     0.921942  p :     2.987938
      px      :     1.019404
      py      :     1.046592
      dz2     :     0.048343  d :     0.164583
      dxz     :     0.036591
      dyz     :     0.044099
      dx2y2   :     0.022204
      dxy     :     0.013346
 22 H s       :     0.894533  s :     0.894533
      pz      :     0.017099  p :     0.078151
      px      :     0.016224
      py      :     0.044828
 23 H s       :     0.886467  s :     0.886467
      pz      :     0.013532  p :     0.078488
      px      :     0.043621
      py      :     0.021336
 24 H s       :     0.890348  s :     0.890348
      pz      :     0.028105  p :     0.079030
      px      :     0.025342
      py      :     0.025584
 25 H s       :     0.848308  s :     0.848308
      pz      :     0.025260  p :     0.080762
      px      :     0.015981
      py      :     0.039521

SPIN
  0 N s       :     0.012125  s :     0.012125
      pz      :     0.002397  p :     0.030100
      px      :     0.021254
      py      :     0.006449
      dz2     :    -0.000074  d :    -0.000206
      dxz     :    -0.000071
      dyz     :     0.000000
      dx2y2   :    -0.000008
      dxy     :    -0.000053
  1 C s       :    -0.003783  s :    -0.003783
      pz      :    -0.005336  p :    -0.014294
      px      :     0.001746
      py      :    -0.010704
      dz2     :     0.004519  d :     0.036635
      dxz     :     0.005710
      dyz     :     0.002469
      dx2y2   :     0.016682
      dxy     :     0.007256
  2 C s       :     0.003076  s :     0.003076
      pz      :     0.005662  p :     0.007257
      px      :     0.000379
      py      :     0.001216
      dz2     :    -0.000430  d :    -0.000172
      dxz     :    -0.000116
      dyz     :    -0.000123
      dx2y2   :     0.000429
      dxy     :     0.000069
  3 O s       :     0.000628  s :     0.000628
      pz      :     0.003800  p :     0.004382
      px      :     0.000905
      py      :    -0.000323
      dz2     :     0.000032  d :     0.000044
      dxz     :     0.000001
      dyz     :     0.000005
      dx2y2   :     0.000004
      dxy     :     0.000002
  4 C s       :     0.025191  s :     0.025191
      pz      :     0.033394  p :     0.757975
      px      :     0.650714
      py      :     0.073867
      dz2     :    -0.001333  d :    -0.004142
      dxz     :    -0.000117
      dyz     :    -0.000957
      dx2y2   :    -0.001633
      dxy     :    -0.000103
  5 H s       :    -0.019885  s :    -0.019885
      pz      :     0.003748  p :     0.025823
      px      :     0.020149
      py      :     0.001926
  6 C s       :    -0.002449  s :    -0.002449
      pz      :    -0.004334  p :    -0.021315
      px      :    -0.003971
      py      :    -0.013010
      dz2     :     0.000733  d :     0.034688
      dxz     :     0.001975
      dyz     :     0.001388
      dx2y2   :     0.013091
      dxy     :     0.017501
  7 H s       :     0.023670  s :     0.023670
      pz      :    -0.000128  p :    -0.000737
      px      :    -0.000165
      py      :    -0.000443
  8 H s       :     0.002540  s :     0.002540
      pz      :    -0.000193  p :    -0.000479
      px      :     0.000079
      py      :    -0.000365
  9 C s       :     0.010734  s :     0.010734
      pz      :     0.001076  p :     0.037008
      px      :     0.032390
      py      :     0.003542
      dz2     :    -0.000240  d :     0.002442
      dxz     :     0.000750
      dyz     :     0.000802
      dx2y2   :     0.001532
      dxy     :    -0.000401
 10 O s       :     0.000157  s :     0.000157
      pz      :     0.003695  p :     0.012518
      px      :     0.002991
      py      :     0.005833
      dz2     :    -0.000003  d :     0.000229
      dxz     :     0.000009
      dyz     :     0.000007
      dx2y2   :     0.000165
      dxy     :     0.000051
 11 O s       :     0.000543  s :     0.000543
      pz      :    -0.002623  p :     0.018216
      px      :     0.020261
      py      :     0.000578
      dz2     :     0.000001  d :     0.000257
      dxz     :     0.000023
      dyz     :     0.000025
      dx2y2   :     0.000042
      dxy     :     0.000167
 12 H s       :     0.000575  s :     0.000575
      pz      :    -0.000015  p :     0.001712
      px      :     0.001457
      py      :     0.000270
 13 C s       :     0.001663  s :     0.001663
      pz      :     0.000036  p :     0.000590
      px      :    -0.000066
      py      :     0.000621
      dz2     :     0.001200  d :     0.001866
      dxz     :    -0.000036
      dyz     :    -0.000072
      dx2y2   :     0.000642
      dxy     :     0.000133
 14 N s       :     0.000265  s :     0.000265
      pz      :     0.000887  p :     0.002659
      px      :     0.000532
      py      :     0.001239
      dz2     :     0.000065  d :     0.000142
      dxz     :     0.000025
      dyz     :     0.000036
      dx2y2   :     0.000009
      dxy     :     0.000007
 15 H s       :     0.000135  s :     0.000135
      pz      :     0.001135  p :     0.001258
      px      :     0.000012
      py      :     0.000111
 16 O s       :     0.000621  s :     0.000621
      pz      :    -0.000097  p :     0.001328
      px      :     0.002831
      py      :    -0.001405
      dz2     :    -0.000003  d :     0.000016
      dxz     :     0.000000
      dyz     :     0.000010
      dx2y2   :    -0.000001
      dxy     :     0.000009
 17 C s       :     0.001519  s :     0.001519
      pz      :     0.000063  p :     0.001486
      px      :     0.001297
      py      :     0.000126
      dz2     :    -0.000009  d :     0.000111
      dxz     :     0.000077
      dyz     :    -0.000000
      dx2y2   :     0.000019
      dxy     :     0.000024
 18 H s       :     0.000379  s :     0.000379
      pz      :     0.000002  p :     0.000103
      px      :     0.000105
      py      :    -0.000004
 19 H s       :    -0.000145  s :    -0.000145
      pz      :     0.000001  p :     0.000050
      px      :     0.000038
      py      :     0.000010
 20 H s       :    -0.000007  s :    -0.000007
      pz      :     0.000063  p :     0.000060
      px      :    -0.000004
      py      :     0.000000
 21 C s       :     0.000210  s :     0.000210
      pz      :    -0.000007  p :    -0.000069
      px      :    -0.000024
      py      :    -0.000039
      dz2     :     0.000019  d :     0.000196
      dxz     :     0.000045
      dyz     :     0.000073
      dx2y2   :     0.000045
      dxy     :     0.000015
 22 H s       :     0.000136  s :     0.000136
      pz      :     0.000014  p :     0.000016
      px      :    -0.000003
      py      :     0.000004
 23 H s       :     0.000069  s :     0.000069
      pz      :    -0.000003  p :    -0.000006
      px      :    -0.000001
      py      :    -0.000002
 24 H s       :    -0.000046  s :    -0.000046
      pz      :     0.000014  p :     0.000009
      px      :    -0.000002
      py      :    -0.000003
 25 H s       :     0.004867  s :     0.004867
      pz      :    -0.000102  p :    -0.000541
      px      :    -0.000130
      py      :    -0.000309


                      *****************************
                      * MAYER POPULATION ANALYSIS *
                      *****************************

  NA   - Mulliken gross atomic population
  ZA   - Total nuclear charge
  QA   - Mulliken gross atomic charge
  VA   - Mayer's total valence
  BVA  - Mayer's bonded valence
  FA   - Mayer's free valence

  ATOM       NA         ZA         QA         VA         BVA        FA
  0 N      7.0961     7.0000    -0.0961     3.2341     3.2324     0.0017
  1 C      6.1000     6.0000    -0.1000     4.1124     4.1108     0.0016
  2 C      5.9687     6.0000     0.0313     4.0108     4.0107     0.0002
  3 O      8.4147     8.0000    -0.4147     2.0046     2.0046     0.0000
  4 C      6.1047     6.0000    -0.1047     3.8957     3.1917     0.7040
  5 H      0.8939     1.0000     0.1061     0.9771     0.9741     0.0030
  6 C      6.3610     6.0000    -0.3610     4.0348     4.0320     0.0028
  7 H      0.8545     1.0000     0.1455     0.9648     0.9640     0.0008
  8 H      0.8573     1.0000     0.1427     0.9731     0.9731     0.0000
  9 C      5.8749     6.0000     0.1251     4.0489     4.0462     0.0028
 10 O      8.4208     8.0000    -0.4208     1.8716     1.8714     0.0002
 11 O      8.4003     8.0000    -0.4003     1.9236     1.9230     0.0006
 12 H      0.7638     1.0000     0.2362     0.9884     0.9883     0.0000
 13 C      5.8359     6.0000     0.1641     3.9494     3.9493     0.0001
 14 N      7.0576     7.0000    -0.0576     3.0658     3.0657     0.0000
 15 H      0.7281     1.0000     0.2719     0.9964     0.9964     0.0000
 16 O      8.3458     8.0000    -0.3458     2.0839     2.0839     0.0000
 17 C      6.5713     6.0000    -0.5713     3.8793     3.8793     0.0000
 18 H      0.8251     1.0000     0.1749     0.9610     0.9610     0.0000
 19 H      0.8284     1.0000     0.1716     0.9614     0.9614     0.0000
 20 H      0.8522     1.0000     0.1478     0.9719     0.9719     0.0000
 21 C      6.4789     6.0000    -0.4789     3.9909     3.9909     0.0000
 22 H      0.8477     1.0000     0.1523     0.9548     0.9548     0.0000
 23 H      0.8407     1.0000     0.1593     0.9636     0.9636     0.0000
 24 H      0.8423     1.0000     0.1577     0.9592     0.9592     0.0000
 25 H      0.8354     1.0000     0.1646     0.9486     0.9485     0.0000

  Mayer bond orders larger than 0.100000
B(  0-N ,  1-C ) :   0.9918 B(  0-N , 12-H ) :   0.8843 B(  0-N , 13-C ) :   1.2348 
B(  1-C ,  2-C ) :   0.9015 B(  1-C ,  4-C ) :   1.0098 B(  1-C , 16-O ) :   0.1161 
B(  1-C , 25-H ) :   0.9764 B(  2-C ,  3-O ) :   1.7150 B(  2-C , 14-N ) :   1.2998 
B(  4-C ,  5-H ) :   0.9871 B(  4-C ,  6-C ) :   1.0268 B(  6-C ,  7-H ) :   0.9738 
B(  6-C ,  8-H ) :   0.9767 B(  6-C ,  9-C ) :   0.8606 B(  9-C , 10-O ) :   1.4631 
B(  9-C , 11-O ) :   1.7059 B( 10-O , 15-H ) :   0.2322 B( 13-C , 16-O ) :   1.8315 
B( 13-C , 17-C ) :   0.8772 B( 14-N , 15-H ) :   0.7372 B( 14-N , 21-C ) :   0.9608 
B( 17-C , 18-H ) :   0.9670 B( 17-C , 19-H ) :   0.9680 B( 17-C , 20-H ) :   0.9781 
B( 21-C , 22-H ) :   0.9641 B( 21-C , 23-H ) :   0.9692 B( 21-C , 24-H ) :   0.9561 


-------
TIMINGS
-------

Total SCF time: 0 days 0 hours 0 min 14 sec 

Total time                  ....      14.873 sec
Sum of individual times     ....      14.230 sec  ( 95.7%)

Fock matrix formation       ....      12.325 sec  ( 82.9%)
  Split-RI-J                ....       1.073 sec  (  8.7% of F)
  Chain of spheres X        ....       8.194 sec  ( 66.5% of F)
  XC integration            ....       2.733 sec  ( 22.2% of F)
    Basis function eval.    ....       0.269 sec  (  9.8% of XC)
    Density eval.           ....       0.382 sec  ( 14.0% of XC)
    XC-Functional eval.     ....       0.064 sec  (  2.4% of XC)
    XC-Potential eval.      ....       0.243 sec  (  8.9% of XC)
Diagonalization             ....       0.429 sec  (  2.9%)
Density matrix formation    ....       0.030 sec  (  0.2%)
Population analysis         ....       0.044 sec  (  0.3%)
Initial guess               ....       0.046 sec  (  0.3%)
Orbital Transformation      ....       0.000 sec  (  0.0%)
Orbital Orthonormalization  ....       0.030 sec  (  0.2%)
DIIS solution               ....       0.224 sec  (  1.5%)
Grid generation             ....       1.131 sec  (  7.6%)

Maximum memory used throughout the entire SCF-calculation: 76.4 MB

-------------------------   --------------------
FINAL SINGLE POINT ENERGY      -722.308548521845
-------------------------   --------------------

                                *** OPTIMIZATION RUN DONE ***

                            ***************************************
                            *     ORCA property calculations      *
                            ***************************************

                                    ---------------------
                                    Active property flags
                                    ---------------------
   (+) Dipole Moment


------------------------------------------------------------------------------
                       ORCA ELECTRIC PROPERTIES CALCULATION
------------------------------------------------------------------------------

Dipole Moment Calculation                       ... on
Quadrupole Moment Calculation                   ... off
Polarizability Calculation                      ... off
GBWName                                         ... opt.gbw
Electron density                                ... opt.scfp
The origin for moment calculation is the CENTER OF MASS  = (-4.023106,  1.407774  0.291839)

-------------
DIPOLE MOMENT
-------------
                                X             Y             Z
Electronic contribution:      3.60224       1.76566      -3.55337
Nuclear contribution   :     -6.06822      -3.68000       4.81449
                        -----------------------------------------
Total Dipole Moment    :     -2.46598      -1.91434       1.26111
                        -----------------------------------------
Magnitude (a.u.)       :      3.36692
Magnitude (Debye)      :      8.55803



--------------------
Rotational spectrum 
--------------------
 
Rotational constants in cm-1:     0.031287     0.013902     0.010439 
Rotational constants in MHz :   937.966096   416.780890   312.940168 

 Dipole components along the rotational axes: 
x,y,z [a.u.] :    -2.805468    -1.754303     0.622840 
x,y,z [Debye]:    -7.130933    -4.459083     1.583135 

 

Timings for individual modules:

Sum of individual times         ...      398.510 sec (=   6.642 min)
GTO integral calculation        ...       33.694 sec (=   0.562 min)   8.5 %
SCF iterations                  ...      279.784 sec (=   4.663 min)  70.2 %
SCF Gradient evaluation         ...       84.583 sec (=   1.410 min)  21.2 %
Geometry relaxation             ...        0.449 sec (=   0.007 min)   0.1 %
                             ****ORCA TERMINATED NORMALLY****
TOTAL RUN TIME: 0 days 0 hours 7 minutes 7 seconds 658 msec
