
                                 *****************
                                 * O   R   C   A *
                                 *****************

                                            #,                                       
                                            ###                                      
                                            ####                                     
                                            #####                                    
                                            ######                                   
                                           ########,                                 
                                     ,,################,,,,,                         
                               ,,#################################,,                 
                          ,,##########################################,,             
                       ,#########################################, ''#####,          
                    ,#############################################,,   '####,        
                  ,##################################################,,,,####,       
                ,###########''''           ''''###############################       
              ,#####''   ,,,,##########,,,,          '''####'''          '####       
            ,##' ,,,,###########################,,,                        '##       
           ' ,,###''''                  '''############,,,                           
         ,,##''                                '''############,,,,        ,,,,,,###''
      ,#''                                            '''#######################'''  
     '                                                          ''''####''''         
             ,#######,   #######,   ,#######,      ##                                
            ,#'     '#,  ##    ##  ,#'     '#,    #''#        ######   ,####,        
            ##       ##  ##   ,#'  ##            #'  '#       #        #'  '#        
            ##       ##  #######   ##           ,######,      #####,   #    #        
            '#,     ,#'  ##    ##  '#,     ,#' ,#      #,         ##   #,  ,#        
             '#######'   ##     ##  '#######'  #'      '#     #####' # '####'        



                  #######################################################
                  #                        -***-                        #
                  #          Department of theory and spectroscopy      #
                  #    Directorship and core code : Frank Neese         #
                  #        Max Planck Institute fuer Kohlenforschung    #
                  #                Kaiser Wilhelm Platz 1               #
                  #                 D-45470 Muelheim/Ruhr               #
                  #                      Germany                        #
                  #                                                     #
                  #                  All rights reserved                #
                  #                        -***-                        #
                  #######################################################


                         Program Version 5.0.4 -  RELEASE  -


 With contributions from (in alphabetic order):
   Daniel Aravena         : Magnetic Suceptibility
   Michael Atanasov       : Ab Initio Ligand Field Theory (pilot matlab implementation)
   Alexander A. Auer      : GIAO ZORA, VPT2 properties, NMR spectrum
   Ute Becker             : Parallelization
   Giovanni Bistoni       : ED, misc. LED, open-shell LED, HFLD
   Martin Brehm           : Molecular dynamics
   Dmytro Bykov           : SCF Hessian
   Vijay G. Chilkuri      : MRCI spin determinant printing, contributions to CSF-ICE
   Dipayan Datta          : RHF DLPNO-CCSD density
   Achintya Kumar Dutta   : EOM-CC, STEOM-CC
   Dmitry Ganyushin       : Spin-Orbit,Spin-Spin,Magnetic field MRCI
   Miquel Garcia          : C-PCM and meta-GGA Hessian, CC/C-PCM, Gaussian charge scheme
   Yang Guo               : DLPNO-NEVPT2, F12-NEVPT2, CIM, IAO-localization
   Andreas Hansen         : Spin unrestricted coupled pair/coupled cluster methods
   Benjamin Helmich-Paris : MC-RPA, TRAH-SCF, COSX integrals
   Lee Huntington         : MR-EOM, pCC
   Robert Izsak           : Overlap fitted RIJCOSX, COSX-SCS-MP3, EOM
   Marcus Kettner         : VPT2
   Christian Kollmar      : KDIIS, OOCD, Brueckner-CCSD(T), CCSD density, CASPT2, CASPT2-K
   Simone Kossmann        : Meta GGA functionals, TD-DFT gradient, OOMP2, MP2 Hessian
   Martin Krupicka        : Initial AUTO-CI
   Lucas Lang             : DCDCAS
   Marvin Lechner         : AUTO-CI (C++ implementation), FIC-MRCC
   Dagmar Lenk            : GEPOL surface, SMD
   Dimitrios Liakos       : Extrapolation schemes; Compound Job, initial MDCI parallelization
   Dimitrios Manganas     : Further ROCIS development; embedding schemes
   Dimitrios Pantazis     : SARC Basis sets
   Anastasios Papadopoulos: AUTO-CI, single reference methods and gradients
   Taras Petrenko         : DFT Hessian,TD-DFT gradient, ASA, ECA, R-Raman, ABS, FL, XAS/XES, NRVS
   Peter Pinski           : DLPNO-MP2, DLPNO-MP2 Gradient
   Christoph Reimann      : Effective Core Potentials
   Marius Retegan         : Local ZFS, SOC
   Christoph Riplinger    : Optimizer, TS searches, QM/MM, DLPNO-CCSD(T), (RO)-DLPNO pert. Triples
   Tobias Risthaus        : Range-separated hybrids, TD-DFT gradient, RPA, STAB
   Michael Roemelt        : Original ROCIS implementation
   Masaaki Saitow         : Open-shell DLPNO-CCSD energy and density
   Barbara Sandhoefer     : DKH picture change effects
   Avijit Sen             : IP-ROCIS
   Kantharuban Sivalingam : CASSCF convergence, NEVPT2, FIC-MRCI
   Bernardo de Souza      : ESD, SOC TD-DFT
   Georgi Stoychev        : AutoAux, RI-MP2 NMR, DLPNO-MP2 response
   Willem Van den Heuvel  : Paramagnetic NMR
   Boris Wezisla          : Elementary symmetry handling
   Frank Wennmohs         : Technical directorship


 We gratefully acknowledge several colleagues who have allowed us to
 interface, adapt or use parts of their codes:
   Stefan Grimme, W. Hujo, H. Kruse, P. Pracht,  : VdW corrections, initial TS optimization,
                  C. Bannwarth, S. Ehlert          DFT functionals, gCP, sTDA/sTD-DF
   Ed Valeev, F. Pavosevic, A. Kumar             : LibInt (2-el integral package), F12 methods
   Garnet Chan, S. Sharma, J. Yang, R. Olivares  : DMRG
   Ulf Ekstrom                                   : XCFun DFT Library
   Mihaly Kallay                                 : mrcc  (arbitrary order and MRCC methods)
   Jiri Pittner, Ondrej Demel                    : Mk-CCSD
   Frank Weinhold                                : gennbo (NPA and NBO analysis)
   Christopher J. Cramer and Donald G. Truhlar   : smd solvation model
   Lars Goerigk                                  : TD-DFT with DH, B97 family of functionals
   V. Asgeirsson, H. Jonsson                     : NEB implementation
   FAccTs GmbH                                   : IRC, NEB, NEB-TS, DLPNO-Multilevel, CI-OPT
                                                   MM, QMMM, 2- and 3-layer-ONIOM, Crystal-QMMM,
                                                   LR-CPCM, SF, NACMEs, symmetry and pop. for TD-DFT,
                                                   nearIR, NL-DFT gradient (VV10), updates on ESD,
                                                   ML-optimized integration grids
   S Lehtola, MJT Oliveira, MAL Marques          : LibXC Library
   Liviu Ungur et al                             : ANISO software


 Your calculation uses the libint2 library for the computation of 2-el integrals
 For citations please refer to: http://libint.valeyev.net

 Your ORCA version has been built with support for libXC version: 5.1.0
 For citations please refer to: https://tddft.org/programs/libxc/

 This ORCA versions uses:
   CBLAS   interface :  Fast vector & matrix operations
   LAPACKE interface :  Fast linear algebra routines
   SCALAPACK package :  Parallel linear algebra routines
   Shared memory     :  Shared parallel matrices
   BLAS/LAPACK       :  OpenBLAS 0.3.15  USE64BITINT DYNAMIC_ARCH NO_AFFINITY Zen SINGLE_THREADED
        Core in use  :  Zen
   Copyright (c) 2011-2014, The OpenBLAS Project




***************************************
The coordinates will be read from file: opt.xyz
***************************************


================================================================================

----- Orbital basis set information -----
Your calculation utilizes the basis: EPR-II
   V. Barone, in Recent Advances in Density Functional Methods, Part 1 (ed. D. P. Chong), World Scientific, Singapore, 1995, p. 287.

----- AuxJ basis set information -----
Your calculation utilizes the AutoAux generation procedure.
  G. L. Stoychev, A. A. Auer, F. Neese, J. Chem. Theory Comput. 13, 554 (2017)

----- AuxC basis set information -----
Your calculation utilizes the AutoAux generation procedure.
  G. L. Stoychev, A. A. Auer, F. Neese, J. Chem. Theory Comput. 13, 554 (2017)

----- AuxJK basis set information -----
Your calculation utilizes the AutoAux generation procedure.
  G. L. Stoychev, A. A. Auer, F. Neese, J. Chem. Theory Comput. 13, 554 (2017)

================================================================================
                                        WARNINGS
                       Please study these warnings very carefully!
================================================================================


WARNING: your system is open-shell and RHF/RKS was chosen
  ===> : WILL SWITCH to UHF/UKS


INFO   : the flag for use of the SHARK integral package has been found!

================================================================================
                                       INPUT FILE
================================================================================
NAME = epr_info.inp
|  1> ! B3LYP EPR-II AUTOAUX
|  2> %pal nprocs 16 end
|  3> *XYZFile 0 2 opt.xyz
|  4> %EPRNMR
|  5>         GTENSOR   TRUE
|  6>         NUCLEI    = 1,4,7,8,10,11,12,13,15,16,17,27 {SHIFT, AISO, ADIP, AORB}
|  7>         ORI       GIAO
|  8> END
|  9> 
| 10>                          ****END OF INPUT****
================================================================================

                       ****************************
                       * Single Point Calculation *
                       ****************************

---------------------------------
CARTESIAN COORDINATES (ANGSTROEM)
---------------------------------
  N     -4.130930   -4.512757   -0.658838
  C     -2.691215   -4.637412   -0.482982
  C     -2.442690   -4.772966    1.044244
  O     -3.241304   -4.317106    1.862989
  C     -1.907103   -3.459516   -1.019021
  C     -2.357872   -2.042572   -0.787855
  H     -3.000406   -1.965076    0.091701
  H     -1.487063   -1.388317   -0.657874
  C     -3.157355   -1.506927   -1.981090
  O     -2.364091   -1.294006   -3.061234
  O     -4.353070   -1.298033   -1.992664
  H     -4.655229   -4.252099    0.166219
  H     -2.345958   -5.542344   -0.995444
  C     -4.711857   -4.570741   -1.898003
  N     -1.276240   -5.391733    1.380281
  H     -2.950481   -1.025083   -3.787039
  H     -0.681112   -5.715298    0.632632
  O     -4.055441   -4.808665   -2.912449
  C     -6.209074   -4.296571   -1.936846
  H     -6.349268   -3.254204   -2.240573
  H     -6.665892   -4.941586   -2.689552
  H     -6.697174   -4.449074   -0.970306
  C     -0.813293   -5.531839    2.756829
  H     -0.597763   -6.579943    2.986371
  H      0.087335   -4.933494    2.933543
  H     -1.607738   -5.177528    3.413784
  H     -1.072794   -3.643545   -1.688766

----------------------------
CARTESIAN COORDINATES (A.U.)
----------------------------
  NO LB      ZA    FRAG     MASS         X           Y           Z
   0 N     7.0000    0    14.007   -7.806326   -8.527875   -1.245023
   1 C     6.0000    0    12.011   -5.085659   -8.763438   -0.912704
   2 C     6.0000    0    12.011   -4.616015   -9.019599    1.973336
   3 O     8.0000    0    15.999   -6.125177   -8.158149    3.520540
   4 C     6.0000    0    12.011   -3.603903   -6.537538   -1.925671
   5 C     6.0000    0    12.011   -4.455733   -3.859902   -1.488831
   6 H     1.0000    0     1.008   -5.669946   -3.713456    0.173289
   7 H     1.0000    0     1.008   -2.810142   -2.623538   -1.243202
   8 C     6.0000    0    12.011   -5.966537   -2.847679   -3.743717
   9 O     8.0000    0    15.999   -4.467485   -2.445317   -5.784894
  10 O     8.0000    0    15.999   -8.226110   -2.452927   -3.765588
  11 H     1.0000    0     1.008   -8.797109   -8.035302    0.314109
  12 H     1.0000    0     1.008   -4.433219  -10.473513   -1.881116
  13 C     6.0000    0    12.011   -8.904119   -8.637448   -3.586706
  14 N     7.0000    0    14.007   -2.411744  -10.188899    2.608354
  15 H     1.0000    0     1.008   -5.575602   -1.937126   -7.156467
  16 H     1.0000    0     1.008   -1.287115  -10.800349    1.195502
  17 O     8.0000    0    15.999   -7.663673   -9.087060   -5.503730
  18 C     6.0000    0    12.011  -11.733450   -8.119343   -3.660108
  19 H     1.0000    0     1.008  -11.998377   -6.149555   -4.234069
  20 H     1.0000    0     1.008  -12.596711   -9.338243   -5.082518
  21 H     1.0000    0     1.008  -12.655825   -8.407531   -1.833613
  22 C     6.0000    0    12.011   -1.536901  -10.453661    5.209651
  23 H     1.0000    0     1.008   -1.129608  -12.434290    5.643424
  24 H     1.0000    0     1.008    0.165040   -9.322952    5.543593
  25 H     1.0000    0     1.008   -3.038184   -9.784110    6.451116
  26 H     1.0000    0     1.008   -2.027287   -6.885303   -3.191305

--------------------------------
INTERNAL COORDINATES (ANGSTROEM)
--------------------------------
 N      0   0   0     0.000000000000     0.00000000     0.00000000
 C      1   0   0     1.455762258447     0.00000000     0.00000000
 C      2   1   0     1.553242066376   106.52834130     0.00000000
 O      3   2   1     1.231233967751   121.18118027   334.47761328
 C      2   1   3     1.513144434664   113.76819057   239.29469192
 C      5   2   1     1.504779629159   121.55733872    43.11643995
 H      6   5   2     1.092004546052   111.51951337    23.49920172
 H      6   5   2     1.096929134971   110.00019651   144.84829644
 C      6   5   2     1.532937592007   111.44945076   263.76630783
 O      9   6   5     1.356950569950   111.68802974   289.22582959
 O      9   6   5     1.213879610985   125.54098315   108.72195999
 H      1   2   3     1.011707597241   115.85327044    18.00011829
 H      2   1   3     1.095774373663   109.01569461   118.32506298
 C      1   2   3     1.369805857665   121.67319818   189.68536890
 N      3   2   1     1.362497054250   114.77888893   156.15529939
 H     10   9   6     0.971064592723   106.58290936   175.68133301
 H     15   3   2     1.008885963403   117.89726009   359.41988100
 O     14   1   2     1.231498741501   121.82409654     4.32521736
 C     14   1   2     1.522608928717   115.62489776   185.43405148
 H     19  14   1     1.094730060564   107.72551487    98.93020407
 H     19  14   1     1.091463785297   108.82861656   216.41093582
 H     19  14   1     1.093479659063   113.03336790   338.80198487
 C     15   3   2     1.459051722847   123.22542046   175.48826275
 H     23  15   3     1.094378694704   110.63052402   126.18582382
 H     23  15   3     1.095617076786   111.13417201   247.55095984
 H     23  15   3     1.090077271220   107.82650780     6.86610953
 H      5   2   1     1.085586036257   119.00246969   230.91521653

---------------------------
INTERNAL COORDINATES (A.U.)
---------------------------
 N      0   0   0     0.000000000000     0.00000000     0.00000000
 C      1   0   0     2.750991984564     0.00000000     0.00000000
 C      2   1   0     2.935202125137   106.52834130     0.00000000
 O      3   2   1     2.326695005831   121.18118027   334.47761328
 C      2   1   3     2.859428582581   113.76819057   239.29469192
 C      5   2   1     2.843621391014   121.55733872    43.11643995
 H      6   5   2     2.063589529036   111.51951337    23.49920172
 H      6   5   2     2.072895653415   110.00019651   144.84829644
 C      6   5   2     2.896832229287   111.44945076   263.76630783
 O      9   6   5     2.564264954473   111.68802974   289.22582959
 O      9   6   5     2.293900024313   125.54098315   108.72195999
 H      1   2   3     1.911850286393   115.85327044    18.00011829
 H      2   1   3     2.070713470792   109.01569461   118.32506298
 C      1   2   3     2.588557927629   121.67319818   189.68536890
 N      3   2   1     2.574746290808   114.77888893   156.15529939
 H     10   9   6     1.835046138594   106.58290936   175.68133301
 H     15   3   2     1.906518171189   117.89726009   359.41988100
 O     14   1   2     2.327195355706   121.82409654     4.32521736
 C     14   1   2     2.877313884339   115.62489776   185.43405148
 H     19  14   1     2.068740005038   107.72551487    98.93020407
 H     19  14   1     2.062567639304   108.82861656   216.41093582
 H     19  14   1     2.066377088643   113.03336790   338.80198487
 C     15   3   2     2.757208171407   123.22542046   175.48826275
 H     23  15   3     2.068076019790   110.63052402   126.18582382
 H     23  15   3     2.070416222772   111.13417201   247.55095984
 H     23  15   3     2.059947507417   107.82650780     6.86610953
 H      5   2   1     2.051460303335   119.00246969   230.91521653

---------------------
BASIS SET INFORMATION
---------------------
There are 4 groups of distinct atoms

 Group   1 Type N   : 10s5p1d contracted to 6s2p1d pattern {511111/41/1}
 Group   2 Type C   : 10s5p1d contracted to 6s2p1d pattern {511111/41/1}
 Group   3 Type O   : 10s5p1d contracted to 6s2p1d pattern {511111/41/1}
 Group   4 Type H   : 6s1p contracted to 4s1p pattern {3111/1}

Atom   0N    basis set group =>   1
Atom   1C    basis set group =>   2
Atom   2C    basis set group =>   2
Atom   3O    basis set group =>   3
Atom   4C    basis set group =>   2
Atom   5C    basis set group =>   2
Atom   6H    basis set group =>   4
Atom   7H    basis set group =>   4
Atom   8C    basis set group =>   2
Atom   9O    basis set group =>   3
Atom  10O    basis set group =>   3
Atom  11H    basis set group =>   4
Atom  12H    basis set group =>   4
Atom  13C    basis set group =>   2
Atom  14N    basis set group =>   1
Atom  15H    basis set group =>   4
Atom  16H    basis set group =>   4
Atom  17O    basis set group =>   3
Atom  18C    basis set group =>   2
Atom  19H    basis set group =>   4
Atom  20H    basis set group =>   4
Atom  21H    basis set group =>   4
Atom  22C    basis set group =>   2
Atom  23H    basis set group =>   4
Atom  24H    basis set group =>   4
Atom  25H    basis set group =>   4
Atom  26H    basis set group =>   4
---------------------------------
AUXILIARY/J BASIS SET INFORMATION
---------------------------------
There are 4 groups of distinct atoms

 Group   1 Type N   : 17s13p12d2f contracted to 17s13p12d2f pattern {11111111111111111/1111111111111/111111111111/11}
 Group   2 Type C   : 17s13p12d2f contracted to 17s13p12d2f pattern {11111111111111111/1111111111111/111111111111/11}
 Group   3 Type O   : 17s13p12d2f contracted to 17s13p12d2f pattern {11111111111111111/1111111111111/111111111111/11}
 Group   4 Type H   : 15s6p1d contracted to 15s6p1d pattern {111111111111111/111111/1}

Atom   0N    basis set group =>   1
Atom   1C    basis set group =>   2
Atom   2C    basis set group =>   2
Atom   3O    basis set group =>   3
Atom   4C    basis set group =>   2
Atom   5C    basis set group =>   2
Atom   6H    basis set group =>   4
Atom   7H    basis set group =>   4
Atom   8C    basis set group =>   2
Atom   9O    basis set group =>   3
Atom  10O    basis set group =>   3
Atom  11H    basis set group =>   4
Atom  12H    basis set group =>   4
Atom  13C    basis set group =>   2
Atom  14N    basis set group =>   1
Atom  15H    basis set group =>   4
Atom  16H    basis set group =>   4
Atom  17O    basis set group =>   3
Atom  18C    basis set group =>   2
Atom  19H    basis set group =>   4
Atom  20H    basis set group =>   4
Atom  21H    basis set group =>   4
Atom  22C    basis set group =>   2
Atom  23H    basis set group =>   4
Atom  24H    basis set group =>   4
Atom  25H    basis set group =>   4
Atom  26H    basis set group =>   4
---------------------------------
AUXILIARY/C BASIS SET INFORMATION
---------------------------------
There are 4 groups of distinct atoms

 Group   1 Type N   : 17s13p12d2f contracted to 17s13p12d2f pattern {11111111111111111/1111111111111/111111111111/11}
 Group   2 Type C   : 17s13p12d2f contracted to 17s13p12d2f pattern {11111111111111111/1111111111111/111111111111/11}
 Group   3 Type O   : 17s13p12d2f contracted to 17s13p12d2f pattern {11111111111111111/1111111111111/111111111111/11}
 Group   4 Type H   : 15s6p1d contracted to 15s6p1d pattern {111111111111111/111111/1}

Atom   0N    basis set group =>   1
Atom   1C    basis set group =>   2
Atom   2C    basis set group =>   2
Atom   3O    basis set group =>   3
Atom   4C    basis set group =>   2
Atom   5C    basis set group =>   2
Atom   6H    basis set group =>   4
Atom   7H    basis set group =>   4
Atom   8C    basis set group =>   2
Atom   9O    basis set group =>   3
Atom  10O    basis set group =>   3
Atom  11H    basis set group =>   4
Atom  12H    basis set group =>   4
Atom  13C    basis set group =>   2
Atom  14N    basis set group =>   1
Atom  15H    basis set group =>   4
Atom  16H    basis set group =>   4
Atom  17O    basis set group =>   3
Atom  18C    basis set group =>   2
Atom  19H    basis set group =>   4
Atom  20H    basis set group =>   4
Atom  21H    basis set group =>   4
Atom  22C    basis set group =>   2
Atom  23H    basis set group =>   4
Atom  24H    basis set group =>   4
Atom  25H    basis set group =>   4
Atom  26H    basis set group =>   4
----------------------------------
AUXILIARY/JK BASIS SET INFORMATION
----------------------------------
There are 4 groups of distinct atoms

 Group   1 Type N   : 17s13p12d2f contracted to 17s13p12d2f pattern {11111111111111111/1111111111111/111111111111/11}
 Group   2 Type C   : 17s13p12d2f contracted to 17s13p12d2f pattern {11111111111111111/1111111111111/111111111111/11}
 Group   3 Type O   : 17s13p12d2f contracted to 17s13p12d2f pattern {11111111111111111/1111111111111/111111111111/11}
 Group   4 Type H   : 15s6p1d contracted to 15s6p1d pattern {111111111111111/111111/1}

Atom   0N    basis set group =>   1
Atom   1C    basis set group =>   2
Atom   2C    basis set group =>   2
Atom   3O    basis set group =>   3
Atom   4C    basis set group =>   2
Atom   5C    basis set group =>   2
Atom   6H    basis set group =>   4
Atom   7H    basis set group =>   4
Atom   8C    basis set group =>   2
Atom   9O    basis set group =>   3
Atom  10O    basis set group =>   3
Atom  11H    basis set group =>   4
Atom  12H    basis set group =>   4
Atom  13C    basis set group =>   2
Atom  14N    basis set group =>   1
Atom  15H    basis set group =>   4
Atom  16H    basis set group =>   4
Atom  17O    basis set group =>   3
Atom  18C    basis set group =>   2
Atom  19H    basis set group =>   4
Atom  20H    basis set group =>   4
Atom  21H    basis set group =>   4
Atom  22C    basis set group =>   2
Atom  23H    basis set group =>   4
Atom  24H    basis set group =>   4
Atom  25H    basis set group =>   4
Atom  26H    basis set group =>   4


           ************************************************************
           *        Program running with 16 parallel MPI-processes    *
           *              working on a common directory               *
           ************************************************************
------------------------------------------------------------------------------
                           ORCA GTO INTEGRAL CALCULATION
                           -- RI-GTO INTEGRALS CHOSEN --
------------------------------------------------------------------------------
------------------------------------------------------------------------------
                   ___                                                        
                  /   \      - P O W E R E D   B Y -                         
                 /     \                                                     
                 |  |  |   _    _      __       _____    __    __             
                 |  |  |  | |  | |    /  \     |  _  \  |  |  /  |          
                  \  \/   | |  | |   /    \    | | | |  |  | /  /          
                 / \  \   | |__| |  /  /\  \   | |_| |  |  |/  /          
                |  |  |   |  __  | /  /__\  \  |    /   |      \           
                |  |  |   | |  | | |   __   |  |    \   |  |\   \          
                \     /   | |  | | |  |  |  |  | |\  \  |  | \   \       
                 \___/    |_|  |_| |__|  |__|  |_| \__\ |__|  \__/        
                                                                              
                      - O R C A' S   B I G   F R I E N D -                    
                                      &                                       
                       - I N T E G R A L  F E E D E R -                       
                                                                              
 v1 FN, 2020, v2 2021                                                         
------------------------------------------------------------------------------


Reading SHARK input file epr_info.SHARKINP.tmp ... ok
----------------------
SHARK INTEGRAL PACKAGE
----------------------

Number of atoms                             ...     27
Number of basis functions                   ...    329
Number of shells                            ...    191
Maximum angular momentum                    ...      2
Integral batch strategy                     ... SHARK/LIBINT Hybrid
RI-J (if used) integral strategy            ... SPLIT-RIJ (Revised 2003 algorithm where possible)
Printlevel                                  ...      1
Contraction scheme used                     ... SEGMENTED contraction
Coulomb Range Separation                    ... NOT USED
Exchange Range Separation                   ... NOT USED
Finite Nucleus Model                        ... NOT USED
Auxiliary Coulomb fitting basis             ... AVAILABLE
   # of basis functions in Aux-J            ...   2314
   # of shells in Aux-J                     ...    902
   Maximum angular momentum in Aux-J        ...      3
Auxiliary J/K fitting basis                 ... AVAILABLE
   # of basis functions in Aux-JK           ...   2314
   # of shells in Aux-JK                    ...    902
   Maximum angular momentum in Aux-JK       ...      3
Auxiliary Correlation fitting basis         ... AVAILABLE
   # of basis functions in Aux-C            ...   2314
   # of shells in Aux-C                     ...    902
   Maximum angular momentum in Aux-C        ...      3
Auxiliary 'external' fitting basis          ... NOT available
Integral threshold                          ...     1.000000e-10
Primitive cut-off                           ...     1.000000e-11
Primitive pair pre-selection threshold      ...     1.000000e-11

Calculating pre-screening integrals         ... done (  0.0 sec) Dimension = 191
Organizing shell pair data                  ... done (  0.0 sec)
Shell pair information
Total number of shell pairs                 ...     18336
Shell pairs after pre-screening             ...     12748
Total number of primitive shell pairs       ...     50033
Primitive shell pairs kept                  ...     25187
          la=0 lb=0:   5768 shell pairs
          la=1 lb=0:   4338 shell pairs
          la=1 lb=1:    759 shell pairs
          la=2 lb=0:   1307 shell pairs
          la=2 lb=1:    490 shell pairs
          la=2 lb=2:     86 shell pairs

Calculating one electron integrals          ... done (  0.0 sec)
Calculating RI/J V-Matrix + Cholesky decomp.... done (  0.3 sec)
Calculating RI/JK V-Matrix + Cholesky decomp... done (  0.3 sec)
Calculating RI/C V-Matrix + Cholesky decomp.... done (  0.3 sec)
Calculating Nuclear repulsion               ... done (  0.0 sec) ENN=    936.730668585684 Eh

SHARK setup successfully completed in   1.0 seconds

Maximum memory used throughout the entire GTOINT-calculation: 24.3 MB


           ************************************************************
           *        Program running with 16 parallel MPI-processes    *
           *              working on a common directory               *
           ************************************************************
-------------------------------------------------------------------------------
                                 ORCA SCF
-------------------------------------------------------------------------------

------------
SCF SETTINGS
------------
Hamiltonian:
 Density Functional     Method          .... DFT(GTOs)
 Exchange Functional    Exchange        .... B88
   X-Alpha parameter    XAlpha          ....  0.666667
   Becke's b parameter  XBeta           ....  0.004200
 Correlation Functional Correlation     .... LYP
 LDA part of GGA corr.  LDAOpt          .... VWN-5
 Gradients option       PostSCFGGA      .... off
 Hybrid DFT is turned on
   Fraction HF Exchange ScalHFX         ....  0.200000
   Scaling of DF-GGA-X  ScalDFX         ....  0.720000
   Scaling of DF-GGA-C  ScalDFC         ....  0.810000
   Scaling of DF-LDA-C  ScalLDAC        ....  1.000000
   Perturbative correction              ....  0.000000
   Density functional embedding theory  .... OFF
   NL short-range parameter             ....  4.800000
 RI-approximation to the Coulomb term is turned on
   Number of AuxJ basis functions       .... 2314
   RIJ-COSX (HFX calculated with COS-X)).... on


General Settings:
 Integral files         IntName         .... epr_info
 Hartree-Fock type      HFTyp           .... UHF
 Total Charge           Charge          ....    0
 Multiplicity           Mult            ....    2
 Number of Electrons    NEL             ....  107
 Basis Dimension        Dim             ....  329
 Nuclear Repulsion      ENuc            ....    936.7306685857 Eh

Convergence Acceleration:
 DIIS                   CNVDIIS         .... on
   Start iteration      DIISMaxIt       ....    12
   Startup error        DIISStart       ....  0.200000
   # of expansion vecs  DIISMaxEq       ....     5
   Bias factor          DIISBfac        ....   1.050
   Max. coefficient     DIISMaxC        ....  10.000
 Trust-Rad. Augm. Hess. CNVTRAH         .... auto
   Auto Start mean grad. ratio tolernc. ....  1.125000
   Auto Start start iteration           ....    20
   Auto Start num. interpolation iter.  ....    10
   Max. Number of Micro iterations      ....    16
   Max. Number of Macro iterations      .... Maxiter - #DIIS iter
   Number of Davidson start vectors     ....     2
   Converg. threshold I  (grad. norm)   ....   5.000e-05
   Converg. threshold II (energy diff.) ....   1.000e-06
   Grad. Scal. Fac. for Micro threshold ....   0.100
   Minimum threshold for Micro iter.    ....   0.010
   NR start threshold (gradient norm)   ....   0.001
   Initial trust radius                 ....   0.400
   Minimum AH scaling param. (alpha)    ....   1.000
   Maximum AH scaling param. (alpha)    .... 1000.000
   Orbital update algorithm             .... Taylor
   White noise on init. David. guess    .... on
   Maximum white noise                  ....   0.010
   Quad. conv. algorithm                .... NR
 SOSCF                  CNVSOSCF        .... off
 Level Shifting         CNVShift        .... on
   Level shift para.    LevelShift      ....    0.2500
   Turn off err/grad.   ShiftErr        ....    0.0010
 Zerner damping         CNVZerner       .... off
 Static damping         CNVDamp         .... on
   Fraction old density DampFac         ....    0.7000
   Max. Damping (<1)    DampMax         ....    0.9800
   Min. Damping (>=0)   DampMin         ....    0.0000
   Turn off err/grad.   DampErr         ....    0.1000
 Fernandez-Rico         CNVRico         .... off

SCF Procedure:
 Maximum # iterations   MaxIter         ....   125
 SCF integral mode      SCFMode         .... Direct
   Integral package                     .... SHARK and LIBINT hybrid scheme
 Reset frequency        DirectResetFreq ....    20
 Integral Threshold     Thresh          ....  1.000e-10 Eh
 Primitive CutOff       TCut            ....  1.000e-11 Eh

Convergence Tolerance:
 Convergence Check Mode ConvCheckMode   .... Total+1el-Energy
 Convergence forced     ConvForced      .... 0
 Energy Change          TolE            ....  1.000e-06 Eh
 1-El. energy change                    ....  1.000e-03 Eh
 DIIS Error             TolErr          ....  1.000e-06


Diagonalization of the overlap matrix:
Smallest eigenvalue                        ... 9.356e-04
Time for diagonalization                   ...    0.011 sec
Threshold for overlap eigenvalues          ... 1.000e-08
Number of eigenvalues below threshold      ... 0
Time for construction of square roots      ...    0.009 sec
Total time needed                          ...    0.020 sec

Time for model grid setup =    0.096 sec

------------------------------
INITIAL GUESS: MODEL POTENTIAL
------------------------------
Loading Hartree-Fock densities                     ... done
Calculating cut-offs                               ... done
Initializing the effective Hamiltonian             ... done
Setting up the integral package (SHARK)            ... done
Starting the Coulomb interaction                   ... done (   0.0 sec)
Reading the grid                                   ... done
Mapping shells                                     ... done
Starting the XC term evaluation                    ... done (   0.0 sec)
  promolecular density results
     # of electrons  =    106.991834658
     EX              =    -90.900876247
     EC              =     -3.672450975
     EX+EC           =    -94.573327222
Transforming the Hamiltonian                       ... done (   0.0 sec)
Diagonalizing the Hamiltonian                      ... done (   0.0 sec)
Back transforming the eigenvectors                 ... done (   0.0 sec)
Now organizing SCF variables                       ... done
                      ------------------
                      INITIAL GUESS DONE (   0.3 sec)
                      ------------------
-------------------
DFT GRID GENERATION
-------------------

General Integration Accuracy     IntAcc      ... 4.388
Radial Grid Type                 RadialGrid  ... OptM3 with GC (2021)
Angular Grid (max. ang.)         AngularGrid ... 4 (Lebedev-302)
Angular grid pruning method      GridPruning ... 4 (adaptive)
Weight generation scheme         WeightScheme... Becke
Basis function cutoff            BFCut       ... 1.0000e-10
Integration weight cutoff        WCut        ... 1.0000e-14
Angular grids for H and He will be reduced by one unit
Partially contracted basis set               ... off
Rotationally invariant grid construction     ... off

Total number of grid points                  ...   125922
Total number of batches                      ...     1982
Average number of points per batch           ...       63
Average number of grid points per atom       ...     4664
Time for grid setup =    0.509 sec

--------------------
COSX GRID GENERATION
--------------------

GRIDX 1
-------
General Integration Accuracy     IntAcc      ... 3.816
Radial Grid Type                 RadialGrid  ... OptM3 with GC (2021)
Angular Grid (max. ang.)         AngularGrid ... 1 (Lebedev-50)
Angular grid pruning method      GridPruning ... 4 (adaptive)
Weight generation scheme         WeightScheme... Becke
Basis function cutoff            BFCut       ... 1.0000e-10
Integration weight cutoff        WCut        ... 1.0000e-14
Angular grids for H and He will be reduced by one unit
Partially contracted basis set               ... on
Rotationally invariant grid construction     ... off

Total number of grid points                  ...    16056
Total number of batches                      ...      269
Average number of points per batch           ...       59
Average number of grid points per atom       ...      595
UseSFitting                                  ... on

GRIDX 2
-------
General Integration Accuracy     IntAcc      ... 4.020
Radial Grid Type                 RadialGrid  ... OptM3 with GC (2021)
Angular Grid (max. ang.)         AngularGrid ... 2 (Lebedev-110)
Angular grid pruning method      GridPruning ... 4 (adaptive)
Weight generation scheme         WeightScheme... Becke
Basis function cutoff            BFCut       ... 1.0000e-10
Integration weight cutoff        WCut        ... 1.0000e-14
Angular grids for H and He will be reduced by one unit
Partially contracted basis set               ... on
Rotationally invariant grid construction     ... off

Total number of grid points                  ...    34736
Total number of batches                      ...      557
Average number of points per batch           ...       62
Average number of grid points per atom       ...     1287
UseSFitting                                  ... on

GRIDX 3
-------
General Integration Accuracy     IntAcc      ... 4.338
Radial Grid Type                 RadialGrid  ... OptM3 with GC (2021)
Angular Grid (max. ang.)         AngularGrid ... 3 (Lebedev-194)
Angular grid pruning method      GridPruning ... 4 (adaptive)
Weight generation scheme         WeightScheme... Becke
Basis function cutoff            BFCut       ... 1.0000e-10
Integration weight cutoff        WCut        ... 1.0000e-14
Angular grids for H and He will be reduced by one unit
Partially contracted basis set               ... on
Rotationally invariant grid construction     ... off

Total number of grid points                  ...    75950
Total number of batches                      ...     1201
Average number of points per batch           ...       63
Average number of grid points per atom       ...     2813
UseSFitting                                  ... on

Time for X-Grid setup             =    0.568 sec

--------------
SCF ITERATIONS
--------------
ITER       Energy         Delta-E        Max-DP      RMS-DP      [F,P]     Damp
               ***  Starting incremental Fock matrix formation  ***
  0   -722.3306301967   0.000000000000 0.06425931  0.00107386  0.1310196 0.7000
  1   -722.5782221076  -0.247591910913 0.03835631  0.00072825  0.0508363 0.7000
                               ***Turning on DIIS***
  2   -722.6617701666  -0.083548058917 0.05995036  0.00109030  0.0181839 0.0000
  3   -722.8100891117  -0.148318945162 0.03370446  0.00053797  0.0247091 0.0000
  4   -722.8372079177  -0.027118806015 0.01310418  0.00018725  0.0077317 0.0000
  5   -722.8396269668  -0.002419049056 0.00523462  0.00006426  0.0026008 0.0000
  6   -722.8398384773  -0.000211510498 0.00304537  0.00004498  0.0006879 0.0000
               *** Restarting incremental Fock matrix formation ***
                                   *** Resetting DIIS ***
  7   -722.8398414984  -0.000003021130 0.00177902  0.00002363  0.0007835 0.0000
  8   -722.8398243139   0.000017184537 0.00082259  0.00000929  0.0014122 0.0000
  9   -722.8398542115  -0.000029897661 0.00041056  0.00000547  0.0003065 0.0000
 10   -722.8398565430  -0.000002331472 0.00025740  0.00000228  0.0001048 0.0000
                 **** Energy Check signals convergence ****

               *****************************************************
               *                     SUCCESS                       *
               *           SCF CONVERGED AFTER  11 CYCLES          *
               *****************************************************

Old exchange energy                            =    -18.428174014 Eh
New exchange energy                            =    -18.428206047 Eh
Exchange energy change after final integration =     -0.000032033 Eh
Total energy after final integration           =   -722.839888859 Eh
Final COS-X integration done in                =     1.739 sec

----------------
TOTAL SCF ENERGY
----------------

Total Energy       :         -722.83988886 Eh          -19669.47335 eV

Components:
Nuclear Repulsion  :          936.73066859 Eh           25489.73737 eV
Electronic Energy  :        -1659.57055744 Eh          -45159.21072 eV
One Electron Energy:        -2845.87976358 Eh          -77440.32536 eV
Two Electron Energy:         1186.30920613 Eh           32281.11464 eV
Max COSX asymmetry :            0.00000098 Eh               0.00003 eV

Virial components:
Potential Energy   :        -1440.89999327 Eh          -39208.88216 eV
Kinetic Energy     :          718.06010441 Eh           19539.40881 eV
Virial Ratio       :            2.00665652


DFT components:
N(Alpha)           :       54.000007044239 electrons
N(Beta)            :       53.000004154997 electrons
N(Total)           :      107.000011199235 electrons
E(X)               :      -73.289235324821 Eh       
E(C)               :       -4.323406787795 Eh       
E(XC)              :      -77.612642112616 Eh       
DFET-embed. en.    :        0.000000000000 Eh       

---------------
SCF CONVERGENCE
---------------

  Last Energy change         ...   -2.8328e-07  Tolerance :   1.0000e-06
  Last MAX-Density change    ...    0.0000e+00  Tolerance :   1.0000e-05
  Last RMS-Density change    ...    0.0000e+00  Tolerance :   1.0000e-06
  Last DIIS Error            ...    1.1775e-04  Tolerance :   1.0000e-06

             **** THE GBW FILE WAS UPDATED (epr_info.gbw) ****
             **** DENSITY epr_info.scfp WAS UPDATED ****
             **** ENERGY FILE WAS UPDATED (epr_info.en.tmp) ****
----------------------
UHF SPIN CONTAMINATION
----------------------

Warning: in a DFT calculation there is little theoretical justification to 
         calculate <S**2> as in Hartree-Fock theory. We will do it anyways
         but you should keep in mind that the values have only limited relevance

Expectation value of <S**2>     :     0.754601
Ideal value S*(S+1) for S=0.5   :     0.750000
Deviation                       :     0.004601

             **** THE GBW FILE WAS UPDATED (epr_info.gbw) ****
             **** DENSITY epr_info.scfp WAS UPDATED ****
----------------
ORBITAL ENERGIES
----------------
                 SPIN UP ORBITALS
  NO   OCC          E(Eh)            E(eV) 
   0   1.0000     -19.193360      -522.2779 
   1   1.0000     -19.140986      -520.8527 
   2   1.0000     -19.128526      -520.5137 
   3   1.0000     -19.101240      -519.7712 
   4   1.0000     -14.378065      -391.2470 
   5   1.0000     -14.351676      -390.5289 
   6   1.0000     -10.333611      -281.1919 
   7   1.0000     -10.311177      -280.5814 
   8   1.0000     -10.287429      -279.9352 
   9   1.0000     -10.250900      -278.9412 
  10   1.0000     -10.229133      -278.3489 
  11   1.0000     -10.218582      -278.0617 
  12   1.0000     -10.213242      -277.9164 
  13   1.0000     -10.179673      -277.0030 
  14   1.0000      -1.108792       -30.1718 
  15   1.0000      -1.051638       -28.6165 
  16   1.0000      -1.023615       -27.8540 
  17   1.0000      -1.019067       -27.7302 
  18   1.0000      -0.937609       -25.5137 
  19   1.0000      -0.920059       -25.0361 
  20   1.0000      -0.809825       -22.0365 
  21   1.0000      -0.760740       -20.7008 
  22   1.0000      -0.727299       -19.7908 
  23   1.0000      -0.700663       -19.0660 
  24   1.0000      -0.640920       -17.4403 
  25   1.0000      -0.607119       -16.5206 
  26   1.0000      -0.601688       -16.3728 
  27   1.0000      -0.569749       -15.5037 
  28   1.0000      -0.538609       -14.6563 
  29   1.0000      -0.503535       -13.7019 
  30   1.0000      -0.494751       -13.4629 
  31   1.0000      -0.483299       -13.1512 
  32   1.0000      -0.477647       -12.9974 
  33   1.0000      -0.473731       -12.8909 
  34   1.0000      -0.462239       -12.5782 
  35   1.0000      -0.454912       -12.3788 
  36   1.0000      -0.446551       -12.1513 
  37   1.0000      -0.432782       -11.7766 
  38   1.0000      -0.417521       -11.3613 
  39   1.0000      -0.405803       -11.0425 
  40   1.0000      -0.402768       -10.9599 
  41   1.0000      -0.398421       -10.8416 
  42   1.0000      -0.397395       -10.8137 
  43   1.0000      -0.387912       -10.5556 
  44   1.0000      -0.377288       -10.2665 
  45   1.0000      -0.375763       -10.2250 
  46   1.0000      -0.346651        -9.4329 
  47   1.0000      -0.325713        -8.8631 
  48   1.0000      -0.296533        -8.0691 
  49   1.0000      -0.282327        -7.6825 
  50   1.0000      -0.274823        -7.4783 
  51   1.0000      -0.255996        -6.9660 
  52   1.0000      -0.247028        -6.7220 
  53   1.0000      -0.206610        -5.6222 
  54   0.0000      -0.002652        -0.0722 
  55   0.0000       0.007274         0.1979 
  56   0.0000       0.009228         0.2511 
  57   0.0000       0.024647         0.6707 
  58   0.0000       0.028027         0.7627 
  59   0.0000       0.037041         1.0079 
  60   0.0000       0.042883         1.1669 
  61   0.0000       0.053443         1.4543 
  62   0.0000       0.059252         1.6123 
  63   0.0000       0.072897         1.9836 
  64   0.0000       0.078977         2.1491 
  65   0.0000       0.111146         3.0244 
  66   0.0000       0.111965         3.0467 
  67   0.0000       0.131589         3.5807 
  68   0.0000       0.144460         3.9310 
  69   0.0000       0.156198         4.2504 
  70   0.0000       0.156355         4.2546 
  71   0.0000       0.167376         4.5545 
  72   0.0000       0.171526         4.6675 
  73   0.0000       0.176313         4.7977 
  74   0.0000       0.185342         5.0434 
  75   0.0000       0.193232         5.2581 
  76   0.0000       0.197041         5.3618 
  77   0.0000       0.201840         5.4924 
  78   0.0000       0.212392         5.7795 
  79   0.0000       0.221573         6.0293 
  80   0.0000       0.227713         6.1964 
  81   0.0000       0.233000         6.3403 
  82   0.0000       0.240593         6.5469 
  83   0.0000       0.248590         6.7645 
  84   0.0000       0.261366         7.1121 
  85   0.0000       0.265746         7.2313 
  86   0.0000       0.277378         7.5478 
  87   0.0000       0.282241         7.6802 
  88   0.0000       0.293268         7.9802 
  89   0.0000       0.301537         8.2052 
  90   0.0000       0.302517         8.2319 
  91   0.0000       0.306120         8.3299 
  92   0.0000       0.310018         8.4360 
  93   0.0000       0.320354         8.7173 
  94   0.0000       0.325675         8.8621 
  95   0.0000       0.331338         9.0162 
  96   0.0000       0.349962         9.5230 
  97   0.0000       0.355528         9.6744 
  98   0.0000       0.357347         9.7239 
  99   0.0000       0.374478        10.1901 
 100   0.0000       0.379177        10.3179 
 101   0.0000       0.394976        10.7478 
 102   0.0000       0.402402        10.9499 
 103   0.0000       0.410942        11.1823 
 104   0.0000       0.424552        11.5527 
 105   0.0000       0.429623        11.6906 
 106   0.0000       0.442575        12.0431 
 107   0.0000       0.449814        12.2401 
 108   0.0000       0.458789        12.4843 
 109   0.0000       0.466784        12.7018 
 110   0.0000       0.486992        13.2517 
 111   0.0000       0.492485        13.4012 
 112   0.0000       0.500877        13.6296 
 113   0.0000       0.528964        14.3938 
 114   0.0000       0.535152        14.5622 
 115   0.0000       0.553726        15.0677 
 116   0.0000       0.560046        15.2396 
 117   0.0000       0.569324        15.4921 
 118   0.0000       0.583217        15.8701 
 119   0.0000       0.592195        16.1145 
 120   0.0000       0.596068        16.2198 
 121   0.0000       0.638060        17.3625 
 122   0.0000       0.675252        18.3745 
 123   0.0000       0.700491        19.0613 
 124   0.0000       0.704741        19.1770 
 125   0.0000       0.723258        19.6808 
 126   0.0000       0.735151        20.0045 
 127   0.0000       0.753177        20.4950 
 128   0.0000       0.770786        20.9742 
 129   0.0000       0.773630        21.0515 
 130   0.0000       0.781694        21.2710 
 131   0.0000       0.804115        21.8811 
 132   0.0000       0.811335        22.0776 
 133   0.0000       0.825073        22.4514 
 134   0.0000       0.826334        22.4857 
 135   0.0000       0.829151        22.5623 
 136   0.0000       0.842625        22.9290 
 137   0.0000       0.849252        23.1093 
 138   0.0000       0.855040        23.2668 
 139   0.0000       0.858711        23.3667 
 140   0.0000       0.877415        23.8757 
 141   0.0000       0.888968        24.1901 
 142   0.0000       0.897897        24.4330 
 143   0.0000       0.902733        24.5646 
 144   0.0000       0.915152        24.9026 
 145   0.0000       0.925935        25.1960 
 146   0.0000       0.932832        25.3836 
 147   0.0000       0.939291        25.5594 
 148   0.0000       0.954393        25.9704 
 149   0.0000       0.963503        26.2182 
 150   0.0000       0.969896        26.3922 
 151   0.0000       0.975458        26.5436 
 152   0.0000       0.990771        26.9602 
 153   0.0000       0.995929        27.1006 
 154   0.0000       1.004980        27.3469 
 155   0.0000       1.010711        27.5029 
 156   0.0000       1.033286        28.1171 
 157   0.0000       1.035306        28.1721 
 158   0.0000       1.051245        28.6058 
 159   0.0000       1.071407        29.1545 
 160   0.0000       1.081434        29.4273 
 161   0.0000       1.098837        29.9009 
 162   0.0000       1.128949        30.7203 
 163   0.0000       1.141805        31.0701 
 164   0.0000       1.151677        31.3387 
 165   0.0000       1.164839        31.6969 
 166   0.0000       1.171161        31.8689 
 167   0.0000       1.191354        32.4184 
 168   0.0000       1.200124        32.6570 
 169   0.0000       1.230145        33.4739 
 170   0.0000       1.288504        35.0620 
 171   0.0000       1.294339        35.2208 
 172   0.0000       1.305112        35.5139 
 173   0.0000       1.323695        36.0196 
 174   0.0000       1.337341        36.3909 
 175   0.0000       1.374890        37.4126 
 176   0.0000       1.383876        37.6572 
 177   0.0000       1.398794        38.0631 
 178   0.0000       1.406465        38.2719 
 179   0.0000       1.421759        38.6880 
 180   0.0000       1.433428        39.0056 
 181   0.0000       1.437597        39.1190 
 182   0.0000       1.444604        39.3097 
 183   0.0000       1.477987        40.2181 
 184   0.0000       1.479884        40.2697 
 185   0.0000       1.495909        40.7057 
 186   0.0000       1.500088        40.8195 
 187   0.0000       1.520248        41.3681 
 188   0.0000       1.526027        41.5253 
 189   0.0000       1.534313        41.7508 
 190   0.0000       1.554156        42.2907 
 191   0.0000       1.562050        42.5056 
 192   0.0000       1.569541        42.7094 
 193   0.0000       1.582164        43.0529 
 194   0.0000       1.584910        43.1276 
 195   0.0000       1.612579        43.8805 
 196   0.0000       1.633265        44.4434 
 197   0.0000       1.637945        44.5708 
 198   0.0000       1.650433        44.9106 
 199   0.0000       1.664096        45.2824 
 200   0.0000       1.685768        45.8721 
 201   0.0000       1.692385        46.0521 
 202   0.0000       1.705063        46.3971 
 203   0.0000       1.723233        46.8916 
 204   0.0000       1.731407        47.1140 
 205   0.0000       1.738573        47.3090 
 206   0.0000       1.748107        47.5684 
 207   0.0000       1.773906        48.2704 
 208   0.0000       1.784872        48.5688 
 209   0.0000       1.814961        49.3876 
 210   0.0000       1.820730        49.5446 
 211   0.0000       1.848713        50.3060 
 212   0.0000       1.866380        50.7868 
 213   0.0000       1.874990        51.0211 
 214   0.0000       1.884419        51.2777 
 215   0.0000       1.916338        52.1462 
 216   0.0000       1.946171        52.9580 
 217   0.0000       1.952810        53.1387 
 218   0.0000       1.984440        53.9994 
 219   0.0000       1.992362        54.2149 
 220   0.0000       2.012109        54.7523 
 221   0.0000       2.025926        55.1282 
 222   0.0000       2.037134        55.4332 
 223   0.0000       2.062861        56.1333 
 224   0.0000       2.070761        56.3483 
 225   0.0000       2.103306        57.2339 
 226   0.0000       2.136623        58.1405 
 227   0.0000       2.165102        58.9154 
 228   0.0000       2.188950        59.5643 
 229   0.0000       2.201716        59.9117 
 230   0.0000       2.220474        60.4222 
 231   0.0000       2.246721        61.1364 
 232   0.0000       2.250792        61.2472 
 233   0.0000       2.268863        61.7389 
 234   0.0000       2.292205        62.3741 
 235   0.0000       2.326368        63.3037 
 236   0.0000       2.339413        63.6587 
 237   0.0000       2.365525        64.3692 
 238   0.0000       2.369191        64.4690 
 239   0.0000       2.405482        65.4565 
 240   0.0000       2.413119        65.6643 
 241   0.0000       2.424338        65.9696 
 242   0.0000       2.436133        66.2906 
 243   0.0000       2.482423        67.5502 
 244   0.0000       2.498633        67.9913 
 245   0.0000       2.503320        68.1188 
 246   0.0000       2.515667        68.4548 
 247   0.0000       2.523384        68.6648 
 248   0.0000       2.600500        70.7632 
 249   0.0000       2.602972        70.8305 
 250   0.0000       2.633365        71.6575 
 251   0.0000       2.657515        72.3147 
 252   0.0000       2.691774        73.2469 
 253   0.0000       2.708495        73.7019 
 254   0.0000       2.719067        73.9896 
 255   0.0000       2.740397        74.5700 
 256   0.0000       2.762872        75.1816 
 257   0.0000       2.772873        75.4537 
 258   0.0000       2.819431        76.7206 
 259   0.0000       2.843047        77.3632 
 260   0.0000       2.895771        78.7979 
 261   0.0000       2.979845        81.0857 
 262   0.0000       3.020897        82.2028 
 263   0.0000       3.035673        82.6049 
 264   0.0000       3.084962        83.9461 
 265   0.0000       3.092237        84.1440 
 266   0.0000       3.114699        84.7553 
 267   0.0000       3.139093        85.4191 
 268   0.0000       3.347393        91.0872 
 269   0.0000       3.361340        91.4667 
 270   0.0000       3.414707        92.9189 
 271   0.0000       3.419136        93.0394 
 272   0.0000       3.430442        93.3471 
 273   0.0000       3.440324        93.6160 
 274   0.0000       3.587078        97.6094 
 275   0.0000       4.924687       134.0075 
 276   0.0000       4.969864       135.2369 
 277   0.0000       4.978286       135.4660 
 278   0.0000       5.009599       136.3181 
 279   0.0000       5.020067       136.6030 
 280   0.0000       5.028363       136.8287 
 281   0.0000       5.033497       136.9684 
 282   0.0000       5.095095       138.6446 
 283   0.0000       5.137388       139.7954 
 284   0.0000       5.160950       140.4366 
 285   0.0000       5.182906       141.0340 
 286   0.0000       5.239896       142.5848 
 287   0.0000       5.252050       142.9155 
 288   0.0000       5.293760       144.0505 
 289   0.0000       5.342712       145.3826 
 290   0.0000       5.361315       145.8888 
 291   0.0000       5.472265       148.9079 
 292   0.0000       5.602369       152.4482 
 293   0.0000       5.714347       155.4953 
 294   0.0000       5.748322       156.4198 
 295   0.0000       5.773183       157.0963 
 296   0.0000       7.298809       198.6107 
 297   0.0000       7.320893       199.2116 
 298   0.0000       8.897395       242.1104 
 299   0.0000       9.074205       246.9217 
 300   0.0000       9.082826       247.1563 
 301   0.0000       9.141470       248.7520 
 302   0.0000      29.518700       803.2447 
 303   0.0000      29.618547       805.9616 
 304   0.0000      29.649210       806.7960 
 305   0.0000      29.864094       812.6433 
 306   0.0000      29.942812       814.7853 
 307   0.0000      30.084008       818.6275 
 308   0.0000      30.153864       820.5284 
 309   0.0000      30.172210       821.0276 
 310   0.0000      36.554760       994.7056 
 311   0.0000      36.594603       995.7898 
 312   0.0000      36.615438       996.3567 
 313   0.0000      36.627629       996.6885 
 314   0.0000      36.640384       997.0355 
 315   0.0000      36.651545       997.3392 
 316   0.0000      36.695241       998.5283 
 317   0.0000      36.732740       999.5487 
 318   0.0000      36.759517      1000.2773 
 319   0.0000      36.812184      1001.7104 
 320   0.0000      36.871247      1003.3176 
 321   0.0000      36.895246      1003.9707 
 322   0.0000      36.923518      1004.7400 
 323   0.0000      41.240001      1122.1975 
 324   0.0000      41.259865      1122.7380 
 325   0.0000      53.438653      1454.1397 
 326   0.0000      53.611559      1458.8447 
 327   0.0000      53.617475      1459.0057 
 328   0.0000      53.677409      1460.6366 

                 SPIN DOWN ORBITALS
  NO   OCC          E(Eh)            E(eV) 
   0   1.0000     -19.193203      -522.2736 
   1   1.0000     -19.140633      -520.8431 
   2   1.0000     -19.128169      -520.5040 
   3   1.0000     -19.101079      -519.7668 
   4   1.0000     -14.377692      -391.2369 
   5   1.0000     -14.350892      -390.5076 
   6   1.0000     -10.332309      -281.1564 
   7   1.0000     -10.310252      -280.5562 
   8   1.0000     -10.287390      -279.9341 
   9   1.0000     -10.251735      -278.9639 
  10   1.0000     -10.229146      -278.3492 
  11   1.0000     -10.214072      -277.9390 
  12   1.0000     -10.204893      -277.6892 
  13   1.0000     -10.179604      -277.0011 
  14   1.0000      -1.108098       -30.1529 
  15   1.0000      -1.050731       -28.5919 
  16   1.0000      -1.023153       -27.8414 
  17   1.0000      -1.018360       -27.7110 
  18   1.0000      -0.936758       -25.4905 
  19   1.0000      -0.918016       -24.9805 
  20   1.0000      -0.797105       -21.6903 
  21   1.0000      -0.758865       -20.6498 
  22   1.0000      -0.726831       -19.7781 
  23   1.0000      -0.695977       -18.9385 
  24   1.0000      -0.631028       -17.1711 
  25   1.0000      -0.602338       -16.3904 
  26   1.0000      -0.600499       -16.3404 
  27   1.0000      -0.563642       -15.3375 
  28   1.0000      -0.535175       -14.5629 
  29   1.0000      -0.500741       -13.6259 
  30   1.0000      -0.491588       -13.3768 
  31   1.0000      -0.480343       -13.0708 
  32   1.0000      -0.475861       -12.9488 
  33   1.0000      -0.471467       -12.8293 
  34   1.0000      -0.460638       -12.5346 
  35   1.0000      -0.453742       -12.3469 
  36   1.0000      -0.444907       -12.1065 
  37   1.0000      -0.431759       -11.7488 
  38   1.0000      -0.415306       -11.3010 
  39   1.0000      -0.405537       -11.0352 
  40   1.0000      -0.399657       -10.8752 
  41   1.0000      -0.396565       -10.7911 
  42   1.0000      -0.395859       -10.7719 
  43   1.0000      -0.386983       -10.5304 
  44   1.0000      -0.374906       -10.2017 
  45   1.0000      -0.372670       -10.1409 
  46   1.0000      -0.344896        -9.3851 
  47   1.0000      -0.325004        -8.8438 
  48   1.0000      -0.286105        -7.7853 
  49   1.0000      -0.279937        -7.6175 
  50   1.0000      -0.272809        -7.4235 
  51   1.0000      -0.253494        -6.8979 
  52   1.0000      -0.245483        -6.6799 
  53   0.0000      -0.075122        -2.0442 
  54   0.0000       0.000453         0.0123 
  55   0.0000       0.008751         0.2381 
  56   0.0000       0.013190         0.3589 
  57   0.0000       0.027421         0.7462 
  58   0.0000       0.028679         0.7804 
  59   0.0000       0.038162         1.0385 
  60   0.0000       0.043591         1.1862 
  61   0.0000       0.054359         1.4792 
  62   0.0000       0.060692         1.6515 
  63   0.0000       0.074377         2.0239 
  64   0.0000       0.079978         2.1763 
  65   0.0000       0.111459         3.0330 
  66   0.0000       0.113721         3.0945 
  67   0.0000       0.132366         3.6019 
  68   0.0000       0.145390         3.9563 
  69   0.0000       0.157776         4.2933 
  70   0.0000       0.159354         4.3362 
  71   0.0000       0.168272         4.5789 
  72   0.0000       0.172270         4.6877 
  73   0.0000       0.178853         4.8668 
  74   0.0000       0.185940         5.0597 
  75   0.0000       0.194350         5.2885 
  76   0.0000       0.197434         5.3724 
  77   0.0000       0.203888         5.5481 
  78   0.0000       0.216177         5.8825 
  79   0.0000       0.223117         6.0713 
  80   0.0000       0.232151         6.3172 
  81   0.0000       0.236681         6.4404 
  82   0.0000       0.241522         6.5722 
  83   0.0000       0.250031         6.8037 
  84   0.0000       0.261991         7.1291 
  85   0.0000       0.269550         7.3348 
  86   0.0000       0.277974         7.5641 
  87   0.0000       0.284025         7.7287 
  88   0.0000       0.295794         8.0490 
  89   0.0000       0.302593         8.2340 
  90   0.0000       0.306200         8.3321 
  91   0.0000       0.308488         8.3944 
  92   0.0000       0.311877         8.4866 
  93   0.0000       0.321373         8.7450 
  94   0.0000       0.326994         8.8980 
  95   0.0000       0.331824         9.0294 
  96   0.0000       0.352057         9.5800 
  97   0.0000       0.357191         9.7197 
  98   0.0000       0.359178         9.7737 
  99   0.0000       0.377807        10.2806 
 100   0.0000       0.387786        10.5522 
 101   0.0000       0.398682        10.8487 
 102   0.0000       0.403631        10.9833 
 103   0.0000       0.412300        11.2193 
 104   0.0000       0.427522        11.6335 
 105   0.0000       0.430471        11.7137 
 106   0.0000       0.443974        12.0811 
 107   0.0000       0.457687        12.4543 
 108   0.0000       0.461140        12.5482 
 109   0.0000       0.477244        12.9865 
 110   0.0000       0.491123        13.3641 
 111   0.0000       0.499848        13.6015 
 112   0.0000       0.505412        13.7530 
 113   0.0000       0.532234        14.4828 
 114   0.0000       0.537064        14.6143 
 115   0.0000       0.556062        15.1312 
 116   0.0000       0.561121        15.2689 
 117   0.0000       0.573413        15.6034 
 118   0.0000       0.584763        15.9122 
 119   0.0000       0.594245        16.1702 
 120   0.0000       0.598228        16.2786 
 121   0.0000       0.640137        17.4190 
 122   0.0000       0.676822        18.4173 
 123   0.0000       0.704431        19.1685 
 124   0.0000       0.706753        19.2317 
 125   0.0000       0.725065        19.7300 
 126   0.0000       0.736013        20.0279 
 127   0.0000       0.754277        20.5249 
 128   0.0000       0.772012        21.0075 
 129   0.0000       0.776697        21.1350 
 130   0.0000       0.783972        21.3330 
 131   0.0000       0.806380        21.9427 
 132   0.0000       0.812632        22.1128 
 133   0.0000       0.826720        22.4962 
 134   0.0000       0.827268        22.5111 
 135   0.0000       0.829499        22.5718 
 136   0.0000       0.843909        22.9639 
 137   0.0000       0.850459        23.1422 
 138   0.0000       0.855485        23.2789 
 139   0.0000       0.860743        23.4220 
 140   0.0000       0.878809        23.9136 
 141   0.0000       0.890153        24.2223 
 142   0.0000       0.901303        24.5257 
 143   0.0000       0.903815        24.5940 
 144   0.0000       0.917466        24.9655 
 145   0.0000       0.927240        25.2315 
 146   0.0000       0.934423        25.4270 
 147   0.0000       0.940965        25.6050 
 148   0.0000       0.957976        26.0678 
 149   0.0000       0.965273        26.2664 
 150   0.0000       0.971088        26.4246 
 151   0.0000       0.979165        26.6444 
 152   0.0000       0.991982        26.9932 
 153   0.0000       0.999333        27.1932 
 154   0.0000       1.006051        27.3760 
 155   0.0000       1.015856        27.6428 
 156   0.0000       1.035303        28.1720 
 157   0.0000       1.036709        28.2103 
 158   0.0000       1.053542        28.6683 
 159   0.0000       1.072873        29.1944 
 160   0.0000       1.087815        29.6010 
 161   0.0000       1.102466        29.9996 
 162   0.0000       1.130402        30.7598 
 163   0.0000       1.143330        31.1116 
 164   0.0000       1.152959        31.3736 
 165   0.0000       1.166227        31.7347 
 166   0.0000       1.171977        31.8911 
 167   0.0000       1.193142        32.4670 
 168   0.0000       1.200871        32.6774 
 169   0.0000       1.232504        33.5381 
 170   0.0000       1.291732        35.1498 
 171   0.0000       1.301671        35.4203 
 172   0.0000       1.311179        35.6790 
 173   0.0000       1.329979        36.1906 
 174   0.0000       1.341627        36.5075 
 175   0.0000       1.378050        37.4987 
 176   0.0000       1.385151        37.6919 
 177   0.0000       1.399025        38.0694 
 178   0.0000       1.408017        38.3141 
 179   0.0000       1.422714        38.7140 
 180   0.0000       1.435554        39.0634 
 181   0.0000       1.439672        39.1755 
 182   0.0000       1.451411        39.4949 
 183   0.0000       1.478459        40.2309 
 184   0.0000       1.482685        40.3459 
 185   0.0000       1.498152        40.7668 
 186   0.0000       1.503025        40.8994 
 187   0.0000       1.524080        41.4723 
 188   0.0000       1.530898        41.6578 
 189   0.0000       1.536015        41.7971 
 190   0.0000       1.555463        42.3263 
 191   0.0000       1.563782        42.5527 
 192   0.0000       1.572446        42.7884 
 193   0.0000       1.583182        43.0806 
 194   0.0000       1.587976        43.2110 
 195   0.0000       1.616773        43.9946 
 196   0.0000       1.639260        44.6065 
 197   0.0000       1.640715        44.6461 
 198   0.0000       1.653688        44.9991 
 199   0.0000       1.666575        45.3498 
 200   0.0000       1.686901        45.9029 
 201   0.0000       1.695023        46.1239 
 202   0.0000       1.709719        46.5238 
 203   0.0000       1.724118        46.9156 
 204   0.0000       1.733208        47.1630 
 205   0.0000       1.741380        47.3853 
 206   0.0000       1.750613        47.6366 
 207   0.0000       1.778596        48.3981 
 208   0.0000       1.788354        48.6636 
 209   0.0000       1.816967        49.4422 
 210   0.0000       1.823982        49.6331 
 211   0.0000       1.854661        50.4679 
 212   0.0000       1.871856        50.9358 
 213   0.0000       1.877741        51.0959 
 214   0.0000       1.889163        51.4067 
 215   0.0000       1.918838        52.2142 
 216   0.0000       1.948150        53.0119 
 217   0.0000       1.957214        53.2585 
 218   0.0000       1.985964        54.0408 
 219   0.0000       1.993741        54.2524 
 220   0.0000       2.014033        54.8046 
 221   0.0000       2.029577        55.2276 
 222   0.0000       2.038793        55.4784 
 223   0.0000       2.063800        56.1588 
 224   0.0000       2.076304        56.4991 
 225   0.0000       2.106911        57.3320 
 226   0.0000       2.139430        58.2168 
 227   0.0000       2.166497        58.9534 
 228   0.0000       2.190663        59.6110 
 229   0.0000       2.202147        59.9235 
 230   0.0000       2.222841        60.4866 
 231   0.0000       2.248237        61.1776 
 232   0.0000       2.254876        61.3583 
 233   0.0000       2.271102        61.7998 
 234   0.0000       2.293556        62.4108 
 235   0.0000       2.329182        63.3803 
 236   0.0000       2.341335        63.7110 
 237   0.0000       2.366141        64.3860 
 238   0.0000       2.371395        64.5289 
 239   0.0000       2.405695        65.4623 
 240   0.0000       2.413687        65.6798 
 241   0.0000       2.425209        65.9933 
 242   0.0000       2.436710        66.3062 
 243   0.0000       2.485623        67.6372 
 244   0.0000       2.498959        68.0001 
 245   0.0000       2.503749        68.1305 
 246   0.0000       2.517200        68.4965 
 247   0.0000       2.525271        68.7161 
 248   0.0000       2.601555        70.7919 
 249   0.0000       2.604512        70.8724 
 250   0.0000       2.634497        71.6883 
 251   0.0000       2.661080        72.4117 
 252   0.0000       2.692626        73.2701 
 253   0.0000       2.709236        73.7221 
 254   0.0000       2.720415        74.0262 
 255   0.0000       2.741468        74.5991 
 256   0.0000       2.763922        75.2101 
 257   0.0000       2.773995        75.4842 
 258   0.0000       2.820125        76.7395 
 259   0.0000       2.843346        77.3714 
 260   0.0000       2.896472        78.8170 
 261   0.0000       2.980975        81.1164 
 262   0.0000       3.021659        82.2235 
 263   0.0000       3.036863        82.6372 
 264   0.0000       3.085436        83.9590 
 265   0.0000       3.092836        84.1603 
 266   0.0000       3.114881        84.7602 
 267   0.0000       3.139743        85.4368 
 268   0.0000       3.348239        91.1102 
 269   0.0000       3.361925        91.4826 
 270   0.0000       3.415572        92.9425 
 271   0.0000       3.419911        93.0605 
 272   0.0000       3.431112        93.3653 
 273   0.0000       3.440756        93.6277 
 274   0.0000       3.587468        97.6200 
 275   0.0000       4.927720       134.0901 
 276   0.0000       4.970054       135.2420 
 277   0.0000       4.979980       135.5122 
 278   0.0000       5.010032       136.3299 
 279   0.0000       5.022676       136.6740 
 280   0.0000       5.032499       136.9413 
 281   0.0000       5.033815       136.9771 
 282   0.0000       5.095496       138.6555 
 283   0.0000       5.138964       139.8383 
 284   0.0000       5.160754       140.4313 
 285   0.0000       5.184305       141.0721 
 286   0.0000       5.240001       142.5877 
 287   0.0000       5.252644       142.9317 
 288   0.0000       5.295832       144.1069 
 289   0.0000       5.343494       145.4039 
 290   0.0000       5.361612       145.8969 
 291   0.0000       5.481564       149.1609 
 292   0.0000       5.603346       152.4748 
 293   0.0000       5.715632       155.5302 
 294   0.0000       5.748007       156.4112 
 295   0.0000       5.785546       157.4327 
 296   0.0000       7.299904       198.6405 
 297   0.0000       7.322334       199.2508 
 298   0.0000       8.897860       242.1231 
 299   0.0000       9.074751       246.9365 
 300   0.0000       9.083562       247.1763 
 301   0.0000       9.141973       248.7657 
 302   0.0000      29.523612       803.3783 
 303   0.0000      29.620185       806.0062 
 304   0.0000      29.649583       806.8062 
 305   0.0000      29.866342       812.7045 
 306   0.0000      29.947246       814.9060 
 307   0.0000      30.084542       818.6420 
 308   0.0000      30.161754       820.7430 
 309   0.0000      30.171479       821.0077 
 310   0.0000      36.554999       994.7121 
 311   0.0000      36.594933       995.7987 
 312   0.0000      36.615636       996.3621 
 313   0.0000      36.627781       996.6926 
 314   0.0000      36.646587       997.2043 
 315   0.0000      36.652172       997.3563 
 316   0.0000      36.695119       998.5250 
 317   0.0000      36.731397       999.5121 
 318   0.0000      36.754943      1000.1529 
 319   0.0000      36.813651      1001.7504 
 320   0.0000      36.872430      1003.3498 
 321   0.0000      36.896442      1004.0032 
 322   0.0000      36.923668      1004.7441 
 323   0.0000      41.240685      1122.2161 
 324   0.0000      41.260645      1122.7592 
 325   0.0000      53.438890      1454.1461 
 326   0.0000      53.611859      1458.8528 
 327   0.0000      53.617851      1459.0159 
 328   0.0000      53.677682      1460.6440 

                    ********************************
                    * MULLIKEN POPULATION ANALYSIS *
                    ********************************

--------------------------------------------
MULLIKEN ATOMIC CHARGES AND SPIN POPULATIONS
--------------------------------------------
   0 N :   -0.124655    0.023567
   1 C :   -0.124594   -0.054917
   2 C :    0.082722    0.024370
   3 O :   -0.325052    0.012518
   4 C :   -0.072543    0.982520
   5 C :   -0.312933   -0.053130
   6 H :    0.182446    0.006375
   7 H :    0.157372    0.022791
   8 C :    0.147251    0.033491
   9 O :   -0.245898    0.004190
  10 O :   -0.253075    0.012415
  11 H :    0.253913   -0.000896
  12 H :    0.162275    0.008841
  13 C :    0.181594    0.001056
  14 N :   -0.091403    0.016623
  15 H :    0.289643    0.001324
  16 H :    0.232101   -0.000270
  17 O :   -0.325082    0.004125
  18 C :   -0.552698    0.002647
  19 H :    0.205799    0.000526
  20 H :    0.180754   -0.000171
  21 H :    0.148567   -0.000130
  22 C :   -0.456508   -0.001097
  23 H :    0.163892    0.000186
  24 H :    0.165794    0.001416
  25 H :    0.199939    0.000516
  26 H :    0.130377   -0.048887
Sum of atomic charges         :   -0.0000000
Sum of atomic spin populations:    1.0000000

-----------------------------------------------------
MULLIKEN REDUCED ORBITAL CHARGES AND SPIN POPULATIONS
-----------------------------------------------------
CHARGE
  0 N s       :     3.377862  s :     3.377862
      pz      :     1.067551  p :     3.713428
      px      :     1.028950
      py      :     1.616927
      dz2     :     0.008219  d :     0.033366
      dxz     :     0.012974
      dyz     :     0.003549
      dx2y2   :     0.004633
      dxy     :     0.003991
  1 C s       :     3.146680  s :     3.146680
      pz      :     0.937429  p :     2.867862
      px      :     0.893911
      py      :     1.036522
      dz2     :     0.024359  d :     0.110051
      dxz     :     0.014554
      dyz     :     0.015481
      dx2y2   :     0.026382
      dxy     :     0.029276
  2 C s       :     3.096040  s :     3.096040
      pz      :     0.953169  p :     2.627804
      px      :     0.851380
      py      :     0.823254
      dz2     :     0.060859  d :     0.193434
      dxz     :     0.034774
      dyz     :     0.023530
      dx2y2   :     0.040639
      dxy     :     0.033632
  3 O s       :     3.894931  s :     3.894931
      pz      :     1.516028  p :     4.411691
      px      :     1.456163
      py      :     1.439500
      dz2     :     0.003147  d :     0.018430
      dxz     :     0.005912
      dyz     :     0.003489
      dx2y2   :     0.002877
      dxy     :     0.003005
  4 C s       :     3.236537  s :     3.236537
      pz      :     0.973272  p :     2.777310
      px      :     0.971419
      py      :     0.832620
      dz2     :     0.006194  d :     0.058696
      dxz     :     0.009253
      dyz     :     0.011078
      dx2y2   :     0.016502
      dxy     :     0.015669
  5 C s       :     3.182802  s :     3.182802
      pz      :     1.006572  p :     3.056397
      px      :     1.064718
      py      :     0.985107
      dz2     :     0.012494  d :     0.073733
      dxz     :     0.018676
      dyz     :     0.012203
      dx2y2   :     0.010760
      dxy     :     0.019602
  6 H s       :     0.797977  s :     0.797977
      pz      :     0.008516  p :     0.019578
      px      :     0.006493
      py      :     0.004569
  7 H s       :     0.822550  s :     0.822550
      pz      :     0.004724  p :     0.020078
      px      :     0.008389
      py      :     0.006965
  8 C s       :     3.099127  s :     3.099127
      pz      :     0.894605  p :     2.535409
      px      :     0.837539
      py      :     0.803264
      dz2     :     0.035240  d :     0.218213
      dxz     :     0.087790
      dyz     :     0.020208
      dx2y2   :     0.027587
      dxy     :     0.047388
  9 O s       :     3.780671  s :     3.780671
      pz      :     1.224523  p :     4.448711
      px      :     1.502375
      py      :     1.721812
      dz2     :     0.001459  d :     0.016516
      dxz     :     0.008974
      dyz     :     0.001325
      dx2y2   :     0.002248
      dxy     :     0.002510
 10 O s       :     3.864895  s :     3.864895
      pz      :     1.720873  p :     4.368861
      px      :     1.225010
      py      :     1.422978
      dz2     :     0.002546  d :     0.019319
      dxz     :     0.004015
      dyz     :     0.000145
      dx2y2   :     0.006995
      dxy     :     0.005618
 11 H s       :     0.704239  s :     0.704239
      pz      :     0.016824  p :     0.041848
      px      :     0.010651
      py      :     0.014372
 12 H s       :     0.818264  s :     0.818264
      pz      :     0.006964  p :     0.019461
      px      :     0.003524
      py      :     0.008974
 13 C s       :     3.051791  s :     3.051791
      pz      :     0.860486  p :     2.571267
      px      :     0.916650
      py      :     0.794131
      dz2     :     0.063555  d :     0.195348
      dxz     :     0.050807
      dyz     :     0.042367
      dx2y2   :     0.020856
      dxy     :     0.017763
 14 N s       :     3.340827  s :     3.340827
      pz      :     1.042467  p :     3.715666
      px      :     1.161579
      py      :     1.511620
      dz2     :     0.008050  d :     0.034909
      dxz     :     0.013108
      dyz     :     0.005665
      dx2y2   :     0.003766
      dxy     :     0.004320
 15 H s       :     0.652533  s :     0.652533
      pz      :     0.021105  p :     0.057823
      px      :     0.017780
      py      :     0.018938
 16 H s       :     0.727682  s :     0.727682
      pz      :     0.012771  p :     0.040217
      px      :     0.012973
      py      :     0.014473
 17 O s       :     3.904459  s :     3.904459
      pz      :     1.372465  p :     4.402410
      px      :     1.607028
      py      :     1.422916
      dz2     :     0.005023  d :     0.018214
      dxz     :     0.006220
      dyz     :     0.003938
      dx2y2   :     0.001426
      dxy     :     0.001607
 18 C s       :     3.224649  s :     3.224649
      pz      :     1.137435  p :     3.267786
      px      :     0.975098
      py      :     1.155253
      dz2     :     0.013096  d :     0.060263
      dxz     :     0.011741
      dyz     :     0.010415
      dx2y2   :     0.017877
      dxy     :     0.007133
 19 H s       :     0.774726  s :     0.774726
      pz      :     0.004718  p :     0.019474
      px      :     0.005011
      py      :     0.009746
 20 H s       :     0.800458  s :     0.800458
      pz      :     0.007255  p :     0.018788
      px      :     0.005317
      py      :     0.006216
 21 H s       :     0.832242  s :     0.832242
      pz      :     0.008344  p :     0.019191
      px      :     0.006151
      py      :     0.004696
 22 C s       :     3.202676  s :     3.202676
      pz      :     0.891080  p :     3.166681
      px      :     1.141920
      py      :     1.133681
      dz2     :     0.021875  d :     0.087151
      dxz     :     0.020455
      dyz     :     0.015154
      dx2y2   :     0.014347
      dxy     :     0.015319
 23 H s       :     0.818771  s :     0.818771
      pz      :     0.003298  p :     0.017336
      px      :     0.004504
      py      :     0.009534
 24 H s       :     0.816926  s :     0.816926
      pz      :     0.003139  p :     0.017280
      px      :     0.007919
      py      :     0.006222
 25 H s       :     0.781808  s :     0.781808
      pz      :     0.004934  p :     0.018254
      px      :     0.008156
      py      :     0.005163
 26 H s       :     0.847856  s :     0.847856
      pz      :     0.008394  p :     0.021767
[...]
                 8.9800              16.8618              -4.0274
                16.8656               0.8144              -6.9655
                -4.0691              -6.8801             -10.2734

 A(FC)          -0.1544              -0.1544              -0.1544
 A(SD)          -9.1691             -14.8733              24.0424
 A(ORB+DIA)      0.0223              -0.0395               0.0015    A(PC) =  -0.0053
 A(ORB)          0.0217              -0.0394               0.0019    A(PC) =  -0.0053
 A(DIA)          0.0006              -0.0001              -0.0004    A(PC) =   0.0000
             ----------           ----------           ----------
 A(Tot)         -9.3013             -15.0672              23.8895    A(iso)=   -0.1597
 Orientation: 
  X           0.5489887            0.3540645            0.7571326
  Y          -0.4221182           -0.6643898            0.6167678
  Z           0.7214067           -0.6581980           -0.2152854

Notes:  (1) The A matrix conforms to the "SAI" spin Hamiltonian convention.
        (2) Tensor is right-handed.

 -----------------------------------------------------------
 Nucleus  15H : A:ISTP=    1 I=  0.5 P=533.5514 MHz/au**3
                Q:ISTP=    2 I=  1.0 Q=  0.0029 barn     
 -----------------------------------------------------------
 Solving for nuclear perturbation:
Forming RHS of the CP-SCF equations         ... 
Calc. nucleus orbit integrals (SHARK)       ... done

------------------------------------------------------------------------------
                           ORCA CP-SCF CALCULATION
------------------------------------------------------------------------------

Input orbitals are from        ... epr_info.gbw
Input Perturbation             ... epr_info.pin.tmp
Wavefunction output            ... epr_info.pout.tmp
Perturbation mode              ... Imaginary perturbation
Solver                         ... POPLE
Max. number of iterations      ... 64
Convergence tolerance          ... 1.000e-03
Integral handling              ... Direct
DFT GridXC                     ... 1
COSX GridX                     ... 1
COSX IntAccX                   ... 3.067
COSX Algorithm                 ... Auto
Number of perturbations        ... 3
Number of operators            ... 2
Orbital ranges used for CP-SCF:
 Operator 0:  Orbitals   0... 53  to  54...328
 Operator 1:  Orbitals   0... 52  to  53...328
Variables per perturbation     ... 29478
DFT calculation                         ... on
XC functional terms                     ... off
Hybrid DFT                              ... on
   Exchange mixing (SCF)                ...  0.200
   Exchange mixing (CP-SCF)             ...  0.200
   GGA exch. scaling(SCF)               ...  0.720
   GGA exch. scaling (CP-SCF)           ...  0.720
   GGA corr. scaling (SCF)              ...  0.810
   GGA corr. scaling (CP-SCF)           ...  0.810

CP-SCF GRID
-----------

General Integration Accuracy     IntAcc      ... 3.467
Radial Grid Type                 RadialGrid  ... OptM3 with GC (2021)
Angular Grid (max. ang.)         AngularGrid ... 1 (Lebedev-50)
Angular grid pruning method      GridPruning ... 4 (adaptive)
Weight generation scheme         WeightScheme... Becke
Basis function cutoff            BFCut       ... 1.0000e-10
Integration weight cutoff        WCut        ... 1.0000e-14
Angular grids for H and He will be reduced by one unit
Partially contracted basis set               ... off
Rotationally invariant grid construction     ... off

Total number of grid points                  ...    18238
Total number of batches                      ...      297
Average number of points per batch           ...       61
Average number of grid points per atom       ...      675

CP-SCF GRIDX
------------

General Integration Accuracy     IntAcc      ... 3.067
Radial Grid Type                 RadialGrid  ... OptM3 with GC (2021)
Angular Grid (max. ang.)         AngularGrid ... 1 (Lebedev-50)
Angular grid pruning method      GridPruning ... 4 (adaptive)
Weight generation scheme         WeightScheme... Becke
Basis function cutoff            BFCut       ... 1.0000e-10
Integration weight cutoff        WCut        ... 1.0000e-14
Angular grids for H and He will be reduced by one unit
Partially contracted basis set               ... on
Rotationally invariant grid construction     ... off

Total number of grid points                  ...     8464
Total number of batches                      ...      150
Average number of points per batch           ...       56
Average number of grid points per atom       ...      313

Memory available               ... 929.6 MB
Memory needed per perturbation ...   6.7 MB
Perturbations treated per batch... 3
Number of batches              ... 1
     CP-SCF ITERATION   0:   6.9817e-02 (   0.4 sec   0/  3 done)
     CP-SCF ITERATION   1:   3.4136e-03 (   0.4 sec   0/  3 done)
     CP-SCF ITERATION   2:   3.1543e-04 (   0.4 sec   3/  3 done)
                    *** THE CP-SCF HAS CONVERGED ***

Forming final perturbed densities           ... done
Transforming perturbed density to AO basis  ... done

 Raw HFC matrix (all values in MHz): 
 -----------------------------------
                -0.1254              -0.8581               0.8972
                -0.8619               0.9082              -1.9029
                 0.9010              -1.9009               2.4679

 A(FC)           1.0833               1.0833               1.0833
 A(SD)          -1.2936              -1.7197               3.0133
 A(ORB+DIA)     -0.0018              -0.0007               0.0034    A(PC) =   0.0003
 A(ORB)         -0.0017              -0.0007               0.0031    A(PC) =   0.0002
 A(DIA)         -0.0001              -0.0000               0.0003    A(PC) =   0.0001
             ----------           ----------           ----------
 A(Tot)         -0.2122              -0.6371               4.1000    A(iso)=    1.0836
 Orientation: 
  X          -0.5712083            0.7720462           -0.2786857
  Y           0.5670586            0.6166563            0.5460582
  Z           0.5934355            0.1538819           -0.7900346

Notes:  (1) The A matrix conforms to the "SAI" spin Hamiltonian convention.
        (2) Tensor is right-handed.

 -----------------------------------------------------------
 Nucleus  16H : A:ISTP=    1 I=  0.5 P=533.5514 MHz/au**3
                Q:ISTP=    2 I=  1.0 Q=  0.0029 barn     
 -----------------------------------------------------------
 Solving for nuclear perturbation:
Forming RHS of the CP-SCF equations         ... 
Calc. nucleus orbit integrals (SHARK)       ... done

------------------------------------------------------------------------------
                           ORCA CP-SCF CALCULATION
------------------------------------------------------------------------------

Input orbitals are from        ... epr_info.gbw
Input Perturbation             ... epr_info.pin.tmp
Wavefunction output            ... epr_info.pout.tmp
Perturbation mode              ... Imaginary perturbation
Solver                         ... POPLE
Max. number of iterations      ... 64
Convergence tolerance          ... 1.000e-03
Integral handling              ... Direct
DFT GridXC                     ... 1
COSX GridX                     ... 1
COSX IntAccX                   ... 3.067
COSX Algorithm                 ... Auto
Number of perturbations        ... 3
Number of operators            ... 2
Orbital ranges used for CP-SCF:
 Operator 0:  Orbitals   0... 53  to  54...328
 Operator 1:  Orbitals   0... 52  to  53...328
Variables per perturbation     ... 29478
DFT calculation                         ... on
XC functional terms                     ... off
Hybrid DFT                              ... on
   Exchange mixing (SCF)                ...  0.200
   Exchange mixing (CP-SCF)             ...  0.200
   GGA exch. scaling(SCF)               ...  0.720
   GGA exch. scaling (CP-SCF)           ...  0.720
   GGA corr. scaling (SCF)              ...  0.810
   GGA corr. scaling (CP-SCF)           ...  0.810

CP-SCF GRID
-----------

General Integration Accuracy     IntAcc      ... 3.467
Radial Grid Type                 RadialGrid  ... OptM3 with GC (2021)
Angular Grid (max. ang.)         AngularGrid ... 1 (Lebedev-50)
Angular grid pruning method      GridPruning ... 4 (adaptive)
Weight generation scheme         WeightScheme... Becke
Basis function cutoff            BFCut       ... 1.0000e-10
Integration weight cutoff        WCut        ... 1.0000e-14
Angular grids for H and He will be reduced by one unit
Partially contracted basis set               ... off
Rotationally invariant grid construction     ... off

Total number of grid points                  ...    18238
Total number of batches                      ...      297
Average number of points per batch           ...       61
Average number of grid points per atom       ...      675

CP-SCF GRIDX
------------

General Integration Accuracy     IntAcc      ... 3.067
Radial Grid Type                 RadialGrid  ... OptM3 with GC (2021)
Angular Grid (max. ang.)         AngularGrid ... 1 (Lebedev-50)
Angular grid pruning method      GridPruning ... 4 (adaptive)
Weight generation scheme         WeightScheme... Becke
Basis function cutoff            BFCut       ... 1.0000e-10
Integration weight cutoff        WCut        ... 1.0000e-14
Angular grids for H and He will be reduced by one unit
Partially contracted basis set               ... on
Rotationally invariant grid construction     ... off

Total number of grid points                  ...     8464
Total number of batches                      ...      150
Average number of points per batch           ...       56
Average number of grid points per atom       ...      313

Memory available               ... 929.2 MB
Memory needed per perturbation ...   6.7 MB
Perturbations treated per batch... 3
Number of batches              ... 1
     CP-SCF ITERATION   0:   6.7149e-02 (   0.4 sec   0/  3 done)
     CP-SCF ITERATION   1:   2.5209e-03 (   0.4 sec   0/  3 done)
     CP-SCF ITERATION   2:   2.5900e-04 (   0.4 sec   3/  3 done)
                    *** THE CP-SCF HAS CONVERGED ***

Forming final perturbed densities           ... done
Transforming perturbed density to AO basis  ... done

 Raw HFC matrix (all values in MHz): 
 -----------------------------------
                -2.9685              -2.5458               0.5822
                -2.5460               0.4553              -2.1701
                 0.5828              -2.1683              -1.5292

 A(FC)          -1.3468              -1.3468              -1.3468
 A(SD)          -1.1517               4.2478              -3.0960
 A(ORB+DIA)     -0.0014               0.0002              -0.0006    A(PC) =  -0.0006
 A(ORB)         -0.0013              -0.0001              -0.0003    A(PC) =  -0.0006
 A(DIA)         -0.0001               0.0003              -0.0004    A(PC) =  -0.0000
             ----------           ----------           ----------
 A(Tot)         -2.4999               2.9011              -4.4435    A(iso)=   -1.3474
 Orientation: 
  X          -0.4184746            0.3930227            0.8187870
  Y           0.2749249           -0.8044092            0.5266329
  Z           0.8656184            0.4454874            0.2285731

Notes:  (1) The A matrix conforms to the "SAI" spin Hamiltonian convention.
        (2) Tensor is right-handed.

 -----------------------------------------------------------
 Nucleus  26H : A:ISTP=    1 I=  0.5 P=533.5514 MHz/au**3
                Q:ISTP=    2 I=  1.0 Q=  0.0029 barn     
 -----------------------------------------------------------
 Solving for nuclear perturbation:
Forming RHS of the CP-SCF equations         ... 
Calc. nucleus orbit integrals (SHARK)       ... done

------------------------------------------------------------------------------
                           ORCA CP-SCF CALCULATION
------------------------------------------------------------------------------

Input orbitals are from        ... epr_info.gbw
Input Perturbation             ... epr_info.pin.tmp
Wavefunction output            ... epr_info.pout.tmp
Perturbation mode              ... Imaginary perturbation
Solver                         ... POPLE
Max. number of iterations      ... 64
Convergence tolerance          ... 1.000e-03
Integral handling              ... Direct
DFT GridXC                     ... 1
COSX GridX                     ... 1
COSX IntAccX                   ... 3.067
COSX Algorithm                 ... Auto
Number of perturbations        ... 3
Number of operators            ... 2
Orbital ranges used for CP-SCF:
 Operator 0:  Orbitals   0... 53  to  54...328
 Operator 1:  Orbitals   0... 52  to  53...328
Variables per perturbation     ... 29478
DFT calculation                         ... on
XC functional terms                     ... off
Hybrid DFT                              ... on
   Exchange mixing (SCF)                ...  0.200
   Exchange mixing (CP-SCF)             ...  0.200
   GGA exch. scaling(SCF)               ...  0.720
   GGA exch. scaling (CP-SCF)           ...  0.720
   GGA corr. scaling (SCF)              ...  0.810
   GGA corr. scaling (CP-SCF)           ...  0.810

CP-SCF GRID
-----------

General Integration Accuracy     IntAcc      ... 3.467
Radial Grid Type                 RadialGrid  ... OptM3 with GC (2021)
Angular Grid (max. ang.)         AngularGrid ... 1 (Lebedev-50)
Angular grid pruning method      GridPruning ... 4 (adaptive)
Weight generation scheme         WeightScheme... Becke
Basis function cutoff            BFCut       ... 1.0000e-10
Integration weight cutoff        WCut        ... 1.0000e-14
Angular grids for H and He will be reduced by one unit
Partially contracted basis set               ... off
Rotationally invariant grid construction     ... off

Total number of grid points                  ...    18238
Total number of batches                      ...      297
Average number of points per batch           ...       61
Average number of grid points per atom       ...      675

CP-SCF GRIDX
------------

General Integration Accuracy     IntAcc      ... 3.067
Radial Grid Type                 RadialGrid  ... OptM3 with GC (2021)
Angular Grid (max. ang.)         AngularGrid ... 1 (Lebedev-50)
Angular grid pruning method      GridPruning ... 4 (adaptive)
Weight generation scheme         WeightScheme... Becke
Basis function cutoff            BFCut       ... 1.0000e-10
Integration weight cutoff        WCut        ... 1.0000e-14
Angular grids for H and He will be reduced by one unit
Partially contracted basis set               ... on
Rotationally invariant grid construction     ... off

Total number of grid points                  ...     8464
Total number of batches                      ...      150
Average number of points per batch           ...       56
Average number of grid points per atom       ...      313

Memory available               ... 928.9 MB
Memory needed per perturbation ...   6.7 MB
Perturbations treated per batch... 3
Number of batches              ... 1
     CP-SCF ITERATION   0:   6.1895e-02 (   0.4 sec   0/  3 done)
     CP-SCF ITERATION   1:   2.7121e-03 (   0.4 sec   0/  3 done)
     CP-SCF ITERATION   2:   2.1360e-04 (   0.4 sec   3/  3 done)
                    *** THE CP-SCF HAS CONVERGED ***

Forming final perturbed densities           ... done
Transforming perturbed density to AO basis  ... done

 Raw HFC matrix (all values in MHz): 
 -----------------------------------
               -38.3059              -9.8046             -18.5757
                -9.8030             -97.2679               7.6535
               -18.5784               7.6520             -49.9036

 A(FC)         -61.8324             -61.8324             -61.8324
 A(SD)          39.2608              -1.7271             -37.5336
 A(ORB+DIA)     -0.0028              -0.0029               0.0256    A(PC) =   0.0066
 A(ORB)         -0.0077               0.0012               0.0270    A(PC) =   0.0068
 A(DIA)          0.0049              -0.0041              -0.0014    A(PC) =  -0.0002
             ----------           ----------           ----------
 A(Tot)        -22.5744             -63.5624             -99.3405    A(iso)=  -61.8258
 Orientation: 
  X           0.7938195            0.5948647           -0.1264383
  Y          -0.1642073            0.0094723           -0.9863804
  Z          -0.5855652            0.8037700            0.1052004

Notes:  (1) The A matrix conforms to the "SAI" spin Hamiltonian convention.
        (2) Tensor is right-handed.


--------------------------------------------------------------------------------
----------------------------------------------------------------------------
                           ORCA EULER ANGLE PROGRAM
----------------------------------------------------------------------------

Only g-tensor available        -->  using g-tensor as reference tensor

Reference tensor               ...  g

g-tensor ordering              ...  |g_min> --> |gx>
                                    |g_mid> --> |gy>
                                    |g_max> --> |gz>

A- and EFG-tensor ordering     ...  the axes |Ax>, |Qx>, |Ay>, etc. are assigned
                                    such that the Euler rotation is minimal. You
                                    can find the respective eigenvalues as Ax,
                                    EFGx, Ay, etc. in the tables below.
                                    The relation of |Ax>, |Ay>,  etc. to Amin, Amid, etc.
                                    (as printed in the ORCA EPR/NMR CALCULATION Output)
                                    is obtained in the detailed printout.

Euler rotation around          ...  z - y - z
   First rotation              -->  by alpha around z
   Second rotation             -->  by beta around y'
   Third rotation              -->  by gamma around z''
   Positive / Negative angle   -->  clockwise / counterclockwise rotation

Plot EFG-tensors                    (-)
Plot HFC-tensors                    (-)
Detailed Printout                   (-)

-------------------------------------------------------------------------
          Euler rotation of hyperfine tensor to g-tensor
-------------------------------------------------------------------------

-------------------------------------------------------------------
 Atom  |   Alpha    Beta    Gamma   |   Ax       Ay       Az 
       |          [degrees]         |           [MHz]         
-------------------------------------------------------------------
  0N      142.3     54.7   -124.7      90.07   155.98    87.71
  3O       40.3      7.1    -47.3      57.70    -3.32   -21.37
  6H      -45.0     38.2     18.1      12.95    24.99    12.19
  7H      136.0     23.6   -149.9      55.81    56.30    69.34
  9O     -154.7     53.9    130.8       3.61    23.85    -5.18
 10O     -144.1      5.0    146.3      60.32    -1.52   -22.23
 11H       57.3     29.1    -58.2      -2.83     3.16    -4.91
 12H      150.8     16.2   -174.1      12.43    10.30    25.46
 14N     -145.7     39.5    114.5      -9.30   -15.07    23.89
 15H     -160.5     48.7    142.4       4.10    -0.21    -0.64
 16H        8.2     34.5    -47.0      -4.44    -2.50     2.90
 26H      130.6     12.3   -143.7     -63.56   -22.57   -99.34
-------------------------------------------------------------------


Maximum memory used throughout the entire EPRNMR-calculation: 124.0 MB

Timings for individual modules:

Sum of individual times         ...      302.502 sec (=   5.042 min)
GTO integral calculation        ...        3.430 sec (=   0.057 min)   1.1 %
Spin-Orbit-Coupling Matrices    ...        4.419 sec (=   0.074 min)   1.5 %
SCF iterations                  ...       21.177 sec (=   0.353 min)   7.0 %
EPR/NMR calculation             ...      273.477 sec (=   4.558 min)  90.4 %
                             ****ORCA TERMINATED NORMALLY****
TOTAL RUN TIME: 0 days 0 hours 5 minutes 5 seconds 161 msec
