
                                 *****************
                                 * O   R   C   A *
                                 *****************

                                            #,                                       
                                            ###                                      
                                            ####                                     
                                            #####                                    
                                            ######                                   
                                           ########,                                 
                                     ,,################,,,,,                         
                               ,,#################################,,                 
                          ,,##########################################,,             
                       ,#########################################, ''#####,          
                    ,#############################################,,   '####,        
                  ,##################################################,,,,####,       
                ,###########''''           ''''###############################       
              ,#####''   ,,,,##########,,,,          '''####'''          '####       
            ,##' ,,,,###########################,,,                        '##       
           ' ,,###''''                  '''############,,,                           
         ,,##''                                '''############,,,,        ,,,,,,###''
      ,#''                                            '''#######################'''  
     '                                                          ''''####''''         
             ,#######,   #######,   ,#######,      ##                                
            ,#'     '#,  ##    ##  ,#'     '#,    #''#        ######   ,####,        
            ##       ##  ##   ,#'  ##            #'  '#       #        #'  '#        
            ##       ##  #######   ##           ,######,      #####,   #    #        
            '#,     ,#'  ##    ##  '#,     ,#' ,#      #,         ##   #,  ,#        
             '#######'   ##     ##  '#######'  #'      '#     #####' # '####'        



                  #######################################################
                  #                        -***-                        #
                  #          Department of theory and spectroscopy      #
                  #    Directorship and core code : Frank Neese         #
                  #        Max Planck Institute fuer Kohlenforschung    #
                  #                Kaiser Wilhelm Platz 1               #
                  #                 D-45470 Muelheim/Ruhr               #
                  #                      Germany                        #
                  #                                                     #
                  #                  All rights reserved                #
                  #                        -***-                        #
                  #######################################################


                         Program Version 5.0.4 -  RELEASE  -


 With contributions from (in alphabetic order):
   Daniel Aravena         : Magnetic Suceptibility
   Michael Atanasov       : Ab Initio Ligand Field Theory (pilot matlab implementation)
   Alexander A. Auer      : GIAO ZORA, VPT2 properties, NMR spectrum
   Ute Becker             : Parallelization
   Giovanni Bistoni       : ED, misc. LED, open-shell LED, HFLD
   Martin Brehm           : Molecular dynamics
   Dmytro Bykov           : SCF Hessian
   Vijay G. Chilkuri      : MRCI spin determinant printing, contributions to CSF-ICE
   Dipayan Datta          : RHF DLPNO-CCSD density
   Achintya Kumar Dutta   : EOM-CC, STEOM-CC
   Dmitry Ganyushin       : Spin-Orbit,Spin-Spin,Magnetic field MRCI
   Miquel Garcia          : C-PCM and meta-GGA Hessian, CC/C-PCM, Gaussian charge scheme
   Yang Guo               : DLPNO-NEVPT2, F12-NEVPT2, CIM, IAO-localization
   Andreas Hansen         : Spin unrestricted coupled pair/coupled cluster methods
   Benjamin Helmich-Paris : MC-RPA, TRAH-SCF, COSX integrals
   Lee Huntington         : MR-EOM, pCC
   Robert Izsak           : Overlap fitted RIJCOSX, COSX-SCS-MP3, EOM
   Marcus Kettner         : VPT2
   Christian Kollmar      : KDIIS, OOCD, Brueckner-CCSD(T), CCSD density, CASPT2, CASPT2-K
   Simone Kossmann        : Meta GGA functionals, TD-DFT gradient, OOMP2, MP2 Hessian
   Martin Krupicka        : Initial AUTO-CI
   Lucas Lang             : DCDCAS
   Marvin Lechner         : AUTO-CI (C++ implementation), FIC-MRCC
   Dagmar Lenk            : GEPOL surface, SMD
   Dimitrios Liakos       : Extrapolation schemes; Compound Job, initial MDCI parallelization
   Dimitrios Manganas     : Further ROCIS development; embedding schemes
   Dimitrios Pantazis     : SARC Basis sets
   Anastasios Papadopoulos: AUTO-CI, single reference methods and gradients
   Taras Petrenko         : DFT Hessian,TD-DFT gradient, ASA, ECA, R-Raman, ABS, FL, XAS/XES, NRVS
   Peter Pinski           : DLPNO-MP2, DLPNO-MP2 Gradient
   Christoph Reimann      : Effective Core Potentials
   Marius Retegan         : Local ZFS, SOC
   Christoph Riplinger    : Optimizer, TS searches, QM/MM, DLPNO-CCSD(T), (RO)-DLPNO pert. Triples
   Tobias Risthaus        : Range-separated hybrids, TD-DFT gradient, RPA, STAB
   Michael Roemelt        : Original ROCIS implementation
   Masaaki Saitow         : Open-shell DLPNO-CCSD energy and density
   Barbara Sandhoefer     : DKH picture change effects
   Avijit Sen             : IP-ROCIS
   Kantharuban Sivalingam : CASSCF convergence, NEVPT2, FIC-MRCI
   Bernardo de Souza      : ESD, SOC TD-DFT
   Georgi Stoychev        : AutoAux, RI-MP2 NMR, DLPNO-MP2 response
   Willem Van den Heuvel  : Paramagnetic NMR
   Boris Wezisla          : Elementary symmetry handling
   Frank Wennmohs         : Technical directorship


 We gratefully acknowledge several colleagues who have allowed us to
 interface, adapt or use parts of their codes:
   Stefan Grimme, W. Hujo, H. Kruse, P. Pracht,  : VdW corrections, initial TS optimization,
                  C. Bannwarth, S. Ehlert          DFT functionals, gCP, sTDA/sTD-DF
   Ed Valeev, F. Pavosevic, A. Kumar             : LibInt (2-el integral package), F12 methods
   Garnet Chan, S. Sharma, J. Yang, R. Olivares  : DMRG
   Ulf Ekstrom                                   : XCFun DFT Library
   Mihaly Kallay                                 : mrcc  (arbitrary order and MRCC methods)
   Jiri Pittner, Ondrej Demel                    : Mk-CCSD
   Frank Weinhold                                : gennbo (NPA and NBO analysis)
   Christopher J. Cramer and Donald G. Truhlar   : smd solvation model
   Lars Goerigk                                  : TD-DFT with DH, B97 family of functionals
   V. Asgeirsson, H. Jonsson                     : NEB implementation
   FAccTs GmbH                                   : IRC, NEB, NEB-TS, DLPNO-Multilevel, CI-OPT
                                                   MM, QMMM, 2- and 3-layer-ONIOM, Crystal-QMMM,
                                                   LR-CPCM, SF, NACMEs, symmetry and pop. for TD-DFT,
                                                   nearIR, NL-DFT gradient (VV10), updates on ESD,
                                                   ML-optimized integration grids
   S Lehtola, MJT Oliveira, MAL Marques          : LibXC Library
   Liviu Ungur et al                             : ANISO software


 Your calculation uses the libint2 library for the computation of 2-el integrals
 For citations please refer to: http://libint.valeyev.net

 Your ORCA version has been built with support for libXC version: 5.1.0
 For citations please refer to: https://tddft.org/programs/libxc/

 This ORCA versions uses:
   CBLAS   interface :  Fast vector & matrix operations
   LAPACKE interface :  Fast linear algebra routines
   SCALAPACK package :  Parallel linear algebra routines
   Shared memory     :  Shared parallel matrices
   BLAS/LAPACK       :  OpenBLAS 0.3.15  USE64BITINT DYNAMIC_ARCH NO_AFFINITY Zen SINGLE_THREADED
        Core in use  :  Zen
   Copyright (c) 2011-2014, The OpenBLAS Project




***************************************
The coordinates will be read from file: opt.xyz
***************************************


XCFun DFT library Copyright 2009-2010 Ulf Ekstrom and contributors.
See http://admol.org/xcfun for more information.
This is free software; see the source code for copying conditions.
There is ABSOLUTELY NO WARRANTY; not even for MERCHANTABILITY or FITNESS FOR A PARTICULAR PURPOSE.
For details see the documentation.
Scientific users of this library should cite U. Ekstrom, L. Visscher, R. Bast, A. J. Thorvaldsen and K. Ruud;
J.Chem.Theor.Comp. 2010, DOI: 10.1021/ct100117s
XCFun Version 0.99 

================================================================================

----- Orbital basis set information -----
Your calculation utilizes the basis: def2-TZVP
   F. Weigend and R. Ahlrichs, Phys. Chem. Chem. Phys. 7, 3297 (2005).

----- AuxJ basis set information -----
Your calculation utilizes the auxiliary basis: def2/J
   F. Weigend, Phys. Chem. Chem. Phys. 8, 1057 (2006).

================================================================================
                                        WARNINGS
                       Please study these warnings very carefully!
================================================================================


WARNING: your system is open-shell and RHF/RKS was chosen
  ===> : WILL SWITCH to UHF/UKS


WARNING: Geometry Optimization
  ===> : Switching off AutoStart
         For restart on a previous wavefunction, please use MOREAD

WARNING: Minnesota functionals are quite sensitive to the integration grid.
         see SE Wheeler, KN Houk, JCTC 2010, 6, 395,
             N Mardirossian, M Head-Gordon, JCTC 2016, 12, 4303.
         DEFGRID3 seems to be a minimum grid for reliable results with these functionals!
  ===> : Please increase the integration grid!


INFO   : the flag for use of the SHARK integral package has been found!

================================================================================
                                       INPUT FILE
================================================================================
NAME = freq.inp
|  1> ! M062X def2-TZVP OPT FREQ
|  2> %pal nprocs 16 end
|  3> *XYZFile 0 2 opt.xyz
|  4> 
|  5>                          ****END OF INPUT****
================================================================================

                       *****************************
                       * Geometry Optimization Run *
                       *****************************

Geometry optimization settings:
Update method            Update   .... BFGS
Choice of coordinates    CoordSys .... Z-matrix Internals
Initial Hessian          InHess   .... Almoef's Model

Convergence Tolerances:
Energy Change            TolE     ....  5.0000e-06 Eh
Max. Gradient            TolMAXG  ....  3.0000e-04 Eh/bohr
RMS Gradient             TolRMSG  ....  1.0000e-04 Eh/bohr
Max. Displacement        TolMAXD  ....  4.0000e-03 bohr
RMS Displacement         TolRMSD  ....  2.0000e-03 bohr
Strict Convergence                ....  False
------------------------------------------------------------------------------
                        ORCA OPTIMIZATION COORDINATE SETUP
------------------------------------------------------------------------------

The optimization will be done in new redundant internal coordinates
Making redundant internal coordinates   ...  (new redundants) done
Evaluating the initial hessian          ...  (Almloef) done
Evaluating the coordinates              ...  done
Calculating the B-matrix                .... done
Calculating the G-matrix                .... done
Diagonalizing the G-matrix              .... done
Small eigenvalue found = 7.893e-03
Small eigenvalue found = 1.118e-02
Small eigenvalue found = 1.590e-02
Small eigenvalue found = 2.332e-02
The first mode is                       ....   46
The number of degrees of freedom        ....   75

    -----------------------------------------------------------------
                    Redundant Internal Coordinates


    -----------------------------------------------------------------
         Definition                    Initial Value    Approx d2E/dq
    -----------------------------------------------------------------
      1. B(C   1,N   0)                  1.4558         0.439497   
      2. B(C   2,C   1)                  1.5532         0.343002   
      3. B(O   3,C   2)                  1.2312         1.002713   
      4. B(C   4,C   1)                  1.5131         0.397438   
      5. B(C   5,C   4)                  1.5048         0.409841   
      6. B(H   6,C   5)                  1.0920         0.357458   
      7. B(H   7,C   5)                  1.0969         0.351049   
      8. B(C   8,C   5)                  1.5329         0.369565   
      9. B(O   9,C   8)                  1.3570         0.631835   
     10. B(O  10,C   8)                  1.2139         1.068721   
     11. B(H  11,N   0)                  1.0117         0.430002   
     12. B(H  12,C   1)                  1.0958         0.352542   
     13. B(C  13,N   0)                  1.3698         0.602690   
     14. B(N  14,C   2)                  1.3625         0.619091   
     15. B(H  15,O   9)                  0.9711         0.499245   
     16. B(H  16,N  14)                  1.0089         0.434483   
     17. B(O  17,C  13)                  1.2315         1.001738   
     18. B(C  18,C  13)                  1.5226         0.383857   
     19. B(H  19,C  18)                  1.0947         0.353897   
     20. B(H  20,C  18)                  1.0915         0.358169   
     21. B(H  21,C  18)                  1.0935         0.355526   
     22. B(C  22,N  14)                  1.4591         0.434218   
     23. B(H  23,C  22)                  1.0944         0.354354   
     24. B(H  24,C  22)                  1.0956         0.352745   
     25. B(H  25,C  22)                  1.0901         0.359998   
     26. B(H  26,C   4)                  1.0856         0.365987   
     27. A(C   1,N   0,C  13)          121.6732         0.400974   
     28. A(C   1,N   0,H  11)          115.8533         0.338110   
     29. A(H  11,N   0,C  13)          121.9284         0.356566   
     30. A(C   2,C   1,H  12)          109.7156         0.318709   
     31. A(N   0,C   1,C   4)          113.7682         0.375273   
     32. A(C   2,C   1,C   4)          109.4718         0.361898   
     33. A(N   0,C   1,C   2)          106.5283         0.365886   
     34. A(N   0,C   1,H  12)          109.0157         0.329967   
     35. A(C   4,C   1,H  12)          108.2955         0.326497   
     36. A(O   3,C   2,N  14)          124.0169         0.467301   
     37. A(C   1,C   2,N  14)          114.7789         0.388212   
     38. A(C   1,C   2,O   3)          121.1812         0.422718   
     39. A(C   1,C   4,H  26)          119.0025         0.328517   
     40. A(C   1,C   4,C   5)          121.5573         0.373120   
     41. A(C   5,C   4,H  26)          118.9877         0.330189   
     42. A(C   4,C   5,H   7)          110.0002         0.327925   
     43. A(C   4,C   5,H   6)          111.5195         0.328905   
     44. A(H   7,C   5,C   8)          107.3287         0.322396   
     45. A(H   6,C   5,C   8)          107.1750         0.323354   
     46. A(C   4,C   5,C   8)          111.4495         0.368482   
     47. A(H   6,C   5,H   7)          109.2285         0.289346   
     48. A(O   9,C   8,O  10)          122.7690         0.474573   
     49. A(C   5,C   8,O  10)          125.5410         0.433333   
     50. A(C   5,C   8,O   9)          111.6880         0.394713   
     51. A(C   8,O   9,H  15)          106.5829         0.368736   
     52. A(O  17,C  13,C  18)          122.5413         0.431252   
     53. A(N   0,C  13,C  18)          115.6249         0.394072   
     54. A(N   0,C  13,O  17)          121.8241         0.464926   
     55. A(C   2,N  14,H  16)          117.8973         0.358829   
     56. A(H  16,N  14,C  22)          118.7635         0.338013   
     57. A(C   2,N  14,C  22)          123.2254         0.402019   
     58. A(C  13,C  18,H  21)          113.0334         0.325085   
     59. A(H  19,C  18,H  20)          108.5277         0.289803   
     60. A(C  13,C  18,H  20)          108.8286         0.325481   
     61. A(C  13,C  18,H  19)          107.7255         0.324840   
     62. A(H  20,C  18,H  21)          109.8970         0.290011   
     63. A(H  19,C  18,H  21)          108.7154         0.289466   
     64. A(H  24,C  22,H  25)          108.9278         0.289886   
     65. A(H  23,C  22,H  25)          109.1725         0.290093   
     66. A(N  14,C  22,H  25)          107.8265         0.330450   
     67. A(H  23,C  22,H  24)          109.1056         0.289169   
     68. A(N  14,C  22,H  24)          111.1342         0.329340   
     69. A(N  14,C  22,H  23)          110.6305         0.329588   
     70. D(H  12,C   1,N   0,H  11)    136.3252         0.016470   
     71. D(C   2,C   1,N   0,H  11)     18.0001         0.016470   
     72. D(C   4,C   1,N   0,C  13)     68.9801         0.016470   
     73. D(C   4,C   1,N   0,H  11)   -102.7052         0.016470   
     74. D(H  12,C   1,N   0,C  13)    -51.9896         0.016470   
     75. D(C   2,C   1,N   0,C  13)   -170.3146         0.016470   
     76. D(O   3,C   2,C   1,C   4)     97.9019         0.008924   
     77. D(N  14,C   2,C   1,H  12)     38.2910         0.008924   
     78. D(N  14,C   2,C   1,C   4)    -80.4205         0.008924   
     79. D(O   3,C   2,C   1,N   0)    -25.5224         0.008924   
     80. D(O   3,C   2,C   1,H  12)   -143.3866         0.008924   
     81. D(N  14,C   2,C   1,N   0)    156.1553         0.008924   
     82. D(C   5,C   4,C   1,C   2)    -75.9235         0.011729   
     83. D(C   5,C   4,C   1,H  12)    164.4880         0.011729   
     84. D(C   5,C   4,C   1,N   0)     43.1164         0.011729   
     85. D(H  26,C   4,C   1,H  12)     -7.7132         0.011729   
     86. D(H  26,C   4,C   1,C   2)    111.8752         0.011729   
     87. D(H  26,C   4,C   1,N   0)   -129.0848         0.011729   
     88. D(C   8,C   5,C   4,H  26)     75.9687         0.012441   
     89. D(H   7,C   5,C   4,H  26)    -42.9494         0.012441   
     90. D(H   7,C   5,C   4,C   1)    144.8483         0.012441   
     91. D(H   6,C   5,C   4,H  26)   -164.2985         0.012441   
     92. D(C   8,C   5,C   4,C   1)    -96.2337         0.012441   
     93. D(H   6,C   5,C   4,C   1)     23.4992         0.012441   
     94. D(O  10,C   8,C   5,H   7)   -130.7783         0.010229   
     95. D(O  10,C   8,C   5,H   6)    -13.5502         0.010229   
     96. D(O  10,C   8,C   5,C   4)    108.7220         0.010229   
     97. D(O   9,C   8,C   5,H   7)     49.7256         0.010229   
     98. D(O   9,C   8,C   5,H   6)    166.9536         0.010229   
     99. D(O   9,C   8,C   5,C   4)    -70.7742         0.010229   
    100. D(H  15,O   9,C   8,C   5)    175.6813         0.029372   
    101. D(H  15,O   9,C   8,O  10)     -3.8311         0.029372   
    102. D(C  18,C  13,N   0,H  11)     -3.3862         0.029288   
    103. D(C  18,C  13,N   0,C   1)   -174.5659         0.029288   
    104. D(O  17,C  13,N   0,H  11)    175.5049         0.029288   
    105. D(O  17,C  13,N   0,C   1)      4.3252         0.029288   
    106. D(C  22,N  14,C   2,O   3)     -2.7801         0.031028   
    107. D(C  22,N  14,C   2,C   1)    175.4883         0.031028   
    108. D(H  16,N  14,C   2,O   3)   -178.8485         0.031028   
    109. D(H  16,N  14,C   2,C   1)     -0.5801         0.031028   
    110. D(H  21,C  18,C  13,O  17)    159.9196         0.010982   
    111. D(H  21,C  18,C  13,N   0)    -21.1980         0.010982   
    112. D(H  20,C  18,C  13,O  17)     37.5285         0.010982   
    113. D(H  20,C  18,C  13,N   0)   -143.5891         0.010982   
    114. D(H  19,C  18,C  13,O  17)    -79.9522         0.010982   
    115. D(H  19,C  18,C  13,N   0)     98.9302         0.010982   
    116. D(H  25,C  22,N  14,H  16)   -177.0977         0.016075   
    117. D(H  25,C  22,N  14,C   2)      6.8661         0.016075   
    118. D(H  24,C  22,N  14,H  16)     63.5871         0.016075   
    119. D(H  24,C  22,N  14,C   2)   -112.4490         0.016075   
    120. D(H  23,C  22,N  14,H  16)    -57.7780         0.016075   
    121. D(H  23,C  22,N  14,C   2)    126.1858         0.016075   
    -----------------------------------------------------------------

Number of atoms                         .... 27
Number of degrees of freedom            .... 121

         *************************************************************
         *                GEOMETRY OPTIMIZATION CYCLE   1            *
         *************************************************************
---------------------------------
CARTESIAN COORDINATES (ANGSTROEM)
---------------------------------
  N     -4.130930   -4.512757   -0.658838
  C     -2.691215   -4.637412   -0.482982
  C     -2.442690   -4.772966    1.044244
  O     -3.241304   -4.317106    1.862989
  C     -1.907103   -3.459516   -1.019021
  C     -2.357872   -2.042572   -0.787855
  H     -3.000406   -1.965076    0.091701
  H     -1.487063   -1.388317   -0.657874
  C     -3.157355   -1.506927   -1.981090
  O     -2.364091   -1.294006   -3.061234
  O     -4.353070   -1.298033   -1.992664
  H     -4.655229   -4.252099    0.166219
  H     -2.345958   -5.542344   -0.995444
  C     -4.711857   -4.570741   -1.898003
  N     -1.276240   -5.391733    1.380281
  H     -2.950481   -1.025083   -3.787039
  H     -0.681112   -5.715298    0.632632
  O     -4.055441   -4.808665   -2.912449
  C     -6.209074   -4.296571   -1.936846
  H     -6.349268   -3.254204   -2.240573
  H     -6.665892   -4.941586   -2.689552
  H     -6.697174   -4.449074   -0.970306
  C     -0.813293   -5.531839    2.756829
  H     -0.597763   -6.579943    2.986371
  H      0.087335   -4.933494    2.933543
  H     -1.607738   -5.177528    3.413784
  H     -1.072794   -3.643545   -1.688766

----------------------------
CARTESIAN COORDINATES (A.U.)
----------------------------
  NO LB      ZA    FRAG     MASS         X           Y           Z
   0 N     7.0000    0    14.007   -7.806326   -8.527875   -1.245023
   1 C     6.0000    0    12.011   -5.085659   -8.763438   -0.912704
   2 C     6.0000    0    12.011   -4.616015   -9.019599    1.973336
   3 O     8.0000    0    15.999   -6.125177   -8.158149    3.520540
   4 C     6.0000    0    12.011   -3.603903   -6.537538   -1.925671
   5 C     6.0000    0    12.011   -4.455733   -3.859902   -1.488831
   6 H     1.0000    0     1.008   -5.669946   -3.713456    0.173289
   7 H     1.0000    0     1.008   -2.810142   -2.623538   -1.243202
   8 C     6.0000    0    12.011   -5.966537   -2.847679   -3.743717
   9 O     8.0000    0    15.999   -4.467485   -2.445317   -5.784894
  10 O     8.0000    0    15.999   -8.226110   -2.452927   -3.765588
  11 H     1.0000    0     1.008   -8.797109   -8.035302    0.314109
  12 H     1.0000    0     1.008   -4.433219  -10.473513   -1.881116
  13 C     6.0000    0    12.011   -8.904119   -8.637448   -3.586706
  14 N     7.0000    0    14.007   -2.411744  -10.188899    2.608354
  15 H     1.0000    0     1.008   -5.575602   -1.937126   -7.156467
  16 H     1.0000    0     1.008   -1.287115  -10.800349    1.195502
  17 O     8.0000    0    15.999   -7.663673   -9.087060   -5.503730
  18 C     6.0000    0    12.011  -11.733450   -8.119343   -3.660108
  19 H     1.0000    0     1.008  -11.998377   -6.149555   -4.234069
  20 H     1.0000    0     1.008  -12.596711   -9.338243   -5.082518
  21 H     1.0000    0     1.008  -12.655825   -8.407531   -1.833613
  22 C     6.0000    0    12.011   -1.536901  -10.453661    5.209651
  23 H     1.0000    0     1.008   -1.129608  -12.434290    5.643424
  24 H     1.0000    0     1.008    0.165040   -9.322952    5.543593
  25 H     1.0000    0     1.008   -3.038184   -9.784110    6.451116
  26 H     1.0000    0     1.008   -2.027287   -6.885303   -3.191305

--------------------------------
INTERNAL COORDINATES (ANGSTROEM)
--------------------------------
 N      0   0   0     0.000000000000     0.00000000     0.00000000
 C      1   0   0     1.455762258447     0.00000000     0.00000000
 C      2   1   0     1.553242066376   106.52834130     0.00000000
 O      3   2   1     1.231233967751   121.18118027   334.47761328
 C      2   1   3     1.513144434664   113.76819057   239.29469192
 C      5   2   1     1.504779629159   121.55733872    43.11643995
 H      6   5   2     1.092004546052   111.51951337    23.49920172
 H      6   5   2     1.096929134971   110.00019651   144.84829644
 C      6   5   2     1.532937592007   111.44945076   263.76630783
 O      9   6   5     1.356950569950   111.68802974   289.22582959
 O      9   6   5     1.213879610985   125.54098315   108.72195999
 H      1   2   3     1.011707597241   115.85327044    18.00011829
 H      2   1   3     1.095774373663   109.01569461   118.32506298
 C      1   2   3     1.369805857665   121.67319818   189.68536890
 N      3   2   1     1.362497054250   114.77888893   156.15529939
 H     10   9   6     0.971064592723   106.58290936   175.68133301
 H     15   3   2     1.008885963403   117.89726009   359.41988100
 O     14   1   2     1.231498741501   121.82409654     4.32521736
 C     14   1   2     1.522608928717   115.62489776   185.43405148
 H     19  14   1     1.094730060564   107.72551487    98.93020407
 H     19  14   1     1.091463785297   108.82861656   216.41093582
 H     19  14   1     1.093479659063   113.03336790   338.80198487
 C     15   3   2     1.459051722847   123.22542046   175.48826275
 H     23  15   3     1.094378694704   110.63052402   126.18582382
 H     23  15   3     1.095617076786   111.13417201   247.55095984
 H     23  15   3     1.090077271220   107.82650780     6.86610953
 H      5   2   1     1.085586036257   119.00246969   230.91521653

---------------------------
INTERNAL COORDINATES (A.U.)
---------------------------
 N      0   0   0     0.000000000000     0.00000000     0.00000000
 C      1   0   0     2.750991984564     0.00000000     0.00000000
 C      2   1   0     2.935202125137   106.52834130     0.00000000
 O      3   2   1     2.326695005831   121.18118027   334.47761328
 C      2   1   3     2.859428582581   113.76819057   239.29469192
 C      5   2   1     2.843621391014   121.55733872    43.11643995
 H      6   5   2     2.063589529036   111.51951337    23.49920172
 H      6   5   2     2.072895653415   110.00019651   144.84829644
 C      6   5   2     2.896832229287   111.44945076   263.76630783
 O      9   6   5     2.564264954473   111.68802974   289.22582959
 O      9   6   5     2.293900024313   125.54098315   108.72195999
 H      1   2   3     1.911850286393   115.85327044    18.00011829
 H      2   1   3     2.070713470792   109.01569461   118.32506298
 C      1   2   3     2.588557927629   121.67319818   189.68536890
 N      3   2   1     2.574746290808   114.77888893   156.15529939
 H     10   9   6     1.835046138594   106.58290936   175.68133301
 H     15   3   2     1.906518171189   117.89726009   359.41988100
 O     14   1   2     2.327195355706   121.82409654     4.32521736
 C     14   1   2     2.877313884339   115.62489776   185.43405148
 H     19  14   1     2.068740005038   107.72551487    98.93020407
 H     19  14   1     2.062567639304   108.82861656   216.41093582
 H     19  14   1     2.066377088643   113.03336790   338.80198487
 C     15   3   2     2.757208171407   123.22542046   175.48826275
 H     23  15   3     2.068076019790   110.63052402   126.18582382
 H     23  15   3     2.070416222772   111.13417201   247.55095984
 H     23  15   3     2.059947507417   107.82650780     6.86610953
 H      5   2   1     2.051460303335   119.00246969   230.91521653

---------------------
BASIS SET INFORMATION
---------------------
There are 4 groups of distinct atoms

 Group   1 Type N   : 11s6p2d1f contracted to 5s3p2d1f pattern {62111/411/11/1}
 Group   2 Type C   : 11s6p2d1f contracted to 5s3p2d1f pattern {62111/411/11/1}
 Group   3 Type O   : 11s6p2d1f contracted to 5s3p2d1f pattern {62111/411/11/1}
 Group   4 Type H   : 5s1p contracted to 3s1p pattern {311/1}

Atom   0N    basis set group =>   1
Atom   1C    basis set group =>   2
Atom   2C    basis set group =>   2
Atom   3O    basis set group =>   3
Atom   4C    basis set group =>   2
Atom   5C    basis set group =>   2
Atom   6H    basis set group =>   4
Atom   7H    basis set group =>   4
Atom   8C    basis set group =>   2
Atom   9O    basis set group =>   3
Atom  10O    basis set group =>   3
Atom  11H    basis set group =>   4
Atom  12H    basis set group =>   4
Atom  13C    basis set group =>   2
Atom  14N    basis set group =>   1
Atom  15H    basis set group =>   4
Atom  16H    basis set group =>   4
Atom  17O    basis set group =>   3
Atom  18C    basis set group =>   2
Atom  19H    basis set group =>   4
Atom  20H    basis set group =>   4
Atom  21H    basis set group =>   4
Atom  22C    basis set group =>   2
Atom  23H    basis set group =>   4
Atom  24H    basis set group =>   4
Atom  25H    basis set group =>   4
Atom  26H    basis set group =>   4
---------------------------------
AUXILIARY/J BASIS SET INFORMATION
---------------------------------
There are 4 groups of distinct atoms

 Group   1 Type N   : 12s5p4d2f1g contracted to 6s4p3d1f1g pattern {711111/2111/211/2/1}
 Group   2 Type C   : 12s5p4d2f1g contracted to 6s4p3d1f1g pattern {711111/2111/211/2/1}
 Group   3 Type O   : 12s5p4d2f1g contracted to 6s4p3d1f1g pattern {711111/2111/211/2/1}
 Group   4 Type H   : 5s2p1d contracted to 3s1p1d pattern {311/2/1}

Atom   0N    basis set group =>   1
Atom   1C    basis set group =>   2
Atom   2C    basis set group =>   2
Atom   3O    basis set group =>   3
Atom   4C    basis set group =>   2
Atom   5C    basis set group =>   2
Atom   6H    basis set group =>   4
Atom   7H    basis set group =>   4
Atom   8C    basis set group =>   2
Atom   9O    basis set group =>   3
Atom  10O    basis set group =>   3
Atom  11H    basis set group =>   4
Atom  12H    basis set group =>   4
Atom  13C    basis set group =>   2
Atom  14N    basis set group =>   1
Atom  15H    basis set group =>   4
Atom  16H    basis set group =>   4
Atom  17O    basis set group =>   3
Atom  18C    basis set group =>   2
Atom  19H    basis set group =>   4
Atom  20H    basis set group =>   4
Atom  21H    basis set group =>   4
Atom  22C    basis set group =>   2
Atom  23H    basis set group =>   4
Atom  24H    basis set group =>   4
Atom  25H    basis set group =>   4
Atom  26H    basis set group =>   4


           ************************************************************
           *        Program running with 16 parallel MPI-processes    *
           *              working on a common directory               *
           ************************************************************
------------------------------------------------------------------------------
                           ORCA GTO INTEGRAL CALCULATION
                           -- RI-GTO INTEGRALS CHOSEN --
------------------------------------------------------------------------------
------------------------------------------------------------------------------
                   ___                                                        
                  /   \      - P O W E R E D   B Y -                         
                 /     \                                                     
                 |  |  |   _    _      __       _____    __    __             
                 |  |  |  | |  | |    /  \     |  _  \  |  |  /  |          
                  \  \/   | |  | |   /    \    | | | |  |  | /  /          
                 / \  \   | |__| |  /  /\  \   | |_| |  |  |/  /          
                |  |  |   |  __  | /  /__\  \  |    /   |      \           
                |  |  |   | |  | | |   __   |  |    \   |  |\   \          
                \     /   | |  | | |  |  |  |  | |\  \  |  | \   \       
                 \___/    |_|  |_| |__|  |__|  |_| \__\ |__|  \__/        
                                                                              
                      - O R C A' S   B I G   F R I E N D -                    
                                      &                                       
                       - I N T E G R A L  F E E D E R -                       
                                                                              
 v1 FN, 2020, v2 2021                                                         
------------------------------------------------------------------------------


Reading SHARK input file freq.SHARKINP.tmp ... ok
----------------------
SHARK INTEGRAL PACKAGE
----------------------

Number of atoms                             ...     27
Number of basis functions                   ...    512
Number of shells                            ...    206
Maximum angular momentum                    ...      3
Integral batch strategy                     ... SHARK/LIBINT Hybrid
RI-J (if used) integral strategy            ... SPLIT-RIJ (Revised 2003 algorithm where possible)
Printlevel                                  ...      1
Contraction scheme used                     ... SEGMENTED contraction
Coulomb Range Separation                    ... NOT USED
Exchange Range Separation                   ... NOT USED
Finite Nucleus Model                        ... NOT USED
Auxiliary Coulomb fitting basis             ... AVAILABLE
   # of basis functions in Aux-J            ...    829
   # of shells in Aux-J                     ...    275
   Maximum angular momentum in Aux-J        ...      4
Auxiliary J/K fitting basis                 ... NOT available
Auxiliary Correlation fitting basis         ... NOT available
Auxiliary 'external' fitting basis          ... NOT available
Integral threshold                          ...     2.500000e-11
Primitive cut-off                           ...     2.500000e-12
Primitive pair pre-selection threshold      ...     2.500000e-12

Calculating pre-screening integrals         ... done (  0.0 sec) Dimension = 206
Organizing shell pair data                  ... done (  0.1 sec)
Shell pair information
Total number of shell pairs                 ...     21321
Shell pairs after pre-screening             ...     16923
Total number of primitive shell pairs       ...     64608
Primitive shell pairs kept                  ...     35635
          la=0 lb=0:   4604 shell pairs
          la=1 lb=0:   4870 shell pairs
          la=1 lb=1:   1319 shell pairs
          la=2 lb=0:   2374 shell pairs
          la=2 lb=1:   1272 shell pairs
          la=2 lb=2:    329 shell pairs
          la=3 lb=0:   1137 shell pairs
          la=3 lb=1:    628 shell pairs
          la=3 lb=2:    309 shell pairs
          la=3 lb=3:     81 shell pairs

Calculating one electron integrals          ... done (  0.0 sec)
Calculating RI/J V-Matrix + Cholesky decomp.... done (  0.0 sec)
Calculating Nuclear repulsion               ... done (  0.0 sec) ENN=    936.730668585684 Eh

SHARK setup successfully completed in   0.3 seconds

Maximum memory used throughout the entire GTOINT-calculation: 29.1 MB


           ************************************************************
           *        Program running with 16 parallel MPI-processes    *
           *              working on a common directory               *
           ************************************************************
-------------------------------------------------------------------------------
                                 ORCA SCF
-------------------------------------------------------------------------------

------------
SCF SETTINGS
------------
Hamiltonian:
 Density Functional     Method          .... DFT(GTOs)
 Exchange Functional    Exchange        .... M062X
 Correlation Functional Correlation     .... M062X
 Gradients option       PostSCFGGA      .... off
 Hybrid DFT is turned on
   Fraction HF Exchange ScalHFX         ....  0.540000
   Scaling of DF-GGA-X  ScalDFX         ....  0.460000
   Scaling of DF-GGA-C  ScalDFC         ....  1.000000
   Scaling of DF-LDA-C  ScalLDAC        ....  1.000000
   Perturbative correction              ....  0.000000
   Density functional embedding theory  .... OFF
 RI-approximation to the Coulomb term is turned on
   Number of AuxJ basis functions       .... 829
   RIJ-COSX (HFX calculated with COS-X)).... on


General Settings:
 Integral files         IntName         .... freq
 Hartree-Fock type      HFTyp           .... UHF
 Total Charge           Charge          ....    0
 Multiplicity           Mult            ....    2
 Number of Electrons    NEL             ....  107
 Basis Dimension        Dim             ....  512
 Nuclear Repulsion      ENuc            ....    936.7306685857 Eh

Convergence Acceleration:
 DIIS                   CNVDIIS         .... on
   Start iteration      DIISMaxIt       ....    12
   Startup error        DIISStart       ....  0.200000
   # of expansion vecs  DIISMaxEq       ....     5
   Bias factor          DIISBfac        ....   1.050
   Max. coefficient     DIISMaxC        ....  10.000
 Trust-Rad. Augm. Hess. CNVTRAH         .... auto
   Auto Start mean grad. ratio tolernc. ....  1.125000
   Auto Start start iteration           ....    20
   Auto Start num. interpolation iter.  ....    10
   Max. Number of Micro iterations      ....    16
   Max. Number of Macro iterations      .... Maxiter - #DIIS iter
   Number of Davidson start vectors     ....     2
   Converg. threshold I  (grad. norm)   ....   1.000e-05
   Converg. threshold II (energy diff.) ....   1.000e-08
   Grad. Scal. Fac. for Micro threshold ....   0.100
   Minimum threshold for Micro iter.    ....   0.010
   NR start threshold (gradient norm)   ....   0.001
   Initial trust radius                 ....   0.400
   Minimum AH scaling param. (alpha)    ....   1.000
   Maximum AH scaling param. (alpha)    .... 1000.000
   Orbital update algorithm             .... Taylor
   White noise on init. David. guess    .... on
   Maximum white noise                  ....   0.010
   Quad. conv. algorithm                .... NR
 SOSCF                  CNVSOSCF        .... off
 Level Shifting         CNVShift        .... on
   Level shift para.    LevelShift      ....    0.2500
   Turn off err/grad.   ShiftErr        ....    0.0010
 Zerner damping         CNVZerner       .... off
 Static damping         CNVDamp         .... on
   Fraction old density DampFac         ....    0.7000
   Max. Damping (<1)    DampMax         ....    0.9800
   Min. Damping (>=0)   DampMin         ....    0.0000
   Turn off err/grad.   DampErr         ....    0.1000
 Fernandez-Rico         CNVRico         .... off

SCF Procedure:
 Maximum # iterations   MaxIter         ....   125
 SCF integral mode      SCFMode         .... Direct
   Integral package                     .... SHARK and LIBINT hybrid scheme
 Reset frequency        DirectResetFreq ....    20
 Integral Threshold     Thresh          ....  2.500e-11 Eh
 Primitive CutOff       TCut            ....  2.500e-12 Eh

Convergence Tolerance:
 Convergence Check Mode ConvCheckMode   .... Total+1el-Energy
 Convergence forced     ConvForced      .... 0
 Energy Change          TolE            ....  1.000e-08 Eh
 1-El. energy change                    ....  1.000e-05 Eh
 DIIS Error             TolErr          ....  5.000e-07


Diagonalization of the overlap matrix:
Smallest eigenvalue                        ... 9.561e-05
Time for diagonalization                   ...    0.039 sec
Threshold for overlap eigenvalues          ... 1.000e-08
Number of eigenvalues below threshold      ... 0
Time for construction of square roots      ...    0.021 sec
Total time needed                          ...    0.062 sec

Time for model grid setup =    0.104 sec

------------------------------
INITIAL GUESS: MODEL POTENTIAL
------------------------------
Loading Hartree-Fock densities                     ... done
Calculating cut-offs                               ... done
Initializing the effective Hamiltonian             ... done
Setting up the integral package (SHARK)            ... done
Starting the Coulomb interaction                   ... done (   0.1 sec)
Reading the grid                                   ... done
Mapping shells                                     ... done
Starting the XC term evaluation                    ... done (   0.1 sec)
  promolecular density results
     # of electrons  =    106.991835404
     EX              =    -90.403623711
     EC              =     -3.575737006
     EX+EC           =    -93.979360717
Transforming the Hamiltonian                       ... done (   0.0 sec)
Diagonalizing the Hamiltonian                      ... done (   0.0 sec)
Back transforming the eigenvectors                 ... done (   0.0 sec)
Now organizing SCF variables                       ... done
                      ------------------
                      INITIAL GUESS DONE (   0.4 sec)
                      ------------------
-------------------
DFT GRID GENERATION
-------------------

General Integration Accuracy     IntAcc      ... 4.388
Radial Grid Type                 RadialGrid  ... OptM3 with GC (2021)
Angular Grid (max. ang.)         AngularGrid ... 4 (Lebedev-302)
Angular grid pruning method      GridPruning ... 4 (adaptive)
Weight generation scheme         WeightScheme... Becke
Basis function cutoff            BFCut       ... 1.0000e-11
Integration weight cutoff        WCut        ... 1.0000e-14
Angular grids for H and He will be reduced by one unit
Partially contracted basis set               ... off
Rotationally invariant grid construction     ... off

Total number of grid points                  ...   125922
Total number of batches                      ...     1982
Average number of points per batch           ...       63
Average number of grid points per atom       ...     4664
Time for grid setup =    0.546 sec

--------------------
COSX GRID GENERATION
--------------------

GRIDX 1
-------
General Integration Accuracy     IntAcc      ... 3.816
Radial Grid Type                 RadialGrid  ... OptM3 with GC (2021)
Angular Grid (max. ang.)         AngularGrid ... 1 (Lebedev-50)
Angular grid pruning method      GridPruning ... 4 (adaptive)
Weight generation scheme         WeightScheme... Becke
Basis function cutoff            BFCut       ... 1.0000e-11
Integration weight cutoff        WCut        ... 1.0000e-14
Angular grids for H and He will be reduced by one unit
Partially contracted basis set               ... on
Rotationally invariant grid construction     ... off

Total number of grid points                  ...    16056
Total number of batches                      ...      269
Average number of points per batch           ...       59
Average number of grid points per atom       ...      595
UseSFitting                                  ... on

GRIDX 2
-------
General Integration Accuracy     IntAcc      ... 4.020
Radial Grid Type                 RadialGrid  ... OptM3 with GC (2021)
Angular Grid (max. ang.)         AngularGrid ... 2 (Lebedev-110)
Angular grid pruning method      GridPruning ... 4 (adaptive)
Weight generation scheme         WeightScheme... Becke
Basis function cutoff            BFCut       ... 1.0000e-11
Integration weight cutoff        WCut        ... 1.0000e-14
Angular grids for H and He will be reduced by one unit
Partially contracted basis set               ... on
Rotationally invariant grid construction     ... off

Total number of grid points                  ...    34736
Total number of batches                      ...      557
Average number of points per batch           ...       62
Average number of grid points per atom       ...     1287
UseSFitting                                  ... on

GRIDX 3
-------
General Integration Accuracy     IntAcc      ... 4.338
Radial Grid Type                 RadialGrid  ... OptM3 with GC (2021)
Angular Grid (max. ang.)         AngularGrid ... 3 (Lebedev-194)
Angular grid pruning method      GridPruning ... 4 (adaptive)
Weight generation scheme         WeightScheme... Becke
Basis function cutoff            BFCut       ... 1.0000e-11
Integration weight cutoff        WCut        ... 1.0000e-14
Angular grids for H and He will be reduced by one unit
Partially contracted basis set               ... on
Rotationally invariant grid construction     ... off

Total number of grid points                  ...    75950
Total number of batches                      ...     1201
Average number of points per batch           ...       63
Average number of grid points per atom       ...     2813
UseSFitting                                  ... on

Time for X-Grid setup             =    0.742 sec

--------------
SCF ITERATIONS
--------------
ITER       Energy         Delta-E        Max-DP      RMS-DP      [F,P]     Damp
               ***  Starting incremental Fock matrix formation  ***
  0   -722.5638402691   0.000000000000 0.03802297  0.00044904  0.1524613 0.7000
  1   -722.7875527511  -0.223712482019 0.03574912  0.00036148  0.0730990 0.7000
                               ***Turning on DIIS***
  2   -722.8833191358  -0.095766384658 0.05655972  0.00067621  0.0264486 0.0000
  3   -723.0404846575  -0.157165521681 0.02965536  0.00026979  0.0352964 0.0000
  4   -723.0686109866  -0.028126329151 0.00715161  0.00009057  0.0052355 0.0000
  5   -723.0699677544  -0.001356767796 0.00332718  0.00004061  0.0025285 0.0000
  6   -723.0702776768  -0.000309922331 0.00162175  0.00002242  0.0011278 0.0000
  7   -723.0703781159  -0.000100439103 0.00123457  0.00002031  0.0006293 0.0000
               *** Restarting incremental Fock matrix formation ***
                                   *** Resetting DIIS ***
  8   -723.0704996480  -0.000121532168 0.00061233  0.00000652  0.0004282 0.0000
  9   -723.0705013211  -0.000001673080 0.00018108  0.00000261  0.0005469 0.0000
 10   -723.0705042492  -0.000002928120 0.00021619  0.00000141  0.0000812 0.0000
 11   -723.0705045705  -0.000000321254 0.00007367  0.00000076  0.0000931 0.0000
 12   -723.0705047111  -0.000000140597 0.00004076  0.00000032  0.0000335 0.0000
 13   -723.0705047214  -0.000000010281 0.00001725  0.00000012  0.0000103 0.0000
 14   -723.0705047237  -0.000000002351 0.00000744  0.00000006  0.0000059 0.0000
 15   -723.0705047295  -0.000000005765 0.00000352  0.00000004  0.0000050 0.0000
 16   -723.0705047548  -0.000000025365 0.00000312  0.00000003  0.0000030 0.0000
                            ***DIIS convergence achieved***

               *****************************************************
               *                     SUCCESS                       *
               *           SCF CONVERGED AFTER  17 CYCLES          *
               *****************************************************

Old exchange energy                            =    -49.792099921 Eh
New exchange energy                            =    -49.792163860 Eh
Exchange energy change after final integration =     -0.000063939 Eh
Total energy after final integration           =   -723.070568682 Eh
Final COS-X integration done in                =     4.086 sec

----------------
TOTAL SCF ENERGY
----------------

Total Energy       :         -723.07056868 Eh          -19675.75047 eV

Components:
Nuclear Repulsion  :          936.73066859 Eh           25489.73737 eV
Electronic Energy  :        -1659.80123727 Eh          -45165.48784 eV
One Electron Energy:        -2845.62651983 Eh          -77433.43424 eV
Two Electron Energy:         1185.82528256 Eh           32267.94641 eV
Max COSX asymmetry :            0.00000089 Eh               0.00002 eV

Virial components:
Potential Energy   :        -1442.37089328 Eh          -39248.90738 eV
Kinetic Energy     :          719.30032460 Eh           19573.15691 eV
Virial Ratio       :            2.00524154


DFT components:
N(Alpha)           :       54.000018245989 electrons
N(Beta)            :       53.000014939152 electrons
N(Total)           :      107.000033185141 electrons
E(XC)              :      -46.395854732714 Eh       
DFET-embed. en.    :        0.000000000000 Eh       

---------------
SCF CONVERGENCE
---------------

  Last Energy change         ...    1.1906e-08  Tolerance :   1.0000e-08
  Last MAX-Density change    ...    0.0000e+00  Tolerance :   1.0000e-07
  Last RMS-Density change    ...    0.0000e+00  Tolerance :   5.0000e-09
  Last DIIS Error            ...    9.8779e-07  Tolerance :   5.0000e-07

             **** THE GBW FILE WAS UPDATED (freq.gbw) ****
             **** DENSITY freq.scfp WAS UPDATED ****
             **** ENERGY FILE WAS UPDATED (freq.en.tmp) ****
----------------------
UHF SPIN CONTAMINATION
----------------------

Warning: in a DFT calculation there is little theoretical justification to 
         calculate <S**2> as in Hartree-Fock theory. We will do it anyways
         but you should keep in mind that the values have only limited relevance

Expectation value of <S**2>     :     0.756035
Ideal value S*(S+1) for S=0.5   :     0.750000
Deviation                       :     0.006035

             **** THE GBW FILE WAS UPDATED (freq.gbw) ****
             **** DENSITY freq.scfp WAS UPDATED ****
----------------
ORBITAL ENERGIES
----------------
                 SPIN UP ORBITALS
  NO   OCC          E(Eh)            E(eV) 
   0   1.0000     -19.677076      -535.4405 
   1   1.0000     -19.625142      -534.0273 
   2   1.0000     -19.614095      -533.7267 
   3   1.0000     -19.587459      -533.0019 
   4   1.0000     -14.795047      -402.5937 
   5   1.0000     -14.770889      -401.9363 
   6   1.0000     -10.686616      -290.7976 
   7   1.0000     -10.665811      -290.2315 
   8   1.0000     -10.642353      -289.5932 
   9   1.0000     -10.606430      -288.6156 
  10   1.0000     -10.584383      -288.0157 
  11   1.0000     -10.575543      -287.7752 
  12   1.0000     -10.566647      -287.5331 
  13   1.0000     -10.533763      -286.6383 
  14   1.0000      -1.236066       -33.6351 
  15   1.0000      -1.177375       -32.0380 
  16   1.0000      -1.149450       -31.2781 
  17   1.0000      -1.141865       -31.0717 
  18   1.0000      -1.049548       -28.5597 
  19   1.0000      -1.033309       -28.1178 
  20   1.0000      -0.914459       -24.8837 
  21   1.0000      -0.860669       -23.4200 
  22   1.0000      -0.824238       -22.4287 
  23   1.0000      -0.795328       -21.6420 
  24   1.0000      -0.730476       -19.8773 
  25   1.0000      -0.693126       -18.8609 
  26   1.0000      -0.685950       -18.6656 
  27   1.0000      -0.653782       -17.7903 
  28   1.0000      -0.619401       -16.8548 
  29   1.0000      -0.590632       -16.0719 
  30   1.0000      -0.578781       -15.7494 
  31   1.0000      -0.571739       -15.5578 
  32   1.0000      -0.557967       -15.1831 
  33   1.0000      -0.553787       -15.0693 
  34   1.0000      -0.544921       -14.8280 
  35   1.0000      -0.532985       -14.5033 
  36   1.0000      -0.526767       -14.3341 
  37   1.0000      -0.510264       -13.8850 
  38   1.0000      -0.493444       -13.4273 
  39   1.0000      -0.479294       -13.0423 
  40   1.0000      -0.476529       -12.9670 
  41   1.0000      -0.473260       -12.8781 
  42   1.0000      -0.472103       -12.8466 
  43   1.0000      -0.457856       -12.4589 
  44   1.0000      -0.448827       -12.2132 
  45   1.0000      -0.444982       -12.1086 
  46   1.0000      -0.419295       -11.4096 
  47   1.0000      -0.401316       -10.9204 
  48   1.0000      -0.378133       -10.2895 
  49   1.0000      -0.361178        -9.8282 
  50   1.0000      -0.342859        -9.3297 
  51   1.0000      -0.330138        -8.9835 
  52   1.0000      -0.322552        -8.7771 
  53   1.0000      -0.267513        -7.2794 
  54   0.0000       0.034607         0.9417 
  55   0.0000       0.046116         1.2549 
  56   0.0000       0.048347         1.3156 
  57   0.0000       0.063233         1.7207 
  58   0.0000       0.067053         1.8246 
  59   0.0000       0.081012         2.2045 
  60   0.0000       0.086441         2.3522 
  61   0.0000       0.102016         2.7760 
  62   0.0000       0.109670         2.9843 
  63   0.0000       0.120159         3.2697 
  64   0.0000       0.123910         3.3718 
  65   0.0000       0.133580         3.6349 
  66   0.0000       0.142079         3.8662 
  67   0.0000       0.147609         4.0166 
  68   0.0000       0.149111         4.0575 
  69   0.0000       0.163377         4.4457 
  70   0.0000       0.167418         4.5557 
  71   0.0000       0.176106         4.7921 
  72   0.0000       0.186463         5.0739 
  73   0.0000       0.194987         5.3059 
  74   0.0000       0.204399         5.5620 
  75   0.0000       0.211700         5.7607 
  76   0.0000       0.217320         5.9136 
  77   0.0000       0.228035         6.2051 
  78   0.0000       0.231464         6.2985 
  79   0.0000       0.239936         6.5290 
  80   0.0000       0.247834         6.7439 
  81   0.0000       0.253476         6.8974 
  82   0.0000       0.257057         6.9949 
  83   0.0000       0.261725         7.1219 
  84   0.0000       0.278908         7.5895 
  85   0.0000       0.282162         7.6780 
  86   0.0000       0.296634         8.0718 
  87   0.0000       0.308051         8.3825 
  88   0.0000       0.311023         8.4634 
  89   0.0000       0.322188         8.7672 
  90   0.0000       0.332212         9.0399 
  91   0.0000       0.351316         9.5598 
  92   0.0000       0.354236         9.6393 
  93   0.0000       0.363462         9.8903 
  94   0.0000       0.373451        10.1621 
  95   0.0000       0.382387        10.4053 
  96   0.0000       0.385080        10.4786 
  97   0.0000       0.394244        10.7279 
  98   0.0000       0.395447        10.7606 
  99   0.0000       0.408988        11.1291 
 100   0.0000       0.413893        11.2626 
 101   0.0000       0.424886        11.5617 
 102   0.0000       0.427003        11.6193 
 103   0.0000       0.437894        11.9157 
 104   0.0000       0.441619        12.0171 
 105   0.0000       0.450057        12.2467 
 106   0.0000       0.453803        12.3486 
 107   0.0000       0.456905        12.4330 
 108   0.0000       0.459673        12.5083 
 109   0.0000       0.470260        12.7964 
 110   0.0000       0.479006        13.0344 
 111   0.0000       0.480993        13.0885 
 112   0.0000       0.488378        13.2894 
 113   0.0000       0.491945        13.3865 
 114   0.0000       0.494245        13.4491 
 115   0.0000       0.504167        13.7191 
 116   0.0000       0.506269        13.7763 
 117   0.0000       0.518452        14.1078 
 118   0.0000       0.522135        14.2080 
 119   0.0000       0.525982        14.3127 
 120   0.0000       0.533426        14.5153 
 121   0.0000       0.541273        14.7288 
 122   0.0000       0.550468        14.9790 
 123   0.0000       0.553121        15.0512 
 124   0.0000       0.567716        15.4483 
 125   0.0000       0.573037        15.5931 
 126   0.0000       0.575634        15.6638 
 127   0.0000       0.592737        16.1292 
 128   0.0000       0.593785        16.1577 
 129   0.0000       0.599646        16.3172 
 130   0.0000       0.607156        16.5215 
 131   0.0000       0.617592        16.8055 
 132   0.0000       0.619976        16.8704 
 133   0.0000       0.630090        17.1456 
 134   0.0000       0.637642        17.3511 
 135   0.0000       0.649496        17.6737 
 136   0.0000       0.669615        18.2211 
 137   0.0000       0.692861        18.8537 
 138   0.0000       0.697396        18.9771 
 139   0.0000       0.700994        19.0750 
 140   0.0000       0.718930        19.5631 
 141   0.0000       0.722191        19.6518 
 142   0.0000       0.730079        19.8665 
 143   0.0000       0.764676        20.8079 
 144   0.0000       0.771047        20.9812 
 145   0.0000       0.784896        21.3581 
 146   0.0000       0.796679        21.6787 
 147   0.0000       0.803284        21.8585 
 148   0.0000       0.810102        22.0440 
 149   0.0000       0.823680        22.4135 
 150   0.0000       0.829913        22.5831 
 151   0.0000       0.851901        23.1814 
 152   0.0000       0.867323        23.6011 
 153   0.0000       0.869482        23.6598 
 154   0.0000       0.887324        24.1453 
 155   0.0000       0.904641        24.6165 
 156   0.0000       0.923011        25.1164 
 157   0.0000       0.924761        25.1640 
 158   0.0000       0.941693        25.6248 
 159   0.0000       0.947219        25.7751 
 160   0.0000       0.952091        25.9077 
 161   0.0000       0.970383        26.4055 
 162   0.0000       0.981159        26.6987 
 163   0.0000       0.998179        27.1618 
 164   0.0000       1.009422        27.4678 
 165   0.0000       1.009774        27.4774 
 166   0.0000       1.045705        28.4551 
 167   0.0000       1.050661        28.5899 
 168   0.0000       1.059290        28.8247 
 169   0.0000       1.064400        28.9638 
 170   0.0000       1.072635        29.1879 
 171   0.0000       1.090732        29.6803 
 172   0.0000       1.106392        30.1065 
 173   0.0000       1.121204        30.5095 
 174   0.0000       1.138460        30.9791 
 175   0.0000       1.145473        31.1699 
 176   0.0000       1.148990        31.2656 
 177   0.0000       1.160676        31.5836 
 178   0.0000       1.169858        31.8335 
 179   0.0000       1.190155        32.3858 
 180   0.0000       1.216253        33.0959 
 181   0.0000       1.225450        33.3462 
 182   0.0000       1.236091        33.6357 
 183   0.0000       1.253640        34.1133 
 184   0.0000       1.290876        35.1265 
 185   0.0000       1.299151        35.3517 
 186   0.0000       1.302715        35.4487 
 187   0.0000       1.332643        36.2631 
 188   0.0000       1.365176        37.1483 
 189   0.0000       1.370890        37.3038 
 190   0.0000       1.376071        37.4448 
 191   0.0000       1.399404        38.0797 
 192   0.0000       1.409961        38.3670 
 193   0.0000       1.414417        38.4882 
 194   0.0000       1.434767        39.0420 
 195   0.0000       1.452509        39.5248 
 196   0.0000       1.477585        40.2071 
 197   0.0000       1.483451        40.3668 
 198   0.0000       1.491144        40.5761 
 199   0.0000       1.509135        41.0657 
 200   0.0000       1.515737        41.2453 
 201   0.0000       1.525619        41.5142 
 202   0.0000       1.539848        41.9014 
 203   0.0000       1.541433        41.9445 
 204   0.0000       1.547442        42.1080 
 205   0.0000       1.554972        42.3129 
 206   0.0000       1.561703        42.4961 
 207   0.0000       1.575523        42.8721 
 208   0.0000       1.587097        43.1871 
 209   0.0000       1.589671        43.2572 
 210   0.0000       1.603529        43.6343 
 211   0.0000       1.610308        43.8187 
 212   0.0000       1.620886        44.1066 
 213   0.0000       1.623227        44.1702 
 214   0.0000       1.625506        44.2323 
 215   0.0000       1.649064        44.8733 
 216   0.0000       1.660891        45.1951 
 217   0.0000       1.666670        45.3524 
 218   0.0000       1.682903        45.7941 
 219   0.0000       1.698380        46.2153 
 220   0.0000       1.706999        46.4498 
 221   0.0000       1.711550        46.5736 
 222   0.0000       1.727974        47.0206 
 223   0.0000       1.732280        47.1377 
 224   0.0000       1.739200        47.3260 
 225   0.0000       1.768676        48.1281 
 226   0.0000       1.775687        48.3189 
 227   0.0000       1.784192        48.5503 
 228   0.0000       1.794977        48.8438 
 229   0.0000       1.821238        49.5584 
 230   0.0000       1.828243        49.7490 
 231   0.0000       1.841842        50.1191 
 232   0.0000       1.846808        50.2542 
 233   0.0000       1.860442        50.6252 
 234   0.0000       1.890163        51.4340 
 235   0.0000       1.906296        51.8729 
 236   0.0000       1.908824        51.9417 
 237   0.0000       1.926675        52.4275 
 238   0.0000       1.938786        52.7570 
 239   0.0000       1.951052        53.0908 
 240   0.0000       1.961920        53.3866 
 241   0.0000       1.974817        53.7375 
 242   0.0000       1.981567        53.9212 
 243   0.0000       1.988288        54.1041 
 244   0.0000       2.002476        54.4902 
 245   0.0000       2.011905        54.7467 
 246   0.0000       2.026003        55.1303 
 247   0.0000       2.031354        55.2760 
 248   0.0000       2.040060        55.5128 
 249   0.0000       2.045735        55.6673 
 250   0.0000       2.059076        56.0303 
 251   0.0000       2.073535        56.4238 
 252   0.0000       2.113887        57.5218 
 253   0.0000       2.121430        57.7270 
 254   0.0000       2.132330        58.0237 
 255   0.0000       2.163262        58.8653 
 256   0.0000       2.175785        59.2061 
 257   0.0000       2.189536        59.5803 
 258   0.0000       2.203810        59.9687 
 259   0.0000       2.209585        60.1259 
 260   0.0000       2.219997        60.4092 
 261   0.0000       2.223513        60.5049 
 262   0.0000       2.227598        60.6160 
 263   0.0000       2.258961        61.4695 
 264   0.0000       2.264062        61.6083 
 265   0.0000       2.279134        62.0184 
 266   0.0000       2.283905        62.1482 
 267   0.0000       2.288156        62.2639 
 268   0.0000       2.304573        62.7106 
 269   0.0000       2.315666        63.0125 
 270   0.0000       2.320723        63.1501 
 271   0.0000       2.344707        63.8027 
 272   0.0000       2.352756        64.0217 
 273   0.0000       2.368826        64.4590 
 274   0.0000       2.373284        64.5804 
 275   0.0000       2.389930        65.0333 
 276   0.0000       2.399324        65.2889 
 277   0.0000       2.427427        66.0537 
 278   0.0000       2.442497        66.4637 
 279   0.0000       2.450862        66.6913 
 280   0.0000       2.453970        66.7759 
 281   0.0000       2.471299        67.2475 
 282   0.0000       2.485675        67.6387 
 283   0.0000       2.505935        68.1900 
 284   0.0000       2.514699        68.4284 
 285   0.0000       2.530064        68.8466 
 286   0.0000       2.536354        69.0177 
 287   0.0000       2.542465        69.1840 
 288   0.0000       2.557316        69.5881 
 289   0.0000       2.566300        69.8326 
 290   0.0000       2.577801        70.1455 
 291   0.0000       2.583203        70.2925 
 292   0.0000       2.605165        70.8902 
 293   0.0000       2.616475        71.1979 
 294   0.0000       2.621094        71.3236 
 295   0.0000       2.641094        71.8678 
 296   0.0000       2.651755        72.1579 
 297   0.0000       2.672247        72.7155 
 298   0.0000       2.691405        73.2368 
 299   0.0000       2.698812        73.4384 
 300   0.0000       2.718237        73.9670 
 301   0.0000       2.732166        74.3460 
 302   0.0000       2.747358        74.7594 
 303   0.0000       2.753381        74.9233 
 304   0.0000       2.760571        75.1190 
 305   0.0000       2.776935        75.5643 
 306   0.0000       2.791038        75.9480 
 307   0.0000       2.797300        76.1184 
 308   0.0000       2.803489        76.2868 
 309   0.0000       2.829172        76.9857 
 310   0.0000       2.842224        77.3409 
 311   0.0000       2.875895        78.2571 
 312   0.0000       2.889283        78.6214 
 313   0.0000       2.912124        79.2429 
 314   0.0000       2.929831        79.7248 
 315   0.0000       2.936533        79.9071 
 316   0.0000       2.950269        80.2809 
 317   0.0000       2.954980        80.4091 
 318   0.0000       2.972428        80.8839 
 319   0.0000       2.987979        81.3070 
 320   0.0000       3.001140        81.6652 
 321   0.0000       3.001585        81.6773 
 322   0.0000       3.012429        81.9724 
 323   0.0000       3.024757        82.3078 
 324   0.0000       3.048597        82.9565 
 325   0.0000       3.054560        83.1188 
 326   0.0000       3.057597        83.2014 
 327   0.0000       3.069849        83.5349 
 328   0.0000       3.086989        84.0012 
 329   0.0000       3.091807        84.1323 
 330   0.0000       3.094831        84.2146 
 331   0.0000       3.101517        84.3966 
 332   0.0000       3.115071        84.7654 
 333   0.0000       3.125008        85.0358 
 334   0.0000       3.147106        85.6371 
 335   0.0000       3.156922        85.9042 
 336   0.0000       3.165011        86.1243 
 337   0.0000       3.172022        86.3151 
 338   0.0000       3.179226        86.5111 
 339   0.0000       3.181748        86.5798 
 340   0.0000       3.196553        86.9826 
 341   0.0000       3.208220        87.3001 
 342   0.0000       3.217368        87.5490 
 343   0.0000       3.228721        87.8580 
 344   0.0000       3.242024        88.2200 
 345   0.0000       3.249294        88.4178 
 346   0.0000       3.259792        88.7034 
 347   0.0000       3.267518        88.9137 
 348   0.0000       3.284513        89.3761 
 349   0.0000       3.292994        89.6069 
 350   0.0000       3.304214        89.9122 
 351   0.0000       3.308913        90.0401 
 352   0.0000       3.315863        90.2292 
 353   0.0000       3.327251        90.5391 
 354   0.0000       3.343169        90.9723 
 355   0.0000       3.350722        91.1778 
 356   0.0000       3.364500        91.5527 
 357   0.0000       3.377490        91.9062 
 358   0.0000       3.381835        92.0244 
 359   0.0000       3.392648        92.3186 
 360   0.0000       3.399097        92.4941 
 361   0.0000       3.408611        92.7530 
 362   0.0000       3.427500        93.2670 
 363   0.0000       3.443262        93.6959 
 364   0.0000       3.453657        93.9788 
 365   0.0000       3.459516        94.1382 
 366   0.0000       3.478000        94.6412 
 367   0.0000       3.488872        94.9370 
 368   0.0000       3.498820        95.2077 
 369   0.0000       3.504698        95.3677 
 370   0.0000       3.513969        95.6200 
 371   0.0000       3.516337        95.6844 
 372   0.0000       3.557255        96.7978 
 373   0.0000       3.561229        96.9060 
 374   0.0000       3.585971        97.5792 
 375   0.0000       3.600808        97.9830 
 376   0.0000       3.632570        98.8473 
 377   0.0000       3.642394        99.1146 
 378   0.0000       3.659177        99.5713 
 379   0.0000       3.696200       100.5787 
 380   0.0000       3.708514       100.9138 
 381   0.0000       3.723001       101.3080 
 382   0.0000       3.735231       101.6408 
 383   0.0000       3.769007       102.5599 
 384   0.0000       3.786154       103.0265 
 385   0.0000       3.794719       103.2595 
 386   0.0000       3.816082       103.8409 
 387   0.0000       3.821611       103.9913 
 388   0.0000       3.848720       104.7290 
 389   0.0000       3.852151       104.8224 
 390   0.0000       3.874593       105.4330 
 391   0.0000       3.877776       105.5196 
 392   0.0000       3.902147       106.1828 
 393   0.0000       3.919339       106.6506 
 394   0.0000       3.932298       107.0033 
 395   0.0000       3.968462       107.9873 
 396   0.0000       3.996150       108.7408 
 397   0.0000       4.016852       109.3041 
 398   0.0000       4.038982       109.9063 
 399   0.0000       4.051859       110.2567 
 400   0.0000       4.084233       111.1376 
 401   0.0000       4.098326       111.5211 
 402   0.0000       4.116210       112.0078 
 403   0.0000       4.147164       112.8501 
 404   0.0000       4.164493       113.3216 
 405   0.0000       4.201236       114.3214 
 406   0.0000       4.220049       114.8334 
 407   0.0000       4.253745       115.7503 
 408   0.0000       4.331290       117.8604 
 409   0.0000       4.344067       118.2081 
 410   0.0000       4.360665       118.6597 
 411   0.0000       4.386511       119.3630 
 412   0.0000       4.392734       119.5324 
 413   0.0000       4.409745       119.9952 
 414   0.0000       4.430529       120.5608 
 415   0.0000       4.445806       120.9765 
 416   0.0000       4.452888       121.1692 
 417   0.0000       4.485291       122.0510 
 418   0.0000       4.515164       122.8639 
 419   0.0000       4.539288       123.5203 
 420   0.0000       4.572394       124.4212 
 421   0.0000       4.622850       125.7942 
 422   0.0000       4.626719       125.8994 
 423   0.0000       4.677167       127.2722 
 424   0.0000       4.701891       127.9450 
 425   0.0000       4.723487       128.5326 
 426   0.0000       4.743421       129.0750 
 427   0.0000       4.757072       129.4465 
 428   0.0000       4.794677       130.4698 
 429   0.0000       4.807808       130.8271 
 430   0.0000       4.852857       132.0530 
 431   0.0000       4.861389       132.2851 
 432   0.0000       4.978135       135.4619 
 433   0.0000       5.009309       136.3102 
 434   0.0000       5.046744       137.3289 
 435   0.0000       5.053834       137.5218 
 436   0.0000       5.057876       137.6318 
 437   0.0000       5.094761       138.6355 
 438   0.0000       5.165448       140.5590 
 439   0.0000       5.172060       140.7389 
 440   0.0000       5.178629       140.9177 
 441   0.0000       5.201494       141.5399 
 442   0.0000       5.219029       142.0170 
 443   0.0000       5.220427       142.0550 
 444   0.0000       5.228022       142.2617 
 445   0.0000       5.259837       143.1274 
 446   0.0000       5.281596       143.7195 
 447   0.0000       5.296863       144.1350 
 448   0.0000       5.303239       144.3085 
 449   0.0000       5.345300       145.4530 
 450   0.0000       5.383257       146.4859 
 451   0.0000       5.393086       146.7533 
 452   0.0000       5.416936       147.4023 
 453   0.0000       5.435895       147.9182 
 454   0.0000       5.469613       148.8357 
 455   0.0000       5.500636       149.6799 
 456   0.0000       5.508669       149.8985 
 457   0.0000       5.585720       151.9952 
 458   0.0000       5.594976       152.2470 
 459   0.0000       5.651901       153.7960 
 460   0.0000       5.671328       154.3247 
 461   0.0000       5.709823       155.3722 
 462   0.0000       5.727440       155.8516 
 463   0.0000       5.767622       156.9450 
 464   0.0000       5.839667       158.9054 
 465   0.0000       5.870477       159.7438 
 466   0.0000       5.873681       159.8310 
 467   0.0000       5.906647       160.7280 
 468   0.0000       6.096608       165.8971 
 469   0.0000       6.107604       166.1963 
 470   0.0000       6.146388       167.2517 
 471   0.0000       6.194673       168.5656 
 472   0.0000       6.297467       171.3628 
 473   0.0000       6.302252       171.4930 
 474   0.0000       6.329118       172.2241 
 475   0.0000       6.333246       172.3364 
 476   0.0000       6.416588       174.6042 
 477   0.0000       6.429869       174.9656 
 478   0.0000       6.458126       175.7346 
 479   0.0000       6.483452       176.4237 
 480   0.0000       6.546227       178.1319 
 481   0.0000       6.559153       178.4836 
 482   0.0000       6.625660       180.2934 
 483   0.0000       6.641724       180.7305 
 484   0.0000       6.657412       181.1574 
 485   0.0000       6.689468       182.0297 
 486   0.0000       6.733470       183.2270 
 487   0.0000       6.824745       185.7108 
 488   0.0000       6.831944       185.9066 
 489   0.0000       6.852422       186.4639 
 490   0.0000       6.881632       187.2587 
 491   0.0000       7.042692       191.6414 
 492   0.0000       7.063791       192.2155 
 493   0.0000       7.070203       192.3900 
 494   0.0000       7.075129       192.5240 
 495   0.0000       7.083363       192.7481 
 496   0.0000       7.086939       192.8454 
 497   0.0000       7.275501       197.9764 
 498   0.0000      22.410511       609.8210 
 499   0.0000      22.457014       611.0864 
 500   0.0000      22.512376       612.5929 
 501   0.0000      22.604710       615.1054 
 502   0.0000      22.735505       618.6645 
 503   0.0000      23.252731       632.7390 
 504   0.0000      23.357777       635.5974 
 505   0.0000      23.377900       636.1450 
 506   0.0000      32.491255       884.1320 
 507   0.0000      32.655774       888.6088 
 508   0.0000      43.976430      1196.6595 
 509   0.0000      44.010473      1197.5858 
 510   0.0000      44.083958      1199.5855 
 511   0.0000      44.116409      1200.4685 

                 SPIN DOWN ORBITALS
  NO   OCC          E(Eh)            E(eV) 
   0   1.0000     -19.676982      -535.4379 
   1   1.0000     -19.624962      -534.0224 
   2   1.0000     -19.613909      -533.7216 
   3   1.0000     -19.587391      -533.0000 
   4   1.0000     -14.794814      -402.5873 
   5   1.0000     -14.770358      -401.9219 
   6   1.0000     -10.685603      -290.7700 
   7   1.0000     -10.665094      -290.2120 
   8   1.0000     -10.642350      -289.5931 
   9   1.0000     -10.607136      -288.6348 
  10   1.0000     -10.584393      -288.0160 
  11   1.0000     -10.568681      -287.5884 
  12   1.0000     -10.567303      -287.5509 
  13   1.0000     -10.533725      -286.6372 
  14   1.0000      -1.235349       -33.6156 
  15   1.0000      -1.176472       -32.0134 
  16   1.0000      -1.149146       -31.2699 
  17   1.0000      -1.141252       -31.0550 
  18   1.0000      -1.048658       -28.5354 
  19   1.0000      -1.031106       -28.0578 
  20   1.0000      -0.899035       -24.4640 
  21   1.0000      -0.858319       -23.3561 
  22   1.0000      -0.823602       -22.4113 
  23   1.0000      -0.789745       -21.4901 
  24   1.0000      -0.717982       -19.5373 
  25   1.0000      -0.687458       -18.7067 
  26   1.0000      -0.684915       -18.6375 
  27   1.0000      -0.646556       -17.5937 
  28   1.0000      -0.614585       -16.7237 
  29   1.0000      -0.587949       -15.9989 
  30   1.0000      -0.575376       -15.6568 
  31   1.0000      -0.566674       -15.4200 
  32   1.0000      -0.553823       -15.0703 
  33   1.0000      -0.552558       -15.0359 
  34   1.0000      -0.543234       -14.7821 
  35   1.0000      -0.530963       -14.4482 
  36   1.0000      -0.525150       -14.2901 
  37   1.0000      -0.508346       -13.8328 
  38   1.0000      -0.490011       -13.3339 
  39   1.0000      -0.475483       -12.9386 
  40   1.0000      -0.474286       -12.9060 
  41   1.0000      -0.472653       -12.8616 
  42   1.0000      -0.470588       -12.8053 
  43   1.0000      -0.456659       -12.4263 
  44   1.0000      -0.446348       -12.1458 
  45   1.0000      -0.441570       -12.0157 
  46   1.0000      -0.417122       -11.3505 
  47   1.0000      -0.400558       -10.8997 
  48   1.0000      -0.365745        -9.9524 
  49   1.0000      -0.357450        -9.7267 
  50   1.0000      -0.340831        -9.2745 
  51   1.0000      -0.328032        -8.9262 
  52   1.0000      -0.320182        -8.7126 
  53   0.0000      -0.034009        -0.9254 
  54   0.0000       0.035358         0.9621 
  55   0.0000       0.047020         1.2795 
  56   0.0000       0.052452         1.4273 
  57   0.0000       0.063485         1.7275 
  58   0.0000       0.070204         1.9104 
  59   0.0000       0.080816         2.1991 
  60   0.0000       0.086824         2.3626 
  61   0.0000       0.099045         2.6951 
  62   0.0000       0.110506         3.0070 
  63   0.0000       0.120690         3.2841 
  64   0.0000       0.126068         3.4305 
  65   0.0000       0.133144         3.6230 
  66   0.0000       0.141216         3.8427 
  67   0.0000       0.147933         4.0255 
  68   0.0000       0.149692         4.0733 
  69   0.0000       0.163560         4.4507 
  70   0.0000       0.168909         4.5963 
  71   0.0000       0.176385         4.7997 
  72   0.0000       0.186764         5.0821 
  73   0.0000       0.200232         5.4486 
  74   0.0000       0.203763         5.5447 
  75   0.0000       0.212762         5.7896 
  76   0.0000       0.218475         5.9450 
  77   0.0000       0.228224         6.2103 
  78   0.0000       0.229629         6.2485 
  79   0.0000       0.240440         6.5427 
  80   0.0000       0.250734         6.8228 
  81   0.0000       0.254850         6.9348 
  82   0.0000       0.257805         7.0152 
  83   0.0000       0.263380         7.1669 
  84   0.0000       0.280132         7.6228 
  85   0.0000       0.282700         7.6927 
  86   0.0000       0.298168         8.1136 
  87   0.0000       0.310508         8.4494 
  88   0.0000       0.315749         8.5920 
  89   0.0000       0.324383         8.8269 
  90   0.0000       0.339374         9.2348 
  91   0.0000       0.352162         9.5828 
  92   0.0000       0.360053         9.7975 
  93   0.0000       0.366823         9.9818 
  94   0.0000       0.374843        10.2000 
  95   0.0000       0.385032        10.4773 
  96   0.0000       0.386141        10.5074 
  97   0.0000       0.394712        10.7407 
  98   0.0000       0.398242        10.8367 
  99   0.0000       0.409064        11.1312 
 100   0.0000       0.415605        11.3092 
 101   0.0000       0.427170        11.6239 
 102   0.0000       0.430014        11.7013 
 103   0.0000       0.439244        11.9524 
 104   0.0000       0.445769        12.1300 
 105   0.0000       0.449748        12.2383 
 106   0.0000       0.456301        12.4166 
 107   0.0000       0.458754        12.4833 
 108   0.0000       0.461101        12.5472 
 109   0.0000       0.472221        12.8498 
 110   0.0000       0.479502        13.0479 
 111   0.0000       0.484155        13.1745 
 112   0.0000       0.488375        13.2894 
 113   0.0000       0.492627        13.4051 
 114   0.0000       0.495016        13.4701 
 115   0.0000       0.506352        13.7786 
 116   0.0000       0.508425        13.8349 
 117   0.0000       0.521524        14.1914 
 118   0.0000       0.524086        14.2611 
 119   0.0000       0.528148        14.3716 
 120   0.0000       0.537301        14.6207 
 121   0.0000       0.543092        14.7783 
 122   0.0000       0.551889        15.0177 
 123   0.0000       0.553652        15.0656 
 124   0.0000       0.568411        15.4673 
 125   0.0000       0.574987        15.6462 
 126   0.0000       0.577111        15.7040 
 127   0.0000       0.594035        16.1645 
 128   0.0000       0.596399        16.2288 
 129   0.0000       0.600362        16.3367 
 130   0.0000       0.607980        16.5440 
 131   0.0000       0.617428        16.8011 
 132   0.0000       0.621425        16.9098 
 133   0.0000       0.630824        17.1656 
 134   0.0000       0.640336        17.4244 
 135   0.0000       0.651919        17.7396 
 136   0.0000       0.669955        18.2304 
 137   0.0000       0.695282        18.9196 
 138   0.0000       0.698119        18.9968 
 139   0.0000       0.702274        19.1099 
 140   0.0000       0.718798        19.5595 
 141   0.0000       0.720472        19.6050 
 142   0.0000       0.731393        19.9022 
 143   0.0000       0.764822        20.8119 
 144   0.0000       0.773356        21.0441 
 145   0.0000       0.786447        21.4003 
 146   0.0000       0.797875        21.7113 
 147   0.0000       0.801616        21.8131 
 148   0.0000       0.811092        22.0709 
 149   0.0000       0.824576        22.4378 
 150   0.0000       0.831478        22.6257 
 151   0.0000       0.851847        23.1799 
 152   0.0000       0.867235        23.5987 
 153   0.0000       0.871708        23.7204 
 154   0.0000       0.888270        24.1711 
 155   0.0000       0.905676        24.6447 
[...]
     69      -0.142710  -0.000555  -0.000072   0.023288   0.000132   0.000055
     70       0.621416   0.002441   0.000299  -0.182981  -0.000896  -0.000528
     71      -0.098688  -0.000386  -0.000060   0.032361   0.000170   0.000062
     72       0.602128   0.002571  -0.000097   0.290375   0.001285   0.000641
     73       0.401392   0.001689  -0.000051   0.212823   0.000912   0.000477
     74       0.148373   0.000636  -0.000027   0.076871   0.000351   0.000053
     75      -0.135413  -0.000245  -0.000003   0.682414   0.002391   0.001213
     76       0.028391  -0.000004  -0.000010  -0.251199  -0.000884  -0.000511
     77       0.100608   0.000172  -0.000008  -0.540265  -0.001913  -0.000642
     78      -0.000226   0.051257  -0.000126   0.001275  -0.001459  -0.691510
     79       0.000048  -0.011264   0.000134  -0.000335   0.000540   0.185929
     80       0.000179  -0.055477   0.000288  -0.001277   0.001556   0.687607
                 78         79         80    
      0      -0.041620  -0.001297   0.000075
      1       0.002504   0.000037   0.000028
      2       0.060345   0.001899  -0.000044
      3       0.000172  -0.000136  -0.000018
      4       0.000256   0.000037  -0.000032
      5       0.000028  -0.000016  -0.000003
      6       0.000523   0.000225   0.000017
      7      -0.000116  -0.000255  -0.000010
      8      -0.000483   0.001389   0.000066
      9      -0.000292   0.001200   0.000005
     10       0.000009  -0.000217   0.000002
     11       0.000714  -0.000627  -0.000025
     12       0.000292   0.000246   0.000017
     13       0.000159   0.000024  -0.000005
     14       0.000155  -0.000087  -0.000076
     15      -0.000074  -0.000030  -0.000569
     16      -0.000027  -0.000022   0.000167
     17       0.000078  -0.000024  -0.000489
     18       0.000364  -0.000229   0.000142
     19      -0.000204   0.000312  -0.000246
     20      -0.001173   0.000070  -0.000143
     21       0.000505   0.000142   0.001371
     22       0.000137  -0.000131   0.001260
     23      -0.000180  -0.000051  -0.000858
     24      -0.000162   0.000023   0.000536
     25      -0.000052   0.000015  -0.000639
     26      -0.000012  -0.000026   0.002979
     27       0.000081  -0.000030   0.038394
     28       0.000010   0.000008  -0.011174
     29       0.000067  -0.000001   0.046309
     30       0.000065  -0.000022   0.000848
     31       0.000057  -0.000000  -0.000045
     32       0.000018   0.000012  -0.000480
     33       0.574739   0.017183  -0.000634
     34      -0.036027  -0.000906  -0.000081
     35      -0.813599  -0.025515   0.000952
     36       0.004846   0.000692  -0.000030
     37      -0.005835  -0.000441   0.000152
     38      -0.000567  -0.000670   0.000014
     39      -0.000660  -0.000012  -0.000062
     40       0.000069   0.000008  -0.000052
     41      -0.000529  -0.000156  -0.000008
     42       0.001112  -0.051040  -0.000030
     43       0.000036   0.002326   0.000008
     44      -0.001591   0.052793  -0.000005
     45      -0.000966   0.000158  -0.625172
     46      -0.000253  -0.000026   0.183045
     47      -0.000754   0.000150  -0.756236
     48      -0.022366   0.689762   0.000242
     49       0.001144  -0.027906  -0.000155
     50       0.021673  -0.718956  -0.000118
     51       0.000487  -0.000018   0.000067
     52       0.000059   0.000004   0.000038
     53      -0.001614   0.000004   0.000035
     54      -0.000088   0.000002   0.000018
     55      -0.000045   0.000001  -0.000019
     56       0.000258   0.000021  -0.000016
     57      -0.000136  -0.000001  -0.000272
     58       0.000262   0.000038  -0.000076
     59      -0.000143   0.000008  -0.000248
     60      -0.000278   0.000052   0.000170
     61      -0.000069   0.000013   0.000355
     62      -0.000205   0.000072   0.000182
     63       0.000510  -0.000035   0.000091
     64       0.000713  -0.000017   0.000059
     65      -0.003219  -0.000053   0.000072
     66       0.000038  -0.000932   0.000002
     67       0.000003   0.000267  -0.000018
     68       0.000120  -0.000936   0.000033
     69      -0.000015  -0.000442  -0.000050
     70       0.000159   0.001095   0.000111
     71      -0.000167   0.000184  -0.000044
     72      -0.000341   0.002273  -0.000072
     73      -0.000139   0.000377  -0.000059
     74      -0.000106   0.001195  -0.000028
     75       0.000333   0.007789   0.000034
     76      -0.000051  -0.002646  -0.000027
     77       0.000320  -0.010676  -0.000014
     78      -0.000200  -0.000708   0.000273
     79      -0.000216  -0.000259  -0.000160
     80      -0.000787   0.001999  -0.000050


-----------
IR SPECTRUM
-----------

 Mode   freq       eps      Int      T**2         TX        TY        TZ
       cm**-1   L/(mol*cm) km/mol    a.u.
----------------------------------------------------------------------------
  7:     46.43   0.000015    0.08  0.000100  (-0.002981 -0.006802 -0.006713)
  8:     71.59   0.000088    0.45  0.000384  ( 0.004285  0.018437  0.005091)
  9:     83.80   0.000060    0.31  0.000225  (-0.008180  0.012564  0.000488)
 10:     94.31   0.000964    4.87  0.003189  (-0.003329  0.055883 -0.007416)
 11:    112.68   0.000771    3.90  0.002135  ( 0.004878 -0.041109  0.020536)
 12:    123.34   0.001541    7.79  0.003898  (-0.036304 -0.002290 -0.050745)
 13:    129.13   0.001634    8.26  0.003948  ( 0.000497 -0.062483  0.006606)
 14:    135.15   0.000022    0.11  0.000052  ( 0.003266  0.006309 -0.001116)
 15:    139.67   0.002924   14.78  0.006534  ( 0.040380  0.059980  0.036134)
 16:    162.87   0.000394    1.99  0.000754  (-0.006168  0.026248 -0.005223)
 17:    240.50   0.000984    4.97  0.001277  (-0.031564 -0.012158 -0.011539)
 18:    264.47   0.000993    5.02  0.001171  (-0.019897  0.021137 -0.018132)
 19:    297.31   0.000163    0.82  0.000171  ( 0.008896  0.002499  0.009268)
 20:    307.02   0.000622    3.14  0.000632  ( 0.003563 -0.024621  0.003677)
 21:    385.44   0.004165   21.05  0.003372  (-0.036085  0.022358 -0.039628)
 22:    423.18   0.002173   10.98  0.001603  (-0.025678  0.030383 -0.004502)
 23:    447.77   0.013900   70.25  0.009688  ( 0.016504  0.096092 -0.013473)
 24:    475.45   0.002568   12.98  0.001685  ( 0.001758  0.033479  0.023695)
 25:    502.87   0.005711   28.86  0.003544  ( 0.026179 -0.053356  0.003456)
 26:    530.30   0.010219   51.64  0.006013  (-0.021944 -0.074074  0.006699)
 27:    544.31   0.017534   88.61  0.010053  (-0.002186 -0.094285  0.034034)
 28:    578.03   0.005922   29.93  0.003197  (-0.041500 -0.037391 -0.008771)
 29:    593.68   0.011754   59.40  0.006178  ( 0.027777  0.051075  0.052896)
 30:    626.94   0.001973    9.97  0.000982  ( 0.013548  0.005160  0.027781)
 31:    653.31   0.001592    8.04  0.000760  (-0.001550 -0.020348  0.018545)
 32:    726.25   0.000341    1.72  0.000146  (-0.000674 -0.003400  0.011592)
 33:    746.86   0.006153   31.09  0.002571  ( 0.007624  0.041837 -0.027613)
 34:    807.46   0.003270   16.53  0.001264  ( 0.006074 -0.027789  0.021326)
 35:    882.43   0.000514    2.60  0.000182  (-0.012471 -0.004342  0.002714)
 36:    898.42   0.000267    1.35  0.000093  ( 0.007008  0.000241 -0.006606)
 37:    925.40   0.001040    5.26  0.000351  (-0.007004  0.016863  0.004178)
 38:    971.61   0.000600    3.03  0.000193  ( 0.010613  0.004243  0.007873)
 39:   1016.23   0.002621   13.24  0.000805  ( 0.000296  0.002633 -0.028245)
 40:   1026.96   0.001083    5.47  0.000329  ( 0.017957  0.000176 -0.002561)
 41:   1063.81   0.001832    9.26  0.000537  (-0.003907 -0.022841  0.000697)
 42:   1078.31   0.001791    9.05  0.000518  (-0.021510  0.004642  0.005839)
 43:   1129.04   0.006721   33.97  0.001858  ( 0.012575  0.006704 -0.040678)
 44:   1160.14   0.001901    9.61  0.000511  (-0.009919  0.003248 -0.020058)
 45:   1178.38   0.014643   74.00  0.003878  (-0.036319 -0.011833  0.049180)
 46:   1181.03   0.005741   29.01  0.001517  ( 0.024871 -0.016461  0.025050)
 47:   1209.21   0.003566   18.02  0.000920  (-0.028828 -0.000061 -0.009452)
 48:   1237.00   0.008889   44.92  0.002242  ( 0.032534  0.011950 -0.032268)
 49:   1248.53   0.024727  124.96  0.006181  ( 0.001587 -0.025889  0.074214)
 50:   1272.41   0.005338   26.98  0.001309  ( 0.015757 -0.014229  0.029299)
 51:   1290.41   0.001044    5.28  0.000253  (-0.009041  0.013013 -0.001216)
 52:   1318.61   0.011413   57.67  0.002701  ( 0.025980 -0.005486  0.044675)
 53:   1372.96   0.001090    5.51  0.000248  (-0.010285 -0.008216  0.008632)
 54:   1378.53   0.010890   55.03  0.002465  (-0.002331 -0.024057  0.043370)
 55:   1396.08   0.003624   18.31  0.000810  ( 0.026436 -0.009660  0.004227)
 56:   1408.28   0.001238    6.26  0.000274  (-0.004804 -0.002781  0.015603)
 57:   1450.95   0.004169   21.07  0.000897  (-0.026588  0.011717  0.007240)
 58:   1462.46   0.005335   26.96  0.001138  (-0.001636 -0.012080 -0.031461)
 59:   1473.44   0.009570   48.36  0.002027  (-0.015205  0.001247 -0.042356)
 60:   1490.64   0.003595   18.17  0.000753  (-0.010188  0.017958 -0.018063)
 61:   1503.01   0.011019   55.69  0.002288  ( 0.031500  0.000696  0.035988)
 62:   1513.50   0.009149   46.24  0.001886  ( 0.019359 -0.021245  0.032562)
 63:   1537.45   0.076380  385.99  0.015503  (-0.092185  0.014105 -0.082500)
 64:   1586.07   0.040353  203.93  0.007940  ( 0.069977 -0.028716  0.047097)
 65:   1770.98   0.065534  331.18  0.011548  ( 0.052465 -0.002882 -0.093738)
 66:   1791.61   0.029893  151.07  0.005207  ( 0.069973 -0.008106 -0.015646)
 67:   1857.09   0.072508  366.43  0.012184  (-0.105273  0.026186  0.020397)
 68:   3069.32   0.004309   21.78  0.000438  (-0.013136  0.013695 -0.008830)
 69:   3078.26   0.008622   43.57  0.000874  (-0.018452  0.010543 -0.020552)
 70:   3081.76   0.000613    3.10  0.000062  (-0.002212 -0.007390 -0.001603)
 71:   3085.86   0.000942    4.76  0.000095  ( 0.007481  0.005486 -0.003035)
 72:   3145.29   0.002480   12.53  0.000246  (-0.006895 -0.013977 -0.001782)
 73:   3154.61   0.000178    0.90  0.000018  ( 0.001428  0.001259 -0.003740)
 74:   3166.64   0.000647    3.27  0.000064  (-0.006174 -0.000889  0.004985)
 75:   3192.30   0.000024    0.12  0.000002  (-0.001518 -0.000095 -0.000021)
 76:   3193.47   0.000794    4.02  0.000078  ( 0.001490 -0.001164  0.008606)
 77:   3234.90   0.000428    2.17  0.000041  ( 0.006225 -0.001598 -0.000158)
 78:   3614.29   0.022198  112.18  0.001917  ( 0.005206  0.004704 -0.043213)
 79:   3647.72   0.008587   43.40  0.000735  ( 0.023224 -0.001864 -0.013850)
 80:   3803.96   0.020199  102.08  0.001657  (-0.013492  0.009505 -0.037211)

* The epsilon (eps) is given for a Dirac delta lineshape.
** The dipole moment derivative (T) already includes vibrational overlap.

The first frequency considered to be a vibration is 7
The total number of vibrations considered is 74


--------------------------
THERMOCHEMISTRY AT 298.15K
--------------------------

Temperature         ... 298.15 K
Pressure            ... 1.00 atm
Total Mass          ... 201.20 AMU

Throughout the following assumptions are being made:
  (1) The electronic state is orbitally nondegenerate
      but the spin degeneracy is treated
  (2) There are no thermally accessible electronically excited states
  (3) Hindered rotations indicated by low frequency modes are not
      treated as such but are treated as vibrations and this may
      cause some error
  (4) All equations used are the standard statistical mechanics
      equations for an ideal gas
  (5) All vibrations are strictly harmonic

freq.      46.43  E(vib)   ...       0.53 
freq.      71.59  E(vib)   ...       0.50 
freq.      83.80  E(vib)   ...       0.48 
freq.      94.31  E(vib)   ...       0.47 
freq.     112.68  E(vib)   ...       0.45 
freq.     123.34  E(vib)   ...       0.43 
freq.     129.13  E(vib)   ...       0.43 
freq.     135.15  E(vib)   ...       0.42 
freq.     139.67  E(vib)   ...       0.42 
freq.     162.87  E(vib)   ...       0.39 
freq.     240.50  E(vib)   ...       0.31 
freq.     264.47  E(vib)   ...       0.29 
freq.     297.31  E(vib)   ...       0.27 
freq.     307.02  E(vib)   ...       0.26 
freq.     385.44  E(vib)   ...       0.20 
freq.     423.18  E(vib)   ...       0.18 
freq.     447.77  E(vib)   ...       0.17 
freq.     475.45  E(vib)   ...       0.15 
freq.     502.87  E(vib)   ...       0.14 
freq.     530.30  E(vib)   ...       0.13 
freq.     544.31  E(vib)   ...       0.12 
freq.     578.03  E(vib)   ...       0.11 
freq.     593.68  E(vib)   ...       0.10 
freq.     626.94  E(vib)   ...       0.09 
freq.     653.31  E(vib)   ...       0.08 
freq.     726.25  E(vib)   ...       0.06 
freq.     746.86  E(vib)   ...       0.06 
freq.     807.46  E(vib)   ...       0.05 
freq.     882.43  E(vib)   ...       0.04 
freq.     898.42  E(vib)   ...       0.03 
freq.     925.40  E(vib)   ...       0.03 
freq.     971.61  E(vib)   ...       0.03 
freq.    1016.23  E(vib)   ...       0.02 
freq.    1026.96  E(vib)   ...       0.02 
freq.    1063.81  E(vib)   ...       0.02 
freq.    1078.31  E(vib)   ...       0.02 
freq.    1129.04  E(vib)   ...       0.01 
freq.    1160.14  E(vib)   ...       0.01 
freq.    1178.38  E(vib)   ...       0.01 
freq.    1181.03  E(vib)   ...       0.01 
freq.    1209.21  E(vib)   ...       0.01 
freq.    1237.00  E(vib)   ...       0.01 
freq.    1248.53  E(vib)   ...       0.01 
freq.    1272.41  E(vib)   ...       0.01 
freq.    1290.41  E(vib)   ...       0.01 
freq.    1318.61  E(vib)   ...       0.01 
freq.    1372.96  E(vib)   ...       0.01 
freq.    1378.53  E(vib)   ...       0.01 
freq.    1396.08  E(vib)   ...       0.00 
freq.    1408.28  E(vib)   ...       0.00 
freq.    1450.95  E(vib)   ...       0.00 
freq.    1462.46  E(vib)   ...       0.00 
freq.    1473.44  E(vib)   ...       0.00 
freq.    1490.64  E(vib)   ...       0.00 
freq.    1503.01  E(vib)   ...       0.00 
freq.    1513.50  E(vib)   ...       0.00 
freq.    1537.45  E(vib)   ...       0.00 
freq.    1586.07  E(vib)   ...       0.00 
freq.    1770.98  E(vib)   ...       0.00 
freq.    1791.61  E(vib)   ...       0.00 
freq.    1857.09  E(vib)   ...       0.00 
freq.    3069.32  E(vib)   ...       0.00 
freq.    3078.26  E(vib)   ...       0.00 
freq.    3081.76  E(vib)   ...       0.00 
freq.    3085.86  E(vib)   ...       0.00 
freq.    3145.29  E(vib)   ...       0.00 
freq.    3154.61  E(vib)   ...       0.00 
freq.    3166.64  E(vib)   ...       0.00 
freq.    3192.30  E(vib)   ...       0.00 
freq.    3193.47  E(vib)   ...       0.00 
freq.    3234.90  E(vib)   ...       0.00 
freq.    3614.29  E(vib)   ...       0.00 
freq.    3647.72  E(vib)   ...       0.00 
freq.    3803.96  E(vib)   ...       0.00 

------------
INNER ENERGY
------------

The inner energy is: U= E(el) + E(ZPE) + E(vib) + E(rot) + E(trans)
    E(el)   - is the total energy from the electronic structure calculation
              = E(kin-el) + E(nuc-el) + E(el-el) + E(nuc-nuc)
    E(ZPE)  - the the zero temperature vibrational energy from the frequency calculation
    E(vib)  - the the finite temperature correction to E(ZPE) due to population
              of excited vibrational states
    E(rot)  - is the rotational thermal energy
    E(trans)- is the translational thermal energy

Summary of contributions to the inner energy U:
Electronic energy                ...   -723.07541151 Eh
Zero point energy                ...      0.21824733 Eh     136.95 kcal/mol
Thermal vibrational correction   ...      0.01216481 Eh       7.63 kcal/mol
Thermal rotational correction    ...      0.00141627 Eh       0.89 kcal/mol
Thermal translational correction ...      0.00141627 Eh       0.89 kcal/mol
-----------------------------------------------------------------------
Total thermal energy                   -722.84216682 Eh


Summary of corrections to the electronic energy:
(perhaps to be used in another calculation)
Total thermal correction                  0.01499736 Eh       9.41 kcal/mol
Non-thermal (ZPE) correction              0.21824733 Eh     136.95 kcal/mol
-----------------------------------------------------------------------
Total correction                          0.23324469 Eh     146.36 kcal/mol


--------
ENTHALPY
--------

The enthalpy is H = U + kB*T
                kB is Boltzmann's constant
Total free energy                 ...   -722.84216682 Eh 
Thermal Enthalpy correction       ...      0.00094421 Eh       0.59 kcal/mol
-----------------------------------------------------------------------
Total Enthalpy                    ...   -722.84122261 Eh


Note: Only C1 symmetry has been detected, increase convergence thresholds 
      if your molecule has a higher symmetry. Symmetry factor of 1.0 is   
      used for the rotational entropy correction. 
 

Note: Rotational entropy computed according to Herzberg 
Infrared and Raman Spectra, Chapter V,1, Van Nostrand Reinhold, 1945 
Point Group:  C1, Symmetry Number:   1  
Rotational constants in cm-1:     0.036601     0.014935     0.012490 

Vibrational entropy computed according to the QRRHO of S. Grimme
Chem.Eur.J. 2012 18 9955


-------
ENTROPY
-------

The entropy contributions are T*S = T*(S(el)+S(vib)+S(rot)+S(trans))
     S(el)   - electronic entropy
     S(vib)  - vibrational entropy
     S(rot)  - rotational entropy
     S(trans)- translational entropy
The entropies will be listed as multiplied by the temperature to get
units of energy

Electronic entropy                ...      0.00065446 Eh      0.41 kcal/mol
Vibrational entropy               ...      0.02174320 Eh     13.64 kcal/mol
Rotational entropy                ...      0.01512613 Eh      9.49 kcal/mol
Translational entropy             ...      0.01986141 Eh     12.46 kcal/mol
-----------------------------------------------------------------------
Final entropy term                ...      0.05738519 Eh     36.01 kcal/mol

In case the symmetry of your molecule has not been determined correctly
or in case you have a reason to use a different symmetry number we print 
out the resulting rotational entropy values for sn=1,12 :
 --------------------------------------------------------
|  sn= 1 | S(rot)=       0.01512613 Eh      9.49 kcal/mol|
|  sn= 2 | S(rot)=       0.01447167 Eh      9.08 kcal/mol|
|  sn= 3 | S(rot)=       0.01408884 Eh      8.84 kcal/mol|
|  sn= 4 | S(rot)=       0.01381721 Eh      8.67 kcal/mol|
|  sn= 5 | S(rot)=       0.01360653 Eh      8.54 kcal/mol|
|  sn= 6 | S(rot)=       0.01343438 Eh      8.43 kcal/mol|
|  sn= 7 | S(rot)=       0.01328883 Eh      8.34 kcal/mol|
|  sn= 8 | S(rot)=       0.01316276 Eh      8.26 kcal/mol|
|  sn= 9 | S(rot)=       0.01305155 Eh      8.19 kcal/mol|
|  sn=10 | S(rot)=       0.01295207 Eh      8.13 kcal/mol|
|  sn=11 | S(rot)=       0.01286208 Eh      8.07 kcal/mol|
|  sn=12 | S(rot)=       0.01277992 Eh      8.02 kcal/mol|
 --------------------------------------------------------


-------------------
GIBBS FREE ENERGY
-------------------

The Gibbs free energy is G = H - T*S

Total enthalpy                    ...   -722.84122261 Eh 
Total entropy correction          ...     -0.05738519 Eh    -36.01 kcal/mol
-----------------------------------------------------------------------
Final Gibbs free energy         ...   -722.89860781 Eh

For completeness - the Gibbs free energy minus the electronic energy
G-E(el)                           ...      0.17680371 Eh    110.95 kcal/mol


Timings for individual modules:

Sum of individual times         ...     2953.851 sec (=  49.231 min)
GTO integral calculation        ...      123.584 sec (=   2.060 min)   4.2 %
SCF iterations                  ...     1647.010 sec (=  27.450 min)  55.8 %
SCF Gradient evaluation         ...      503.659 sec (=   8.394 min)  17.1 %
Geometry relaxation             ...        1.679 sec (=   0.028 min)   0.1 %
Analytical frequency calculation...      677.919 sec (=  11.299 min)  23.0 %
                             ****ORCA TERMINATED NORMALLY****
TOTAL RUN TIME: 0 days 0 hours 51 minutes 3 seconds 192 msec
