
                                 *****************
                                 * O   R   C   A *
                                 *****************

                                            #,                                       
                                            ###                                      
                                            ####                                     
                                            #####                                    
                                            ######                                   
                                           ########,                                 
                                     ,,################,,,,,                         
                               ,,#################################,,                 
                          ,,##########################################,,             
                       ,#########################################, ''#####,          
                    ,#############################################,,   '####,        
                  ,##################################################,,,,####,       
                ,###########''''           ''''###############################       
              ,#####''   ,,,,##########,,,,          '''####'''          '####       
            ,##' ,,,,###########################,,,                        '##       
           ' ,,###''''                  '''############,,,                           
         ,,##''                                '''############,,,,        ,,,,,,###''
      ,#''                                            '''#######################'''  
     '                                                          ''''####''''         
             ,#######,   #######,   ,#######,      ##                                
            ,#'     '#,  ##    ##  ,#'     '#,    #''#        ######   ,####,        
            ##       ##  ##   ,#'  ##            #'  '#       #        #'  '#        
            ##       ##  #######   ##           ,######,      #####,   #    #        
            '#,     ,#'  ##    ##  '#,     ,#' ,#      #,         ##   #,  ,#        
             '#######'   ##     ##  '#######'  #'      '#     #####' # '####'        



                  #######################################################
                  #                        -***-                        #
                  #          Department of theory and spectroscopy      #
                  #    Directorship and core code : Frank Neese         #
                  #        Max Planck Institute fuer Kohlenforschung    #
                  #                Kaiser Wilhelm Platz 1               #
                  #                 D-45470 Muelheim/Ruhr               #
                  #                      Germany                        #
                  #                                                     #
                  #                  All rights reserved                #
                  #                        -***-                        #
                  #######################################################


                         Program Version 5.0.4 -  RELEASE  -


 With contributions from (in alphabetic order):
   Daniel Aravena         : Magnetic Suceptibility
   Michael Atanasov       : Ab Initio Ligand Field Theory (pilot matlab implementation)
   Alexander A. Auer      : GIAO ZORA, VPT2 properties, NMR spectrum
   Ute Becker             : Parallelization
   Giovanni Bistoni       : ED, misc. LED, open-shell LED, HFLD
   Martin Brehm           : Molecular dynamics
   Dmytro Bykov           : SCF Hessian
   Vijay G. Chilkuri      : MRCI spin determinant printing, contributions to CSF-ICE
   Dipayan Datta          : RHF DLPNO-CCSD density
   Achintya Kumar Dutta   : EOM-CC, STEOM-CC
   Dmitry Ganyushin       : Spin-Orbit,Spin-Spin,Magnetic field MRCI
   Miquel Garcia          : C-PCM and meta-GGA Hessian, CC/C-PCM, Gaussian charge scheme
   Yang Guo               : DLPNO-NEVPT2, F12-NEVPT2, CIM, IAO-localization
   Andreas Hansen         : Spin unrestricted coupled pair/coupled cluster methods
   Benjamin Helmich-Paris : MC-RPA, TRAH-SCF, COSX integrals
   Lee Huntington         : MR-EOM, pCC
   Robert Izsak           : Overlap fitted RIJCOSX, COSX-SCS-MP3, EOM
   Marcus Kettner         : VPT2
   Christian Kollmar      : KDIIS, OOCD, Brueckner-CCSD(T), CCSD density, CASPT2, CASPT2-K
   Simone Kossmann        : Meta GGA functionals, TD-DFT gradient, OOMP2, MP2 Hessian
   Martin Krupicka        : Initial AUTO-CI
   Lucas Lang             : DCDCAS
   Marvin Lechner         : AUTO-CI (C++ implementation), FIC-MRCC
   Dagmar Lenk            : GEPOL surface, SMD
   Dimitrios Liakos       : Extrapolation schemes; Compound Job, initial MDCI parallelization
   Dimitrios Manganas     : Further ROCIS development; embedding schemes
   Dimitrios Pantazis     : SARC Basis sets
   Anastasios Papadopoulos: AUTO-CI, single reference methods and gradients
   Taras Petrenko         : DFT Hessian,TD-DFT gradient, ASA, ECA, R-Raman, ABS, FL, XAS/XES, NRVS
   Peter Pinski           : DLPNO-MP2, DLPNO-MP2 Gradient
   Christoph Reimann      : Effective Core Potentials
   Marius Retegan         : Local ZFS, SOC
   Christoph Riplinger    : Optimizer, TS searches, QM/MM, DLPNO-CCSD(T), (RO)-DLPNO pert. Triples
   Tobias Risthaus        : Range-separated hybrids, TD-DFT gradient, RPA, STAB
   Michael Roemelt        : Original ROCIS implementation
   Masaaki Saitow         : Open-shell DLPNO-CCSD energy and density
   Barbara Sandhoefer     : DKH picture change effects
   Avijit Sen             : IP-ROCIS
   Kantharuban Sivalingam : CASSCF convergence, NEVPT2, FIC-MRCI
   Bernardo de Souza      : ESD, SOC TD-DFT
   Georgi Stoychev        : AutoAux, RI-MP2 NMR, DLPNO-MP2 response
   Willem Van den Heuvel  : Paramagnetic NMR
   Boris Wezisla          : Elementary symmetry handling
   Frank Wennmohs         : Technical directorship


 We gratefully acknowledge several colleagues who have allowed us to
 interface, adapt or use parts of their codes:
   Stefan Grimme, W. Hujo, H. Kruse, P. Pracht,  : VdW corrections, initial TS optimization,
                  C. Bannwarth, S. Ehlert          DFT functionals, gCP, sTDA/sTD-DF
   Ed Valeev, F. Pavosevic, A. Kumar             : LibInt (2-el integral package), F12 methods
   Garnet Chan, S. Sharma, J. Yang, R. Olivares  : DMRG
   Ulf Ekstrom                                   : XCFun DFT Library
   Mihaly Kallay                                 : mrcc  (arbitrary order and MRCC methods)
   Jiri Pittner, Ondrej Demel                    : Mk-CCSD
   Frank Weinhold                                : gennbo (NPA and NBO analysis)
   Christopher J. Cramer and Donald G. Truhlar   : smd solvation model
   Lars Goerigk                                  : TD-DFT with DH, B97 family of functionals
   V. Asgeirsson, H. Jonsson                     : NEB implementation
   FAccTs GmbH                                   : IRC, NEB, NEB-TS, DLPNO-Multilevel, CI-OPT
                                                   MM, QMMM, 2- and 3-layer-ONIOM, Crystal-QMMM,
                                                   LR-CPCM, SF, NACMEs, symmetry and pop. for TD-DFT,
                                                   nearIR, NL-DFT gradient (VV10), updates on ESD,
                                                   ML-optimized integration grids
   S Lehtola, MJT Oliveira, MAL Marques          : LibXC Library
   Liviu Ungur et al                             : ANISO software


 Your calculation uses the libint2 library for the computation of 2-el integrals
 For citations please refer to: http://libint.valeyev.net

 Your ORCA version has been built with support for libXC version: 5.1.0
 For citations please refer to: https://tddft.org/programs/libxc/

 This ORCA versions uses:
   CBLAS   interface :  Fast vector & matrix operations
   LAPACKE interface :  Fast linear algebra routines
   SCALAPACK package :  Parallel linear algebra routines
   Shared memory     :  Shared parallel matrices
   BLAS/LAPACK       :  OpenBLAS 0.3.15  USE64BITINT DYNAMIC_ARCH NO_AFFINITY Zen SINGLE_THREADED
        Core in use  :  Zen
   Copyright (c) 2011-2014, The OpenBLAS Project




***************************************
The coordinates will be read from file: model.xyz
***************************************


================================================================================

----- Orbital basis set information -----
Your calculation utilizes the basis: EPR-II
   V. Barone, in Recent Advances in Density Functional Methods, Part 1 (ed. D. P. Chong), World Scientific, Singapore, 1995, p. 287.

----- AuxJ basis set information -----
Your calculation utilizes the auxiliary basis: def2/J
   F. Weigend, Phys. Chem. Chem. Phys. 8, 1057 (2006).

================================================================================
                                        WARNINGS
                       Please study these warnings very carefully!
================================================================================


WARNING: your system is open-shell and RHF/RKS was chosen
  ===> : WILL SWITCH to UHF/UKS


WARNING: Geometry Optimization
  ===> : Switching off AutoStart
         For restart on a previous wavefunction, please use MOREAD

INFO   : the flag for use of the SHARK integral package has been found!

================================================================================
                                       INPUT FILE
================================================================================
NAME = opt.inp
|  1> ! B3LYP EPR-II OPT
|  2> %pal nprocs 16 end
|  3> *XYZFile 0 2 model.xyz
|  4> 
|  5>                          ****END OF INPUT****
================================================================================

                       *****************************
                       * Geometry Optimization Run *
                       *****************************

Geometry optimization settings:
Update method            Update   .... BFGS
Choice of coordinates    CoordSys .... Z-matrix Internals
Initial Hessian          InHess   .... Almoef's Model

Convergence Tolerances:
Energy Change            TolE     ....  5.0000e-06 Eh
Max. Gradient            TolMAXG  ....  3.0000e-04 Eh/bohr
RMS Gradient             TolRMSG  ....  1.0000e-04 Eh/bohr
Max. Displacement        TolMAXD  ....  4.0000e-03 bohr
RMS Displacement         TolRMSD  ....  2.0000e-03 bohr
Strict Convergence                ....  False
------------------------------------------------------------------------------
                        ORCA OPTIMIZATION COORDINATE SETUP
------------------------------------------------------------------------------

The optimization will be done in new redundant internal coordinates
Making redundant internal coordinates   ...  (new redundants) done
Evaluating the initial hessian          ...  (Almloef) done
Evaluating the coordinates              ...  done
Calculating the B-matrix                .... done
Calculating the G-matrix                .... done
Diagonalizing the G-matrix              .... done
Small eigenvalue found = 8.853e-03
Small eigenvalue found = 1.026e-02
Small eigenvalue found = 1.531e-02
Small eigenvalue found = 2.903e-02
The first mode is                       ....   46
The number of degrees of freedom        ....   75

    -----------------------------------------------------------------
                    Redundant Internal Coordinates


    -----------------------------------------------------------------
         Definition                    Initial Value    Approx d2E/dq
    -----------------------------------------------------------------
      1. B(C   1,N   0)                  1.4481         0.452012   
      2. B(C   2,C   1)                  1.5533         0.342880   
      3. B(O   3,C   2)                  1.2156         1.061958   
      4. B(C   4,C   1)                  1.5088         0.403760   
      5. B(C   5,C   4)                  1.5014         0.414994   
      6. B(H   6,C   5)                  1.0961         0.352179   
      7. B(H   7,C   5)                  1.1075         0.337631   
      8. B(C   8,C   5)                  1.5185         0.389666   
      9. B(O   9,C   8)                  1.3412         0.669515   
     10. B(O  10,C   8)                  1.1985         1.131013   
     11. B(H  11,N   0)                  1.0118         0.429818   
     12. B(H  12,C   1)                  1.0988         0.348660   
     13. B(C  13,N   0)                  1.3608         0.623062   
     14. B(N  14,C   2)                  1.3488         0.651071   
     15. B(H  15,O   9)                  0.9657         0.509126   
     16. B(H  16,N  14)                  1.0080         0.435921   
     17. B(O  17,C  13)                  1.2149         1.064738   
     18. B(C  18,C  13)                  1.5221         0.384505   
     19. B(H  19,C  18)                  1.0947         0.353949   
     20. B(H  20,C  18)                  1.0967         0.351340   
     21. B(H  21,C  18)                  1.0949         0.353682   
     22. B(C  22,N  14)                  1.4512         0.446923   
     23. B(H  23,C  22)                  1.0966         0.351457   
     24. B(H  24,C  22)                  1.0935         0.355463   
     25. B(H  25,C  22)                  1.0967         0.351405   
     26. B(H  26,C   4)                  1.0854         0.366192   
     27. A(C   1,N   0,C  13)          120.5548         0.405335   
     28. A(C   1,N   0,H  11)          115.9739         0.339674   
     29. A(H  11,N   0,C  13)          121.6557         0.358560   
     30. A(C   2,C   1,H  12)          108.2015         0.318116   
     31. A(N   0,C   1,C   4)          113.1606         0.378129   
     32. A(C   2,C   1,C   4)          111.5379         0.362853   
     33. A(N   0,C   1,C   2)          106.7403         0.367629   
     34. A(N   0,C   1,H  12)          108.7886         0.330896   
     35. A(C   4,C   1,H  12)          108.2783         0.326750   
     36. A(O   3,C   2,N  14)          122.8686         0.476642   
     37. A(C   1,C   2,N  14)          114.9587         0.391618   
     38. A(C   1,C   2,O   3)          122.1726         0.427055   
     39. A(C   1,C   4,H  26)          120.0144         0.329405   
     40. A(C   1,C   4,C   5)          119.7196         0.374944   
     41. A(C   5,C   4,H  26)          120.2645         0.330903   
     42. A(C   4,C   5,H   7)          110.5664         0.326498   
     43. A(C   4,C   5,H   6)          111.4745         0.328776   
     44. A(H   7,C   5,C   8)          106.0068         0.323136   
     45. A(H   6,C   5,C   8)          107.4663         0.325383   
     46. A(C   4,C   5,C   8)          114.1902         0.372654   
     47. A(H   6,C   5,H   7)          106.7183         0.286919   
     48. A(O   9,C   8,O  10)          122.6463         0.484703   
     49. A(C   5,C   8,O  10)          125.1692         0.441982   
     50. A(C   5,C   8,O   9)          112.1643         0.402483   
     51. A(C   8,O   9,H  15)          107.7151         0.373688   
     52. A(O  17,C  13,C  18)          122.2309         0.436142   
     53. A(N   0,C  13,C  18)          115.7907         0.396493   
     54. A(N   0,C  13,O  17)          121.9781         0.473030   
     55. A(C   2,N  14,H  16)          118.7296         0.362127   
     56. A(H  16,N  14,C  22)          119.7881         0.339831   
     57. A(C   2,N  14,C  22)          121.4518         0.407681   
     58. A(C  13,C  18,H  21)          113.0998         0.324898   
     59. A(H  19,C  18,H  20)          107.8842         0.288936   
     60. A(C  13,C  18,H  20)          108.3442         0.324543   
     61. A(C  13,C  18,H  19)          108.3798         0.324938   
     62. A(H  20,C  18,H  21)          109.2332         0.288902   
     63. A(H  19,C  18,H  21)          109.7592         0.289237   
     64. A(H  24,C  22,H  25)          109.3445         0.289138   
     65. A(H  23,C  22,H  25)          108.1623         0.288625   
     66. A(N  14,C  22,H  25)          110.6379         0.330706   
     67. A(H  23,C  22,H  24)          109.2985         0.289145   
     68. A(N  14,C  22,H  24)          108.7995         0.331335   
     69. A(N  14,C  22,H  23)          110.5766         0.330714   
     70. D(H  12,C   1,N   0,H  11)    121.0657         0.017432   
     71. D(C   2,C   1,N   0,H  11)      4.5226         0.017432   
     72. D(C   4,C   1,N   0,C  13)     76.5470         0.017432   
     73. D(C   4,C   1,N   0,H  11)   -118.5458         0.017432   
     74. D(H  12,C   1,N   0,C  13)    -43.8415         0.017432   
     75. D(C   2,C   1,N   0,C  13)   -160.3846         0.017432   
     76. D(O   3,C   2,C   1,C   4)    122.9194         0.008918   
     77. D(N  14,C   2,C   1,H  12)     62.0283         0.008918   
     78. D(N  14,C   2,C   1,C   4)    -56.9652         0.008918   
     79. D(O   3,C   2,C   1,N   0)     -1.1542         0.008918   
     80. D(O   3,C   2,C   1,H  12)   -118.0871         0.008918   
     81. D(N  14,C   2,C   1,N   0)    178.9612         0.008918   
     82. D(C   5,C   4,C   1,C   2)    -62.1463         0.012089   
     83. D(C   5,C   4,C   1,H  12)    178.9059         0.012089   
     84. D(C   5,C   4,C   1,N   0)     58.2273         0.012089   
     85. D(H  26,C   4,C   1,H  12)     -0.6479         0.012089   
     86. D(H  26,C   4,C   1,C   2)    118.2999         0.012089   
     87. D(H  26,C   4,C   1,N   0)   -121.3265         0.012089   
     88. D(C   8,C   5,C   4,H  26)     23.2956         0.012744   
     89. D(H   7,C   5,C   4,H  26)    -96.1385         0.012744   
     90. D(H   7,C   5,C   4,C   1)     84.3088         0.012744   
     91. D(H   6,C   5,C   4,H  26)    145.3214         0.012744   
     92. D(C   8,C   5,C   4,C   1)   -156.2571         0.012744   
     93. D(H   6,C   5,C   4,C   1)    -34.2313         0.012744   
     94. D(O  10,C   8,C   5,H   7)   -103.2851         0.011298   
     95. D(O  10,C   8,C   5,H   6)     10.5434         0.011298   
     96. D(O  10,C   8,C   5,C   4)    134.7426         0.011298   
     97. D(O   9,C   8,C   5,H   7)     75.1120         0.011298   
     98. D(O   9,C   8,C   5,H   6)   -171.0594         0.011298   
     99. D(O   9,C   8,C   5,C   4)    -46.8603         0.011298   
    100. D(H  15,O   9,C   8,C   5)   -179.4366         0.033294   
    101. D(H  15,O   9,C   8,O  10)     -0.9927         0.033294   
    102. D(C  18,C  13,N   0,H  11)     10.2280         0.031459   
    103. D(C  18,C  13,N   0,C   1)    174.2662         0.031459   
    104. D(O  17,C  13,N   0,H  11)   -169.5683         0.031459   
    105. D(O  17,C  13,N   0,C   1)     -5.5302         0.031459   
    106. D(C  22,N  14,C   2,O   3)      0.5850         0.034604   
    107. D(C  22,N  14,C   2,C   1)   -179.5314         0.034604   
    108. D(H  16,N  14,C   2,O   3)   -177.4020         0.034604   
    109. D(H  16,N  14,C   2,C   1)      2.4817         0.034604   
    110. D(H  21,C  18,C  13,O  17)   -169.4775         0.011017   
    111. D(H  21,C  18,C  13,N   0)     10.7268         0.011017   
    112. D(H  20,C  18,C  13,O  17)     69.2756         0.011017   
    113. D(H  20,C  18,C  13,N   0)   -110.5202         0.011017   
    114. D(H  19,C  18,C  13,O  17)    -47.5386         0.011017   
    115. D(H  19,C  18,C  13,N   0)    132.6657         0.011017   
    116. D(H  25,C  22,N  14,H  16)    118.6636         0.017037   
    117. D(H  25,C  22,N  14,C   2)    -59.3024         0.017037   
    118. D(H  24,C  22,N  14,H  16)     -1.4769         0.017037   
    119. D(H  24,C  22,N  14,C   2)   -179.4429         0.017037   
    120. D(H  23,C  22,N  14,H  16)   -121.5233         0.017037   
    121. D(H  23,C  22,N  14,C   2)     60.5107         0.017037   
    -----------------------------------------------------------------

Number of atoms                         .... 27
Number of degrees of freedom            .... 121

         *************************************************************
         *                GEOMETRY OPTIMIZATION CYCLE   1            *
         *************************************************************
---------------------------------
CARTESIAN COORDINATES (ANGSTROEM)
---------------------------------
  N     -4.403944   -4.628392   -0.670332
  C     -2.958433   -4.701675   -0.623696
  C     -2.565473   -4.839361    0.872796
  O     -3.394788   -4.849160    1.761527
  C     -2.283035   -3.515603   -1.266887
  C     -2.568308   -2.131445   -0.760072
  H     -3.605614   -2.034693   -0.419527
  H     -1.924188   -1.895007    0.109322
  C     -2.318276   -1.032388   -1.777649
  O     -1.138663   -1.177133   -2.399205
  O     -3.056915   -0.114728   -1.998138
  H     -4.875553   -4.604679    0.224549
  H     -2.633014   -5.610244   -1.148996
  C     -5.073502   -4.899713   -1.823474
  N     -1.241152   -4.943897    1.106188
  H     -1.042263   -0.444482   -3.020947
  H     -0.605777   -4.888882    0.325606
  O     -4.493358   -5.113289   -2.869318
  C     -6.591805   -4.923093   -1.717888
  H     -7.004284   -4.332986   -2.542498
  H     -6.930555   -5.958705   -1.842447
  H     -6.962064   -4.534827   -0.763449
  C     -0.718635   -5.089036    2.452254
  H     -1.107417   -6.001355    2.920319
  H      0.372333   -5.144993    2.402650
  H     -1.010630   -4.234491    3.074460
  H     -1.599766   -3.664179   -2.097088

----------------------------
CARTESIAN COORDINATES (A.U.)
----------------------------
  NO LB      ZA    FRAG     MASS         X           Y           Z
   0 N     7.0000    0    14.007   -8.322248   -8.746393   -1.266744
   1 C     6.0000    0    12.011   -5.590628   -8.884879   -1.178614
   2 C     6.0000    0    12.011   -4.848041   -9.145067    1.649345
   3 O     8.0000    0    15.999   -6.415220   -9.163584    3.328803
   4 C     6.0000    0    12.011   -4.314312   -6.643527   -2.394070
   5 C     6.0000    0    12.011   -4.853399   -4.027848   -1.436329
   6 H     1.0000    0     1.008   -6.813623   -3.845012   -0.792791
   7 H     1.0000    0     1.008   -3.636189   -3.581044    0.206588
   8 C     6.0000    0    12.011   -4.380907   -1.950931   -3.359270
   9 O     8.0000    0    15.999   -2.151761   -2.224459   -4.533841
  10 O     8.0000    0    15.999   -5.776733   -0.216805   -3.775934
  11 H     1.0000    0     1.008   -9.213459   -8.701582    0.424335
  12 H     1.0000    0     1.008   -4.975675  -10.601825   -2.171288
  13 C     6.0000    0    12.011   -9.587529   -9.259115   -3.445866
  14 N     7.0000    0    14.007   -2.345437   -9.342611    2.090392
  15 H     1.0000    0     1.008   -1.969593   -0.839949   -5.708763
  16 H     1.0000    0     1.008   -1.144753   -9.238648    0.615306
  17 O     8.0000    0    15.999   -8.491216   -9.662716   -5.422225
  18 C     6.0000    0    12.011  -12.456707   -9.303297   -3.246337
  19 H     1.0000    0     1.008  -13.236179   -8.188158   -4.804625
  20 H     1.0000    0     1.008  -13.096851  -11.260321   -3.481719
  21 H     1.0000    0     1.008  -13.156394   -8.569581   -1.442710
  22 C     6.0000    0    12.011   -1.358023   -9.616885    4.634089
  23 H     1.0000    0     1.008   -2.092714  -11.340918    5.518603
  24 H     1.0000    0     1.008    0.703608   -9.722627    4.540351
  25 H     1.0000    0     1.008   -1.909815   -8.002028    5.809887
  26 H     1.0000    0     1.008   -3.023120   -6.924295   -3.962923

--------------------------------
INTERNAL COORDINATES (ANGSTROEM)
--------------------------------
 N      0   0   0     0.000000000000     0.00000000     0.00000000
 C      1   0   0     1.448118922981     0.00000000     0.00000000
 C      2   1   0     1.553338969375   106.74026348     0.00000000
 O      3   2   1     1.215607752731   122.17260518   358.84579611
 C      2   1   3     1.508848467173   113.16059828   236.93164465
 C      5   2   1     1.501377960451   119.71955891    58.22732551
 H      6   5   2     1.096054398110   111.47447620   325.76868632
 H      6   5   2     1.107537843207   110.56635935    84.30878230
 C      6   5   2     1.518520362466   114.19023456   203.74287513
 O      9   6   5     1.341182750705   112.16428143   313.13970445
 O      9   6   5     1.198458677440   125.16924109   134.74258519
 H      1   2   3     1.011824154699   115.97389028     4.52257672
 H      2   1   3     1.098787944427   108.78862451   116.54311704
 C      1   2   3     1.360756777662   120.55484261   199.61536359
 N      3   2   1     1.348786851407   114.95866122   178.96123122
 H     10   9   6     0.965729566449   107.71506589   180.56338230
 H     15   3   2     1.007985989650   118.72958874     2.48165971
 O     14   1   2     1.214895992307   121.97808541   354.46984255
 C     14   1   2     1.522149912998   115.79066662   174.26616907
 H     19  14   1     1.094690047233   108.37983429   132.66566171
 H     19  14   1     1.096703886828   108.34422861   249.47979353
 H     19  14   1     1.094894979237   113.09983396    10.72677261
 C     15   3   2     1.451200997856   121.45179073   180.46862326
 H     23  15   3     1.096613511573   110.57656789    60.51070891
 H     23  15   3     1.093528026201   108.79953478   180.55707553
 H     23  15   3     1.096653260473   110.63791366   300.69757400
 H      5   2   1     1.085433353871   120.01444122   238.67348165

---------------------------
INTERNAL COORDINATES (A.U.)
---------------------------
 N      0   0   0     0.000000000000     0.00000000     0.00000000
 C      1   0   0     2.736548173784     0.00000000     0.00000000
 C      2   1   0     2.935385245266   106.74026348     0.00000000
 O      3   2   1     2.297165738933   122.17260518   358.84579611
 C      2   1   3     2.851310380544   113.16059828   236.93164465
 C      5   2   1     2.837193168757   119.71955891    58.22732551
 H      6   5   2     2.071242640309   111.47447620   325.76868632
 H      6   5   2     2.092943206614   110.56635935    84.30878230
 C      6   5   2     2.869587613843   114.19023456   203.74287513
 O      9   6   5     2.534468094372   112.16428143   313.13970445
 O      9   6   5     2.264758683184   125.16924109   134.74258519
 H      1   2   3     1.912070548068   115.97389028     4.52257672
 H      2   1   3     2.076408294221   108.78862451   116.54311704
 C      1   2   3     2.571457644659   120.55484261   199.61536359
 N      3   2   1     2.548837762193   114.95866122   178.96123122
 H     10   9   6     1.824964400019   107.71506589   180.56338230
 H     15   3   2     1.904817467268   118.72958874     2.48165971
 O     14   1   2     2.295820706659   121.97808541   354.46984255
 C     14   1   2     2.876446470338   115.79066662   174.26616907
 H     19  14   1     2.068664390799   108.37983429   132.66566171
 H     19  14   1     2.072469996112   108.34422861   249.47979353
 H     19  14   1     2.069051656164   113.09983396    10.72677261
 C     15   3   2     2.742372451221   121.45179073   180.46862326
 H     23  15   3     2.072299211631   110.57656789    60.51070891
 H     23  15   3     2.066468489288   108.79953478   180.55707553
 H     23  15   3     2.072374326166   110.63791366   300.69757400
 H      5   2   1     2.051171775440   120.01444122   238.67348165

---------------------
BASIS SET INFORMATION
---------------------
There are 4 groups of distinct atoms

 Group   1 Type N   : 10s5p1d contracted to 6s2p1d pattern {511111/41/1}
 Group   2 Type C   : 10s5p1d contracted to 6s2p1d pattern {511111/41/1}
 Group   3 Type O   : 10s5p1d contracted to 6s2p1d pattern {511111/41/1}
 Group   4 Type H   : 6s1p contracted to 4s1p pattern {3111/1}

Atom   0N    basis set group =>   1
Atom   1C    basis set group =>   2
Atom   2C    basis set group =>   2
Atom   3O    basis set group =>   3
Atom   4C    basis set group =>   2
Atom   5C    basis set group =>   2
Atom   6H    basis set group =>   4
Atom   7H    basis set group =>   4
Atom   8C    basis set group =>   2
Atom   9O    basis set group =>   3
Atom  10O    basis set group =>   3
Atom  11H    basis set group =>   4
Atom  12H    basis set group =>   4
Atom  13C    basis set group =>   2
Atom  14N    basis set group =>   1
Atom  15H    basis set group =>   4
Atom  16H    basis set group =>   4
Atom  17O    basis set group =>   3
Atom  18C    basis set group =>   2
Atom  19H    basis set group =>   4
Atom  20H    basis set group =>   4
Atom  21H    basis set group =>   4
Atom  22C    basis set group =>   2
Atom  23H    basis set group =>   4
Atom  24H    basis set group =>   4
Atom  25H    basis set group =>   4
Atom  26H    basis set group =>   4
---------------------------------
AUXILIARY/J BASIS SET INFORMATION
---------------------------------
There are 4 groups of distinct atoms

 Group   1 Type N   : 12s5p4d2f1g contracted to 6s4p3d1f1g pattern {711111/2111/211/2/1}
 Group   2 Type C   : 12s5p4d2f1g contracted to 6s4p3d1f1g pattern {711111/2111/211/2/1}
 Group   3 Type O   : 12s5p4d2f1g contracted to 6s4p3d1f1g pattern {711111/2111/211/2/1}
 Group   4 Type H   : 5s2p1d contracted to 3s1p1d pattern {311/2/1}

Atom   0N    basis set group =>   1
Atom   1C    basis set group =>   2
Atom   2C    basis set group =>   2
Atom   3O    basis set group =>   3
Atom   4C    basis set group =>   2
Atom   5C    basis set group =>   2
Atom   6H    basis set group =>   4
Atom   7H    basis set group =>   4
Atom   8C    basis set group =>   2
Atom   9O    basis set group =>   3
Atom  10O    basis set group =>   3
Atom  11H    basis set group =>   4
Atom  12H    basis set group =>   4
Atom  13C    basis set group =>   2
Atom  14N    basis set group =>   1
Atom  15H    basis set group =>   4
Atom  16H    basis set group =>   4
Atom  17O    basis set group =>   3
Atom  18C    basis set group =>   2
Atom  19H    basis set group =>   4
Atom  20H    basis set group =>   4
Atom  21H    basis set group =>   4
Atom  22C    basis set group =>   2
Atom  23H    basis set group =>   4
Atom  24H    basis set group =>   4
Atom  25H    basis set group =>   4
Atom  26H    basis set group =>   4


           ************************************************************
           *        Program running with 16 parallel MPI-processes    *
           *              working on a common directory               *
           ************************************************************
------------------------------------------------------------------------------
                           ORCA GTO INTEGRAL CALCULATION
                           -- RI-GTO INTEGRALS CHOSEN --
------------------------------------------------------------------------------
------------------------------------------------------------------------------
                   ___                                                        
                  /   \      - P O W E R E D   B Y -                         
                 /     \                                                     
                 |  |  |   _    _      __       _____    __    __             
                 |  |  |  | |  | |    /  \     |  _  \  |  |  /  |          
                  \  \/   | |  | |   /    \    | | | |  |  | /  /          
                 / \  \   | |__| |  /  /\  \   | |_| |  |  |/  /          
                |  |  |   |  __  | /  /__\  \  |    /   |      \           
                |  |  |   | |  | | |   __   |  |    \   |  |\   \          
                \     /   | |  | | |  |  |  |  | |\  \  |  | \   \       
                 \___/    |_|  |_| |__|  |__|  |_| \__\ |__|  \__/        
                                                                              
                      - O R C A' S   B I G   F R I E N D -                    
                                      &                                       
                       - I N T E G R A L  F E E D E R -                       
                                                                              
 v1 FN, 2020, v2 2021                                                         
------------------------------------------------------------------------------


Reading SHARK input file opt.SHARKINP.tmp ... ok
----------------------
SHARK INTEGRAL PACKAGE
----------------------

Number of atoms                             ...     27
Number of basis functions                   ...    329
Number of shells                            ...    191
Maximum angular momentum                    ...      2
Integral batch strategy                     ... SHARK/LIBINT Hybrid
RI-J (if used) integral strategy            ... SPLIT-RIJ (Revised 2003 algorithm where possible)
Printlevel                                  ...      1
Contraction scheme used                     ... SEGMENTED contraction
Coulomb Range Separation                    ... NOT USED
Exchange Range Separation                   ... NOT USED
Finite Nucleus Model                        ... NOT USED
Auxiliary Coulomb fitting basis             ... AVAILABLE
   # of basis functions in Aux-J            ...    829
   # of shells in Aux-J                     ...    275
   Maximum angular momentum in Aux-J        ...      4
Auxiliary J/K fitting basis                 ... NOT available
Auxiliary Correlation fitting basis         ... NOT available
Auxiliary 'external' fitting basis          ... NOT available
Integral threshold                          ...     2.500000e-11
Primitive cut-off                           ...     2.500000e-12
Primitive pair pre-selection threshold      ...     2.500000e-12

Calculating pre-screening integrals         ... done (  0.0 sec) Dimension = 191
Organizing shell pair data                  ... done (  0.0 sec)
Shell pair information
Total number of shell pairs                 ...     18336
Shell pairs after pre-screening             ...     12718
Total number of primitive shell pairs       ...     50033
Primitive shell pairs kept                  ...     25157
          la=0 lb=0:   5770 shell pairs
          la=1 lb=0:   4336 shell pairs
          la=1 lb=1:    756 shell pairs
          la=2 lb=0:   1297 shell pairs
          la=2 lb=1:    478 shell pairs
          la=2 lb=2:     81 shell pairs

Calculating one electron integrals          ... done (  0.0 sec)
Calculating RI/J V-Matrix + Cholesky decomp.... done (  0.0 sec)
Calculating Nuclear repulsion               ... done (  0.0 sec) ENN=    914.649218132495 Eh

SHARK setup successfully completed in   0.2 seconds

Maximum memory used throughout the entire GTOINT-calculation: 19.5 MB


           ************************************************************
           *        Program running with 16 parallel MPI-processes    *
           *              working on a common directory               *
           ************************************************************
-------------------------------------------------------------------------------
                                 ORCA SCF
-------------------------------------------------------------------------------

------------
SCF SETTINGS
------------
Hamiltonian:
 Density Functional     Method          .... DFT(GTOs)
 Exchange Functional    Exchange        .... B88
   X-Alpha parameter    XAlpha          ....  0.666667
   Becke's b parameter  XBeta           ....  0.004200
 Correlation Functional Correlation     .... LYP
 LDA part of GGA corr.  LDAOpt          .... VWN-5
 Gradients option       PostSCFGGA      .... off
 Hybrid DFT is turned on
   Fraction HF Exchange ScalHFX         ....  0.200000
   Scaling of DF-GGA-X  ScalDFX         ....  0.720000
   Scaling of DF-GGA-C  ScalDFC         ....  0.810000
   Scaling of DF-LDA-C  ScalLDAC        ....  1.000000
   Perturbative correction              ....  0.000000
   Density functional embedding theory  .... OFF
   NL short-range parameter             ....  4.800000
 RI-approximation to the Coulomb term is turned on
   Number of AuxJ basis functions       .... 829
   RIJ-COSX (HFX calculated with COS-X)).... on


General Settings:
 Integral files         IntName         .... opt
 Hartree-Fock type      HFTyp           .... UHF
 Total Charge           Charge          ....    0
 Multiplicity           Mult            ....    2
 Number of Electrons    NEL             ....  107
 Basis Dimension        Dim             ....  329
 Nuclear Repulsion      ENuc            ....    914.6492181325 Eh

Convergence Acceleration:
 DIIS                   CNVDIIS         .... on
   Start iteration      DIISMaxIt       ....    12
   Startup error        DIISStart       ....  0.200000
   # of expansion vecs  DIISMaxEq       ....     5
   Bias factor          DIISBfac        ....   1.050
   Max. coefficient     DIISMaxC        ....  10.000
 Trust-Rad. Augm. Hess. CNVTRAH         .... auto
   Auto Start mean grad. ratio tolernc. ....  1.125000
   Auto Start start iteration           ....    20
   Auto Start num. interpolation iter.  ....    10
   Max. Number of Micro iterations      ....    16
   Max. Number of Macro iterations      .... Maxiter - #DIIS iter
   Number of Davidson start vectors     ....     2
   Converg. threshold I  (grad. norm)   ....   1.000e-05
   Converg. threshold II (energy diff.) ....   1.000e-08
   Grad. Scal. Fac. for Micro threshold ....   0.100
   Minimum threshold for Micro iter.    ....   0.010
   NR start threshold (gradient norm)   ....   0.001
   Initial trust radius                 ....   0.400
   Minimum AH scaling param. (alpha)    ....   1.000
   Maximum AH scaling param. (alpha)    .... 1000.000
   Orbital update algorithm             .... Taylor
   White noise on init. David. guess    .... on
   Maximum white noise                  ....   0.010
   Quad. conv. algorithm                .... NR
 SOSCF                  CNVSOSCF        .... off
 Level Shifting         CNVShift        .... on
   Level shift para.    LevelShift      ....    0.2500
   Turn off err/grad.   ShiftErr        ....    0.0010
 Zerner damping         CNVZerner       .... off
 Static damping         CNVDamp         .... on
   Fraction old density DampFac         ....    0.7000
   Max. Damping (<1)    DampMax         ....    0.9800
   Min. Damping (>=0)   DampMin         ....    0.0000
   Turn off err/grad.   DampErr         ....    0.1000
 Fernandez-Rico         CNVRico         .... off

SCF Procedure:
 Maximum # iterations   MaxIter         ....   125
 SCF integral mode      SCFMode         .... Direct
   Integral package                     .... SHARK and LIBINT hybrid scheme
 Reset frequency        DirectResetFreq ....    20
 Integral Threshold     Thresh          ....  2.500e-11 Eh
 Primitive CutOff       TCut            ....  2.500e-12 Eh

Convergence Tolerance:
 Convergence Check Mode ConvCheckMode   .... Total+1el-Energy
 Convergence forced     ConvForced      .... 0
 Energy Change          TolE            ....  1.000e-08 Eh
 1-El. energy change                    ....  1.000e-05 Eh
 DIIS Error             TolErr          ....  5.000e-07


Diagonalization of the overlap matrix:
Smallest eigenvalue                        ... 7.130e-04
Time for diagonalization                   ...    0.013 sec
Threshold for overlap eigenvalues          ... 1.000e-08
Number of eigenvalues below threshold      ... 0
Time for construction of square roots      ...    0.010 sec
Total time needed                          ...    0.024 sec

Time for model grid setup =    0.106 sec

------------------------------
INITIAL GUESS: MODEL POTENTIAL
------------------------------
Loading Hartree-Fock densities                     ... done
Calculating cut-offs                               ... done
Initializing the effective Hamiltonian             ... done
Setting up the integral package (SHARK)            ... done
Starting the Coulomb interaction                   ... done (   0.1 sec)
Reading the grid                                   ... done
Mapping shells                                     ... done
Starting the XC term evaluation                    ... done (   0.0 sec)
  promolecular density results
     # of electrons  =    106.995809345
     EX              =    -90.947234768
     EC              =     -3.674887981
     EX+EC           =    -94.622122749
Transforming the Hamiltonian                       ... done (   0.0 sec)
Diagonalizing the Hamiltonian                      ... done (   0.0 sec)
Back transforming the eigenvectors                 ... done (   0.0 sec)
Now organizing SCF variables                       ... done
                      ------------------
                      INITIAL GUESS DONE (   0.3 sec)
                      ------------------
-------------------
DFT GRID GENERATION
-------------------

General Integration Accuracy     IntAcc      ... 4.388
Radial Grid Type                 RadialGrid  ... OptM3 with GC (2021)
Angular Grid (max. ang.)         AngularGrid ... 4 (Lebedev-302)
Angular grid pruning method      GridPruning ... 4 (adaptive)
Weight generation scheme         WeightScheme... Becke
Basis function cutoff            BFCut       ... 1.0000e-11
Integration weight cutoff        WCut        ... 1.0000e-14
Angular grids for H and He will be reduced by one unit
Partially contracted basis set               ... off
Rotationally invariant grid construction     ... off

Total number of grid points                  ...   125973
Total number of batches                      ...     1983
Average number of points per batch           ...       63
Average number of grid points per atom       ...     4666
Time for grid setup =    0.524 sec

--------------------
COSX GRID GENERATION
--------------------

GRIDX 1
-------
General Integration Accuracy     IntAcc      ... 3.816
Radial Grid Type                 RadialGrid  ... OptM3 with GC (2021)
Angular Grid (max. ang.)         AngularGrid ... 1 (Lebedev-50)
Angular grid pruning method      GridPruning ... 4 (adaptive)
Weight generation scheme         WeightScheme... Becke
Basis function cutoff            BFCut       ... 1.0000e-11
Integration weight cutoff        WCut        ... 1.0000e-14
Angular grids for H and He will be reduced by one unit
Partially contracted basis set               ... on
Rotationally invariant grid construction     ... off

Total number of grid points                  ...    16052
Total number of batches                      ...      265
Average number of points per batch           ...       60
Average number of grid points per atom       ...      595
UseSFitting                                  ... on

GRIDX 2
-------
General Integration Accuracy     IntAcc      ... 4.020
Radial Grid Type                 RadialGrid  ... OptM3 with GC (2021)
Angular Grid (max. ang.)         AngularGrid ... 2 (Lebedev-110)
Angular grid pruning method      GridPruning ... 4 (adaptive)
Weight generation scheme         WeightScheme... Becke
Basis function cutoff            BFCut       ... 1.0000e-11
Integration weight cutoff        WCut        ... 1.0000e-14
Angular grids for H and He will be reduced by one unit
Partially contracted basis set               ... on
Rotationally invariant grid construction     ... off

Total number of grid points                  ...    34766
Total number of batches                      ...      557
Average number of points per batch           ...       62
Average number of grid points per atom       ...     1288
UseSFitting                                  ... on

GRIDX 3
-------
General Integration Accuracy     IntAcc      ... 4.338
Radial Grid Type                 RadialGrid  ... OptM3 with GC (2021)
Angular Grid (max. ang.)         AngularGrid ... 3 (Lebedev-194)
Angular grid pruning method      GridPruning ... 4 (adaptive)
Weight generation scheme         WeightScheme... Becke
Basis function cutoff            BFCut       ... 1.0000e-11
Integration weight cutoff        WCut        ... 1.0000e-14
Angular grids for H and He will be reduced by one unit
Partially contracted basis set               ... on
Rotationally invariant grid construction     ... off

Total number of grid points                  ...    76151
Total number of batches                      ...     1203
Average number of points per batch           ...       63
Average number of grid points per atom       ...     2820
UseSFitting                                  ... on

Time for X-Grid setup             =    0.654 sec

--------------
SCF ITERATIONS
--------------
ITER       Energy         Delta-E        Max-DP      RMS-DP      [F,P]     Damp
               ***  Starting incremental Fock matrix formation  ***
  0   -722.3260216596   0.000000000000 0.06375054  0.00107276  0.1306055 0.7000
  1   -722.5733557696  -0.247334109912 0.04125244  0.00072640  0.0511342 0.7000
                               ***Turning on DIIS***
  2   -722.6579517208  -0.084595951218 0.06304683  0.00108011  0.0183896 0.0000
  3   -722.8056581879  -0.147706467080 0.03701359  0.00053804  0.0251068 0.0000
  4   -722.8335912171  -0.027933029234 0.01458544  0.00018646  0.0076590 0.0000
  5   -722.8358675392  -0.002276322061 0.00597182  0.00006546  0.0027390 0.0000
  6   -722.8360705537  -0.000203014528 0.00388091  0.00004453  0.0007022 0.0000
               *** Restarting incremental Fock matrix formation ***
                                   *** Resetting DIIS ***
  7   -722.8361248264  -0.000054272679 0.00172065  0.00002146  0.0007643 0.0000
  8   -722.8361110205   0.000013805852 0.00075869  0.00000834  0.0013415 0.0000
  9   -722.8361350115  -0.000023990942 0.00040006  0.00000461  0.0002624 0.0000
 10   -722.8361367387  -0.000001727298 0.00018113  0.00000193  0.0000801 0.0000
 11   -722.8361368374  -0.000000098656 0.00010796  0.00000104  0.0000956 0.0000
 12   -722.8361369545  -0.000000117054 0.00004151  0.00000040  0.0000307 0.0000
 13   -722.8361369590  -0.000000004547 0.00002021  0.00000024  0.0000186 0.0000
 14   -722.8361369718  -0.000000012767 0.00000794  0.00000009  0.0000066 0.0000
 15   -722.8361369649   0.000000006918 0.00000400  0.00000005  0.0000038 0.0000
 16   -722.8361369649   0.000000000001 0.00000147  0.00000002  0.0000010 0.0000
                            ***DIIS convergence achieved***

               *****************************************************
               *                     SUCCESS                       *
               *           SCF CONVERGED AFTER  17 CYCLES          *
               *****************************************************

Old exchange energy                            =    -18.445450424 Eh
New exchange energy                            =    -18.445435246 Eh
Exchange energy change after final integration =      0.000015177 Eh
Total energy after final integration           =   -722.836121780 Eh
Final COS-X integration done in                =     2.389 sec

----------------
TOTAL SCF ENERGY
----------------

Total Energy       :         -722.83612178 Eh          -19669.37085 eV

Components:
Nuclear Repulsion  :          914.64921813 Eh           24888.87055 eV
Electronic Energy  :        -1637.48533991 Eh          -44558.24140 eV
One Electron Energy:        -2801.29608791 Eh          -76227.14186 eV
Two Electron Energy:         1163.81074800 Eh           31668.90047 eV
Max COSX asymmetry :            0.00000137 Eh               0.00004 eV

Virial components:
Potential Energy   :        -1441.21899994 Eh          -39217.56277 eV
Kinetic Energy     :          718.38287816 Eh           19548.19193 eV
Virial Ratio       :            2.00619898


DFT components:
N(Alpha)           :       53.999965465507 electrons
N(Beta)            :       52.999994627092 electrons
N(Total)           :      106.999960092599 electrons
E(X)               :      -73.345621626181 Eh       
E(C)               :       -4.326494429951 Eh       
E(XC)              :      -77.672116056132 Eh       
DFET-embed. en.    :        0.000000000000 Eh       

---------------
SCF CONVERGENCE
---------------

  Last Energy change         ...    7.9576e-09  Tolerance :   1.0000e-08
  Last MAX-Density change    ...    0.0000e+00  Tolerance :   1.0000e-07
  Last RMS-Density change    ...    0.0000e+00  Tolerance :   5.0000e-09
  Last DIIS Error            ...    9.8712e-07  Tolerance :   5.0000e-07

             **** THE GBW FILE WAS UPDATED (opt.gbw) ****
             **** DENSITY opt.scfp WAS UPDATED ****
             **** ENERGY FILE WAS UPDATED (opt.en.tmp) ****
----------------------
UHF SPIN CONTAMINATION
----------------------

Warning: in a DFT calculation there is little theoretical justification to 
         calculate <S**2> as in Hartree-Fock theory. We will do it anyways
         but you should keep in mind that the values have only limited relevance

Expectation value of <S**2>     :     0.754355
Ideal value S*(S+1) for S=0.5   :     0.750000
Deviation                       :     0.004355

             **** THE GBW FILE WAS UPDATED (opt.gbw) ****
             **** DENSITY opt.scfp WAS UPDATED ****
----------------
ORBITAL ENERGIES
----------------
                 SPIN UP ORBITALS
  NO   OCC          E(Eh)            E(eV) 
   0   1.0000     -19.197482      -522.3900 
   1   1.0000     -19.140892      -520.8501 
   2   1.0000     -19.130864      -520.5773 
   3   1.0000     -19.103207      -519.8247 
   4   1.0000     -14.375995      -391.1907 
   5   1.0000     -14.352581      -390.5536 
   6   1.0000     -10.333146      -281.1792 
   7   1.0000     -10.307926      -280.4929 
   8   1.0000     -10.288161      -279.9551 
   9   1.0000     -10.248160      -278.8666 
  10   1.0000     -10.231102      -278.4025 
  11   1.0000     -10.215783      -277.9856 
  12   1.0000     -10.215416      -277.9756 
  13   1.0000     -10.186835      -277.1979 
  14   1.0000      -1.121051       -30.5054 
  15   1.0000      -1.062797       -28.9202 
  16   1.0000      -1.035109       -28.1668 
  17   1.0000      -1.027641       -27.9635 
  18   1.0000      -0.941719       -25.6255 
  19   1.0000      -0.925502       -25.1842 
  20   1.0000      -0.813466       -22.1355 
  21   1.0000      -0.763119       -20.7655 
  22   1.0000      -0.731214       -19.8973 
  23   1.0000      -0.702184       -19.1074 
  24   1.0000      -0.643964       -17.5231 
  25   1.0000      -0.616733       -16.7822 
  26   1.0000      -0.604919       -16.4607 
  27   1.0000      -0.572858       -15.5883 
  28   1.0000      -0.542892       -14.7728 
  29   1.0000      -0.510677       -13.8962 
  30   1.0000      -0.493915       -13.4401 
  31   1.0000      -0.487495       -13.2654 
  32   1.0000      -0.480707       -13.0807 
  33   1.0000      -0.472382       -12.8542 
  34   1.0000      -0.466248       -12.6873 
  35   1.0000      -0.456440       -12.4204 
  36   1.0000      -0.455286       -12.3890 
  37   1.0000      -0.433438       -11.7944 
  38   1.0000      -0.424779       -11.5588 
  39   1.0000      -0.411584       -11.1998 
  40   1.0000      -0.410233       -11.1630 
  41   1.0000      -0.401748       -10.9321 
  42   1.0000      -0.399874       -10.8811 
  43   1.0000      -0.393393       -10.7048 
  44   1.0000      -0.381721       -10.3872 
  45   1.0000      -0.379107       -10.3160 
  46   1.0000      -0.351772        -9.5722 
  47   1.0000      -0.330515        -8.9938 
  48   1.0000      -0.292257        -7.9527 
  49   1.0000      -0.284015        -7.7284 
  50   1.0000      -0.277943        -7.5632 
  51   1.0000      -0.258238        -7.0270 
  52   1.0000      -0.251094        -6.8326 
  53   1.0000      -0.208703        -5.6791 
  54   0.0000      -0.002306        -0.0627 
  55   0.0000       0.007380         0.2008 
  56   0.0000       0.008640         0.2351 
  57   0.0000       0.021973         0.5979 
  58   0.0000       0.027734         0.7547 
  59   0.0000       0.031387         0.8541 
  60   0.0000       0.036600         0.9959 
  61   0.0000       0.052912         1.4398 
  62   0.0000       0.056218         1.5298 
  63   0.0000       0.078953         2.1484 
  64   0.0000       0.088588         2.4106 
  65   0.0000       0.100052         2.7225 
  66   0.0000       0.113898         3.0993 
  67   0.0000       0.123462         3.3596 
  68   0.0000       0.150440         4.0937 
  69   0.0000       0.157333         4.2813 
  70   0.0000       0.165237         4.4963 
  71   0.0000       0.167039         4.5454 
  72   0.0000       0.178587         4.8596 
  73   0.0000       0.180343         4.9074 
  74   0.0000       0.184819         5.0292 
  75   0.0000       0.193425         5.2634 
  76   0.0000       0.199286         5.4229 
  77   0.0000       0.208560         5.6752 
  78   0.0000       0.210849         5.7375 
  79   0.0000       0.216834         5.9004 
  80   0.0000       0.223142         6.0720 
  81   0.0000       0.239286         6.5113 
  82   0.0000       0.243350         6.6219 
  83   0.0000       0.250348         6.8123 
  84   0.0000       0.254716         6.9312 
  85   0.0000       0.259152         7.0519 
  86   0.0000       0.275139         7.4869 
  87   0.0000       0.277804         7.5594 
  88   0.0000       0.285880         7.7792 
  89   0.0000       0.290996         7.9184 
  90   0.0000       0.301281         8.1983 
  91   0.0000       0.303909         8.2698 
  92   0.0000       0.318441         8.6652 
  93   0.0000       0.319637         8.6978 
  94   0.0000       0.325500         8.8573 
  95   0.0000       0.332471         9.0470 
  96   0.0000       0.338314         9.2060 
  97   0.0000       0.350158         9.5283 
  98   0.0000       0.360167         9.8006 
  99   0.0000       0.374292        10.1850 
 100   0.0000       0.383888        10.4461 
 101   0.0000       0.393866        10.7176 
 102   0.0000       0.402526        10.9533 
 103   0.0000       0.410485        11.1699 
 104   0.0000       0.419612        11.4182 
 105   0.0000       0.423027        11.5111 
 106   0.0000       0.445215        12.1149 
 107   0.0000       0.447286        12.1713 
 108   0.0000       0.456176        12.4132 
 109   0.0000       0.468562        12.7502 
 110   0.0000       0.470031        12.7902 
 111   0.0000       0.490880        13.3575 
 112   0.0000       0.500596        13.6219 
 113   0.0000       0.521539        14.1918 
 114   0.0000       0.527281        14.3480 
 115   0.0000       0.540883        14.7182 
 116   0.0000       0.561806        15.2875 
 117   0.0000       0.572471        15.5777 
 118   0.0000       0.590792        16.0763 
 119   0.0000       0.597794        16.2668 
 120   0.0000       0.604823        16.4581 
 121   0.0000       0.640573        17.4309 
 122   0.0000       0.646665        17.5966 
 123   0.0000       0.673316        18.3219 
 124   0.0000       0.691713        18.8225 
 125   0.0000       0.697304        18.9746 
 126   0.0000       0.722574        19.6622 
 127   0.0000       0.746675        20.3180 
 128   0.0000       0.762246        20.7418 
 129   0.0000       0.783568        21.3220 
 130   0.0000       0.792089        21.5538 
 131   0.0000       0.798550        21.7297 
 132   0.0000       0.812077        22.0977 
 133   0.0000       0.814116        22.1532 
 134   0.0000       0.825701        22.4685 
 135   0.0000       0.826667        22.4948 
 136   0.0000       0.841093        22.8873 
 137   0.0000       0.850599        23.1460 
 138   0.0000       0.852849        23.2072 
 139   0.0000       0.867646        23.6098 
 140   0.0000       0.871192        23.7063 
 141   0.0000       0.878415        23.9029 
 142   0.0000       0.884726        24.0746 
 143   0.0000       0.902650        24.5624 
 144   0.0000       0.907389        24.6913 
 145   0.0000       0.913455        24.8564 
 146   0.0000       0.921359        25.0715 
 147   0.0000       0.927518        25.2390 
 148   0.0000       0.933993        25.4152 
 149   0.0000       0.939834        25.5742 
 150   0.0000       0.955549        26.0018 
 151   0.0000       0.957971        26.0677 
 152   0.0000       0.965783        26.2803 
 153   0.0000       0.976761        26.5790 
 154   0.0000       0.997368        27.1398 
 155   0.0000       1.005449        27.3597 
 156   0.0000       1.018318        27.7099 
 157   0.0000       1.032198        28.0875 
 158   0.0000       1.039299        28.2808 
 159   0.0000       1.047235        28.4967 
 160   0.0000       1.075664        29.2703 
 161   0.0000       1.107300        30.1312 
 162   0.0000       1.129556        30.7368 
 163   0.0000       1.143224        31.1087 
 164   0.0000       1.152418        31.3589 
 165   0.0000       1.159221        31.5440 
 166   0.0000       1.170318        31.8460 
 167   0.0000       1.182963        32.1901 
 168   0.0000       1.203844        32.7583 
 169   0.0000       1.211481        32.9661 
 170   0.0000       1.275789        34.7160 
 171   0.0000       1.296318        35.2746 
 172   0.0000       1.324324        36.0367 
 173   0.0000       1.343251        36.5517 
 174   0.0000       1.348943        36.7066 
 175   0.0000       1.363054        37.0906 
 176   0.0000       1.377104        37.4729 
 177   0.0000       1.394623        37.9496 
 178   0.0000       1.395812        37.9820 
 179   0.0000       1.411562        38.4106 
 180   0.0000       1.412656        38.4403 
 181   0.0000       1.425209        38.7819 
 182   0.0000       1.451015        39.4841 
 183   0.0000       1.462969        39.8094 
 184   0.0000       1.479433        40.2574 
 185   0.0000       1.484364        40.3916 
 186   0.0000       1.499691        40.8087 
 187   0.0000       1.501870        40.8679 
 188   0.0000       1.515586        41.2412 
 189   0.0000       1.528533        41.5935 
 190   0.0000       1.534902        41.7668 
 191   0.0000       1.559931        42.4479 
 192   0.0000       1.567579        42.6560 
 193   0.0000       1.583960        43.1017 
 194   0.0000       1.591656        43.3112 
 195   0.0000       1.599580        43.5268 
 196   0.0000       1.620757        44.1030 
 197   0.0000       1.630267        44.3618 
 198   0.0000       1.660255        45.1778 
 199   0.0000       1.668409        45.3997 
 200   0.0000       1.681979        45.7690 
 201   0.0000       1.695211        46.1290 
 202   0.0000       1.699889        46.2563 
 203   0.0000       1.719753        46.7969 
 204   0.0000       1.733221        47.1634 
 205   0.0000       1.743191        47.4346 
 206   0.0000       1.762318        47.9551 
 207   0.0000       1.774229        48.2792 
 208   0.0000       1.790752        48.7288 
 209   0.0000       1.813998        49.3614 
 210   0.0000       1.831017        49.8245 
 211   0.0000       1.848745        50.3069 
 212   0.0000       1.868491        50.8442 
 213   0.0000       1.885325        51.3023 
 214   0.0000       1.894323        51.5471 
 215   0.0000       1.908409        51.9304 
 216   0.0000       1.936385        52.6917 
 217   0.0000       1.961625        53.3785 
 218   0.0000       1.993999        54.2595 
 219   0.0000       2.014785        54.8251 
 220   0.0000       2.018366        54.9225 
 221   0.0000       2.052033        55.8387 
 222   0.0000       2.054276        55.8997 
 223   0.0000       2.073020        56.4097 
 224   0.0000       2.090807        56.8938 
 225   0.0000       2.110506        57.4298 
 226   0.0000       2.127720        57.8982 
 227   0.0000       2.161523        58.8180 
 228   0.0000       2.181567        59.3634 
 229   0.0000       2.196789        59.7777 
 230   0.0000       2.208740        60.1029 
 231   0.0000       2.228708        60.6462 
 232   0.0000       2.249238        61.2049 
 233   0.0000       2.255225        61.3678 
 234   0.0000       2.291095        62.3439 
 235   0.0000       2.318562        63.0913 
 236   0.0000       2.360380        64.2292 
 237   0.0000       2.380801        64.7849 
 238   0.0000       2.390621        65.0521 
 239   0.0000       2.406001        65.4706 
 240   0.0000       2.412587        65.6498 
 241   0.0000       2.418984        65.8239 
 242   0.0000       2.424492        65.9738 
 243   0.0000       2.446009        66.5593 
 244   0.0000       2.484104        67.5959 
 245   0.0000       2.488228        67.7081 
 246   0.0000       2.496964        67.9458 
 247   0.0000       2.515181        68.4416 
 248   0.0000       2.596164        70.6452 
 249   0.0000       2.613424        71.1149 
 250   0.0000       2.623547        71.3903 
 251   0.0000       2.672668        72.7270 
 252   0.0000       2.690638        73.2160 
 253   0.0000       2.694869        73.3311 
 254   0.0000       2.713649        73.8422 
 255   0.0000       2.737562        74.4929 
 256   0.0000       2.777837        75.5888 
 257   0.0000       2.782507        75.7159 
 258   0.0000       2.822462        76.8031 
 259   0.0000       2.841267        77.3148 
 260   0.0000       2.907198        79.1089 
 261   0.0000       2.983013        81.1719 
 262   0.0000       3.033065        82.5339 
 263   0.0000       3.042488        82.7903 
 264   0.0000       3.090516        84.0972 
 265   0.0000       3.095833        84.2419 
 266   0.0000       3.124747        85.0287 
 267   0.0000       3.143564        85.5407 
 268   0.0000       3.379239        91.9538 
 269   0.0000       3.382484        92.0421 
 270   0.0000       3.436860        93.5217 
 271   0.0000       3.440303        93.6154 
 272   0.0000       3.449874        93.8758 
 273   0.0000       3.458904        94.1215 
 274   0.0000       3.601697        98.0071 
 275   0.0000       4.915823       133.7663 
 276   0.0000       4.980046       135.5139 
 277   0.0000       4.985020       135.6493 
 278   0.0000       4.987471       135.7160 
 279   0.0000       5.011003       136.3563 
 280   0.0000       5.015941       136.4907 
 281   0.0000       5.030148       136.8773 
 282   0.0000       5.092696       138.5793 
 283   0.0000       5.121777       139.3706 
 284   0.0000       5.181526       140.9965 
 285   0.0000       5.191996       141.2814 
 286   0.0000       5.250764       142.8805 
 287   0.0000       5.274398       143.5237 
 288   0.0000       5.296329       144.1204 
 289   0.0000       5.343417       145.4018 
 290   0.0000       5.349587       145.5697 
 291   0.0000       5.429438       147.7425 
 292   0.0000       5.594028       152.2213 
 293   0.0000       5.690835       154.8555 
 294   0.0000       5.723580       155.7465 
 295   0.0000       5.801064       157.8550 
 296   0.0000       7.294841       198.5027 
 297   0.0000       7.329759       199.4529 
 298   0.0000       8.882933       241.7169 
 299   0.0000       9.086578       247.2584 
 300   0.0000       9.103098       247.7079 
 301   0.0000       9.112389       247.9607 
 302   0.0000      29.503237       802.8239 
 303   0.0000      29.620737       806.0212 
 304   0.0000      29.689241       807.8853 
 305   0.0000      29.848129       812.2089 
 306   0.0000      29.922749       814.2394 
 307   0.0000      30.073344       818.3373 
 308   0.0000      30.133609       819.9772 
 309   0.0000      30.184254       821.3553 
 310   0.0000      36.549860       994.5723 
 311   0.0000      36.601184       995.9688 
 312   0.0000      36.603495       996.0317 
 313   0.0000      36.607088       996.1295 
 314   0.0000      36.628838       996.7214 
 315   0.0000      36.641269       997.0596 
 316   0.0000      36.686421       998.2883 
 317   0.0000      36.727088       999.3949 
 318   0.0000      36.776631      1000.7430 
 319   0.0000      36.815630      1001.8042 
 320   0.0000      36.876399      1003.4578 
 321   0.0000      36.889158      1003.8050 
 322   0.0000      36.914104      1004.4838 
 323   0.0000      41.237405      1122.1268 
 324   0.0000      41.270259      1123.0208 
 325   0.0000      53.428328      1453.8587 
 326   0.0000      53.624882      1459.2072 
 327   0.0000      53.638566      1459.5796 
 328   0.0000      53.650281      1459.8984 

                 SPIN DOWN ORBITALS
  NO   OCC          E(Eh)            E(eV) 
   0   1.0000     -19.197496      -522.3904 
   1   1.0000     -19.140840      -520.8487 
   2   1.0000     -19.130538      -520.5684 
   3   1.0000     -19.103020      -519.8196 
   4   1.0000     -14.375659      -391.1816 
   5   1.0000     -14.351661      -390.5285 
   6   1.0000     -10.332893      -281.1723 
   7   1.0000     -10.307093      -280.4703 
   8   1.0000     -10.288150      -279.9548 
   9   1.0000     -10.249060      -278.8911 
  10   1.0000     -10.231123      -278.4030 
  11   1.0000     -10.216318      -278.0001 
  12   1.0000     -10.201854      -277.6066 
  13   1.0000     -10.186759      -277.1958 
  14   1.0000      -1.120980       -30.5034 
  15   1.0000      -1.061958       -28.8973 
  16   1.0000      -1.034648       -28.1542 
  17   1.0000      -1.027561       -27.9614 
  18   1.0000      -0.940903       -25.6033 
  19   1.0000      -0.923335       -25.1252 
  20   1.0000      -0.801311       -21.8048 
  21   1.0000      -0.761775       -20.7290 
  22   1.0000      -0.730681       -19.8829 
  23   1.0000      -0.697742       -18.9865 
  24   1.0000      -0.636622       -17.3234 
  25   1.0000      -0.608904       -16.5691 
  26   1.0000      -0.603970       -16.4349 
  27   1.0000      -0.567090       -15.4313 
  28   1.0000      -0.539148       -14.6710 
  29   1.0000      -0.507730       -13.8160 
  30   1.0000      -0.492745       -13.4083 
  31   1.0000      -0.483555       -13.1582 
  32   1.0000      -0.480189       -13.0666 
  33   1.0000      -0.471035       -12.8175 
  34   1.0000      -0.463911       -12.6236 
  35   1.0000      -0.455534       -12.3957 
  36   1.0000      -0.453222       -12.3328 
  37   1.0000      -0.432243       -11.7619 
  38   1.0000      -0.421241       -11.4625 
  39   1.0000      -0.411082       -11.1861 
  40   1.0000      -0.404937       -11.0189 
  41   1.0000      -0.400315       -10.8931 
  42   1.0000      -0.399106       -10.8602 
  43   1.0000      -0.392752       -10.6873 
  44   1.0000      -0.378751       -10.3063 
  45   1.0000      -0.375980       -10.2309 
  46   1.0000      -0.350482        -9.5371 
  47   1.0000      -0.330361        -8.9896 
  48   1.0000      -0.286355        -7.7921 
  49   1.0000      -0.280547        -7.6341 
  50   1.0000      -0.276972        -7.5368 
  51   1.0000      -0.256438        -6.9780 
  52   1.0000      -0.249161        -6.7800 
  53   0.0000      -0.071442        -1.9440 
  54   0.0000      -0.001001        -0.0272 
  55   0.0000       0.008995         0.2448 
  56   0.0000       0.010289         0.2800 
  57   0.0000       0.022796         0.6203 
  58   0.0000       0.028399         0.7728 
  59   0.0000       0.031632         0.8608 
  60   0.0000       0.038350         1.0436 
  61   0.0000       0.054323         1.4782 
  62   0.0000       0.057827         1.5736 
  63   0.0000       0.079768         2.1706 
  64   0.0000       0.089755         2.4423 
  65   0.0000       0.101243         2.7550 
  66   0.0000       0.114602         3.1185 
  67   0.0000       0.124124         3.3776 
  68   0.0000       0.150983         4.1085 
  69   0.0000       0.157639         4.2896 
  70   0.0000       0.167069         4.5462 
  71   0.0000       0.169062         4.6004 
  72   0.0000       0.179774         4.8919 
  73   0.0000       0.182804         4.9743 
  74   0.0000       0.186775         5.0824 
  75   0.0000       0.194730         5.2989 
  76   0.0000       0.201259         5.4765 
  77   0.0000       0.211185         5.7466 
  78   0.0000       0.214858         5.8466 
  79   0.0000       0.217404         5.9159 
  80   0.0000       0.229318         6.2401 
  81   0.0000       0.241515         6.5720 
  82   0.0000       0.246840         6.7169 
  83   0.0000       0.251110         6.8331 
  84   0.0000       0.256094         6.9687 
  85   0.0000       0.261098         7.1048 
  86   0.0000       0.275890         7.5073 
  87   0.0000       0.279117         7.5952 
  88   0.0000       0.286878         7.8063 
  89   0.0000       0.292714         7.9652 
  90   0.0000       0.302306         8.2262 
  91   0.0000       0.305238         8.3059 
  92   0.0000       0.319052         8.6818 
  93   0.0000       0.321565         8.7502 
  94   0.0000       0.327667         8.9163 
  95   0.0000       0.336003         9.1431 
  96   0.0000       0.342075         9.3083 
  97   0.0000       0.351603         9.5676 
  98   0.0000       0.362976         9.8771 
  99   0.0000       0.376048        10.2328 
 100   0.0000       0.385862        10.4998 
 101   0.0000       0.396039        10.7768 
 102   0.0000       0.407906        11.0997 
 103   0.0000       0.412614        11.2278 
 104   0.0000       0.421994        11.4830 
 105   0.0000       0.431196        11.7334 
 106   0.0000       0.446899        12.1607 
 107   0.0000       0.452674        12.3179 
 108   0.0000       0.461414        12.5557 
 109   0.0000       0.472473        12.8566 
 110   0.0000       0.481210        13.0944 
 111   0.0000       0.492435        13.3998 
 112   0.0000       0.505254        13.7487 
 113   0.0000       0.523599        14.2479 
 114   0.0000       0.529630        14.4120 
 115   0.0000       0.543433        14.7876 
 116   0.0000       0.562629        15.3099 
 117   0.0000       0.574701        15.6384 
 118   0.0000       0.593971        16.1628 
 119   0.0000       0.601282        16.3617 
 120   0.0000       0.606519        16.5042 
 121   0.0000       0.643790        17.5184 
 122   0.0000       0.647805        17.6277 
 123   0.0000       0.675080        18.3698 
 124   0.0000       0.693375        18.8677 
 125   0.0000       0.697938        18.9919 
 126   0.0000       0.725226        19.7344 
 127   0.0000       0.751350        20.4453 
 128   0.0000       0.763494        20.7757 
 129   0.0000       0.785546        21.3758 
 130   0.0000       0.794323        21.6146 
 131   0.0000       0.799610        21.7585 
 132   0.0000       0.813027        22.1236 
 133   0.0000       0.815304        22.1856 
 134   0.0000       0.826648        22.4942 
 135   0.0000       0.828750        22.5514 
 136   0.0000       0.842310        22.9204 
 137   0.0000       0.851365        23.1668 
 138   0.0000       0.854407        23.2496 
 139   0.0000       0.869295        23.6547 
 140   0.0000       0.871628        23.7182 
 141   0.0000       0.878901        23.9161 
 142   0.0000       0.886905        24.1339 
 143   0.0000       0.904088        24.6015 
 144   0.0000       0.911017        24.7900 
 145   0.0000       0.915674        24.9168 
 146   0.0000       0.923018        25.1166 
 147   0.0000       0.929437        25.2913 
 148   0.0000       0.936769        25.4908 
 149   0.0000       0.941943        25.6316 
 150   0.0000       0.956934        26.0395 
 151   0.0000       0.960531        26.1374 
 152   0.0000       0.967966        26.3397 
 153   0.0000       0.979593        26.6561 
 154   0.0000       0.999078        27.1863 
 155   0.0000       1.006300        27.3828 
 156   0.0000       1.019508        27.7422 
 157   0.0000       1.034599        28.1529 
 158   0.0000       1.045678        28.4543 
 159   0.0000       1.050386        28.5824 
 160   0.0000       1.076898        29.3039 
 161   0.0000       1.110701        30.2237 
 162   0.0000       1.131817        30.7983 
 163   0.0000       1.146460        31.1968 
 164   0.0000       1.153402        31.3857 
 165   0.0000       1.160982        31.5919 
 166   0.0000       1.171948        31.8903 
 167   0.0000       1.185689        32.2642 
 168   0.0000       1.207492        32.8575 
 169   0.0000       1.213360        33.0172 
 170   0.0000       1.281133        34.8614 
 171   0.0000       1.307496        35.5788 
 172   0.0000       1.328395        36.1475 
 173   0.0000       1.345012        36.5996 
 174   0.0000       1.353764        36.8378 
 175   0.0000       1.368051        37.2266 
 176   0.0000       1.378540        37.5120 
 177   0.0000       1.395980        37.9865 
 178   0.0000       1.396178        37.9919 
 179   0.0000       1.411814        38.4174 
 180   0.0000       1.418313        38.5943 
 181   0.0000       1.430714        38.9317 
 182   0.0000       1.455494        39.6060 
 183   0.0000       1.465421        39.8761 
 184   0.0000       1.480584        40.2887 
 185   0.0000       1.485236        40.4153 
 186   0.0000       1.501150        40.8484 
 187   0.0000       1.503987        40.9256 
 188   0.0000       1.520304        41.3696 
 189   0.0000       1.530770        41.6544 
 190   0.0000       1.536336        41.8058 
 191   0.0000       1.562206        42.5098 
 192   0.0000       1.571082        42.7513 
 193   0.0000       1.585619        43.1469 
 194   0.0000       1.592852        43.3437 
 195   0.0000       1.602306        43.6010 
 196   0.0000       1.626150        44.2498 
 197   0.0000       1.632356        44.4187 
 198   0.0000       1.662170        45.2299 
 199   0.0000       1.674866        45.5754 
 200   0.0000       1.683135        45.8004 
 201   0.0000       1.696746        46.1708 
 202   0.0000       1.704141        46.3720 
 203   0.0000       1.721784        46.8521 
 204   0.0000       1.736119        47.2422 
 205   0.0000       1.748424        47.5770 
 206   0.0000       1.766731        48.0752 
 207   0.0000       1.775554        48.3153 
 208   0.0000       1.797866        48.9224 
 209   0.0000       1.818836        49.4930 
 210   0.0000       1.834310        49.9141 
 211   0.0000       1.858318        50.5674 
 212   0.0000       1.869220        50.8641 
 213   0.0000       1.889140        51.4061 
 214   0.0000       1.895648        51.5832 
 215   0.0000       1.911030        52.0018 
 216   0.0000       1.938675        52.7540 
 217   0.0000       1.962665        53.4068 
 218   0.0000       1.996414        54.3252 
 219   0.0000       2.018660        54.9305 
 220   0.0000       2.020825        54.9894 
 221   0.0000       2.053526        55.8793 
 222   0.0000       2.056913        55.9715 
 223   0.0000       2.075485        56.4768 
 224   0.0000       2.091491        56.9124 
 225   0.0000       2.111414        57.4545 
 226   0.0000       2.131647        58.0051 
 227   0.0000       2.165121        58.9159 
 228   0.0000       2.184783        59.4510 
 229   0.0000       2.197245        59.7901 
 230   0.0000       2.211042        60.1655 
 231   0.0000       2.230356        60.6911 
 232   0.0000       2.250688        61.2443 
 233   0.0000       2.261765        61.5458 
 234   0.0000       2.293204        62.4013 
 235   0.0000       2.322466        63.1975 
 236   0.0000       2.361141        64.2499 
 237   0.0000       2.382281        64.8252 
 238   0.0000       2.390843        65.0582 
 239   0.0000       2.406302        65.4788 
 240   0.0000       2.414004        65.6884 
 241   0.0000       2.420253        65.8584 
 242   0.0000       2.430562        66.1389 
 243   0.0000       2.448211        66.6192 
 244   0.0000       2.485259        67.6273 
 245   0.0000       2.488430        67.7136 
 246   0.0000       2.498622        67.9910 
 247   0.0000       2.517083        68.4933 
 248   0.0000       2.598019        70.6957 
 249   0.0000       2.614206        71.1362 
 250   0.0000       2.624552        71.4177 
 251   0.0000       2.674826        72.7857 
 252   0.0000       2.691406        73.2369 
 253   0.0000       2.695832        73.3573 
 254   0.0000       2.715088        73.8813 
 255   0.0000       2.738537        74.5194 
 256   0.0000       2.778740        75.6134 
 257   0.0000       2.783793        75.7509 
 258   0.0000       2.823324        76.8265 
 259   0.0000       2.841267        77.3148 
 260   0.0000       2.907426        79.1151 
 261   0.0000       2.984279        81.2063 
 262   0.0000       3.033968        82.5585 
 263   0.0000       3.043057        82.8058 
 264   0.0000       3.090675        84.1015 
 265   0.0000       3.096108        84.2494 
 266   0.0000       3.124947        85.0341 
 267   0.0000       3.143672        85.5437 
 268   0.0000       3.379769        91.9682 
 269   0.0000       3.382805        92.0508 
 270   0.0000       3.437415        93.5368 
 271   0.0000       3.440600        93.6235 
 272   0.0000       3.450520        93.8934 
 273   0.0000       3.459670        94.1424 
 274   0.0000       3.601762        98.0089 
 275   0.0000       4.918472       133.8384 
 276   0.0000       4.980383       135.5231 
 277   0.0000       4.985446       135.6609 
 278   0.0000       4.987534       135.7177 
 279   0.0000       5.012438       136.3954 
 280   0.0000       5.020234       136.6075 
 281   0.0000       5.037270       137.0711 
 282   0.0000       5.093572       138.6032 
 283   0.0000       5.123894       139.4282 
 284   0.0000       5.180944       140.9807 
 285   0.0000       5.191788       141.2757 
 286   0.0000       5.250857       142.8831 
 287   0.0000       5.277142       143.5983 
 288   0.0000       5.299802       144.2150 
 289   0.0000       5.346127       145.4755 
 290   0.0000       5.349747       145.5740 
 291   0.0000       5.441758       148.0778 
 292   0.0000       5.594522       152.2347 
 293   0.0000       5.690689       154.8515 
 294   0.0000       5.723794       155.7524 
 295   0.0000       5.811726       158.1451 
 296   0.0000       7.295973       198.5335 
 297   0.0000       7.331285       199.4944 
 298   0.0000       8.882926       241.7167 
 299   0.0000       9.086957       247.2687 
 300   0.0000       9.103524       247.7195 
 301   0.0000       9.112739       247.9702 
 302   0.0000      29.506300       802.9072 
 303   0.0000      29.620920       806.0262 
 304   0.0000      29.691118       807.9364 
 305   0.0000      29.854892       812.3929 
 306   0.0000      29.925674       814.3190 
 307   0.0000      30.073468       818.3407 
 308   0.0000      30.132905       819.9580 
 309   0.0000      30.189898       821.5089 
 310   0.0000      36.550028       994.5768 
 311   0.0000      36.601716       995.9833 
 312   0.0000      36.604371       996.0556 
 313   0.0000      36.607179       996.1320 
 314   0.0000      36.631307       996.7885 
 315   0.0000      36.654476       997.4190 
 316   0.0000      36.686230       998.2831 
 317   0.0000      36.727383       999.4029 
 318   0.0000      36.768819      1000.5304 
 319   0.0000      36.820338      1001.9323 
 320   0.0000      36.880532      1003.5703 
 321   0.0000      36.892214      1003.8882 
 322   0.0000      36.914217      1004.4869 
 323   0.0000      41.238164      1122.1475 
 324   0.0000      41.271088      1123.0434 
 325   0.0000      53.428326      1453.8587 
 326   0.0000      53.625090      1459.2129 
 327   0.0000      53.638826      1459.5867 
 328   0.0000      53.650441      1459.9027 

                    ********************************
                    * MULLIKEN POPULATION ANALYSIS *
                    ********************************

--------------------------------------------
MULLIKEN ATOMIC CHARGES AND SPIN POPULATIONS
--------------------------------------------
   0 N :   -0.115288    0.022003
   1 C :   -0.135223   -0.050491
   2 C :    0.080915    0.023856
   3 O :   -0.316781    0.009622
   4 C :   -0.112189    0.998998
   5 C :   -0.257876   -0.060698
   6 H :    0.191902    0.017992
   7 H :    0.166494    0.053961
   8 C :    0.076089    0.009497
   9 O :   -0.242447   -0.000345
  10 O :   -0.243397    0.002168
  11 H :    0.250468    0.000256
  12 H :    0.173488    0.003501
  13 C :    0.172924    0.001073
  14 N :   -0.087098    0.012188
  15 H :    0.290843    0.000667
  16 H :    0.239236    0.000266
  17 O :   -0.308131    0.005212
  18 C :   -0.554549    0.002348
  19 H :    0.188004    0.000682
  20 H :    0.184354   -0.000256
  21 H :    0.149213   -0.000024
  22 C :   -0.440239   -0.001146
  23 H :    0.181971    0.001381
[...]
LOEWDIN REDUCED ORBITAL CHARGES AND SPIN POPULATIONS
----------------------------------------------------
CHARGE
  0 N s       :     3.061658  s :     3.061658
      pz      :     1.149610  p :     3.798561
      px      :     1.129264
      py      :     1.519687
      dz2     :     0.021994  d :     0.079784
      dxz     :     0.029036
      dyz     :     0.007177
      dx2y2   :     0.012497
      dxy     :     0.009079
  1 C s       :     2.837681  s :     2.837681
      pz      :     0.999167  p :     2.949674
      px      :     0.918877
      py      :     1.031630
      dz2     :     0.067160  d :     0.270515
      dxz     :     0.035727
      dyz     :     0.034878
      dx2y2   :     0.062269
      dxy     :     0.070481
  2 C s       :     2.843156  s :     2.843156
      pz      :     1.009553  p :     2.760861
      px      :     0.924311
      py      :     0.826997
      dz2     :     0.151040  d :     0.484908
      dxz     :     0.089808
      dyz     :     0.055801
      dx2y2   :     0.098402
      dxy     :     0.089857
  3 O s       :     3.582665  s :     3.582665
      pz      :     1.589724  p :     4.575891
      px      :     1.526565
      py      :     1.459602
      dz2     :     0.005652  d :     0.032191
      dxz     :     0.011343
      dyz     :     0.005647
      dx2y2   :     0.004283
      dxy     :     0.005266
  4 C s       :     2.930613  s :     2.930613
      pz      :     0.951260  p :     2.932098
      px      :     0.986486
      py      :     0.994351
      dz2     :     0.015787  d :     0.145500
      dxz     :     0.015610
      dyz     :     0.030207
      dx2y2   :     0.041497
      dxy     :     0.042400
  5 C s       :     2.854733  s :     2.854733
      pz      :     0.993564  p :     3.019770
      px      :     1.015694
      py      :     1.010511
      dz2     :     0.027964  d :     0.166433
      dxz     :     0.038149
      dyz     :     0.033190
      dx2y2   :     0.026549
      dxy     :     0.040581
  6 H s       :     0.848132  s :     0.848132
      pz      :     0.038209  p :     0.082021
      px      :     0.027726
      py      :     0.016086
  7 H s       :     0.852688  s :     0.852688
      pz      :     0.016466  p :     0.081732
      px      :     0.037582
      py      :     0.027684
  8 C s       :     2.855408  s :     2.855408
      pz      :     0.932154  p :     2.702609
      px      :     0.990449
      py      :     0.780006
      dz2     :     0.078916  d :     0.522521
      dxz     :     0.216559
      dyz     :     0.045394
      dx2y2   :     0.076534
      dxy     :     0.105118
  9 O s       :     3.460645  s :     3.460645
      pz      :     1.262638  p :     4.490893
      px      :     1.563320
      py      :     1.664935
      dz2     :     0.004497  d :     0.025247
      dxz     :     0.012949
      dyz     :     0.002671
      dx2y2   :     0.002702
      dxy     :     0.002427
 10 O s       :     3.580704  s :     3.580704
      pz      :     1.680390  p :     4.526638
      px      :     1.437227
      py      :     1.409021
      dz2     :     0.005032  d :     0.033359
      dxz     :     0.006815
      dyz     :     0.000244
      dx2y2   :     0.013611
      dxy     :     0.007658
 11 H s       :     0.754620  s :     0.754620
      pz      :     0.067737  p :     0.152746
      px      :     0.035716
      py      :     0.049293
 12 H s       :     0.852153  s :     0.852153
      pz      :     0.025748  p :     0.081078
      px      :     0.015660
      py      :     0.039670
 13 C s       :     2.846911  s :     2.846911
      pz      :     0.955696  p :     2.765229
      px      :     1.016700
      py      :     0.792833
      dz2     :     0.164768  d :     0.486142
      dxz     :     0.127959
      dyz     :     0.100304
      dx2y2   :     0.051882
      dxy     :     0.041229
 14 N s       :     3.063760  s :     3.063760
      pz      :     1.132410  p :     3.809712
      px      :     1.223785
      py      :     1.453517
      dz2     :     0.020198  d :     0.080972
      dxz     :     0.027862
      dyz     :     0.012089
      dx2y2   :     0.009386
      dxy     :     0.011436
 15 H s       :     0.703420  s :     0.703420
      pz      :     0.071044  p :     0.192539
      px      :     0.067849
      py      :     0.053646
 16 H s       :     0.773935  s :     0.773935
      pz      :     0.052772  p :     0.145330
      px      :     0.045135
      py      :     0.047423
 17 O s       :     3.582691  s :     3.582691
      pz      :     1.513577  p :     4.573778
      px      :     1.637232
      py      :     1.422970
      dz2     :     0.009490  d :     0.031896
      dxz     :     0.012113
      dyz     :     0.005487
      dx2y2   :     0.002500
      dxy     :     0.002306
 18 C s       :     2.873196  s :     2.873196
      pz      :     1.031580  p :     3.064320
      px      :     0.987406
      py      :     1.045335
      dz2     :     0.020397  d :     0.105265
      dxz     :     0.022742
      dyz     :     0.011864
      dx2y2   :     0.034336
      dxy     :     0.015925
 19 H s       :     0.853314  s :     0.853314
      pz      :     0.019365  p :     0.083214
      px      :     0.017086
      py      :     0.046763
 20 H s       :     0.866775  s :     0.866775
      pz      :     0.032428  p :     0.081352
      px      :     0.020787
      py      :     0.028137
 21 H s       :     0.882432  s :     0.882432
      pz      :     0.039924  p :     0.081373
      px      :     0.023235
      py      :     0.018214
 22 C s       :     2.856278  s :     2.856278
      pz      :     0.892374  p :     2.972039
      px      :     1.035601
      py      :     1.044063
      dz2     :     0.048384  d :     0.158901
      dxz     :     0.038778
      dyz     :     0.033768
      dx2y2   :     0.018203
      dxy     :     0.019768
 23 H s       :     0.888202  s :     0.888202
      pz      :     0.015042  p :     0.079288
      px      :     0.017933
      py      :     0.046314
 24 H s       :     0.888218  s :     0.888218
      pz      :     0.014327  p :     0.079355
      px      :     0.038155
      py      :     0.026873
 25 H s       :     0.860669  s :     0.860669
      pz      :     0.025157  p :     0.084326
      px      :     0.037962
      py      :     0.021207
 26 H s       :     0.863511  s :     0.863511
      pz      :     0.036003  p :     0.091773
      px      :     0.039677
      py      :     0.016093

SPIN
  0 N s       :     0.003282  s :     0.003282
      pz      :     0.000533  p :     0.019365
      px      :     0.016077
      py      :     0.002755
      dz2     :    -0.000079  d :    -0.000336
      dxz     :    -0.000195
      dyz     :    -0.000017
      dx2y2   :    -0.000007
      dxy     :    -0.000037
  1 C s       :    -0.002565  s :    -0.002565
      pz      :    -0.004883  p :    -0.017427
      px      :    -0.002155
      py      :    -0.010389
      dz2     :     0.015556  d :     0.033581
      dxz     :     0.000798
      dyz     :     0.010494
      dx2y2   :     0.004422
      dxy     :     0.002311
  2 C s       :     0.009344  s :     0.009344
      pz      :     0.019758  p :     0.022147
      px      :     0.002347
      py      :     0.000042
      dz2     :     0.000052  d :     0.000377
      dxz     :     0.000071
      dyz     :     0.000243
      dx2y2   :    -0.000133
      dxy     :     0.000143
  3 O s       :     0.000637  s :     0.000637
      pz      :     0.007388  p :     0.011436
      px      :     0.006332
      py      :    -0.002283
      dz2     :     0.000105  d :     0.000138
      dxz     :     0.000014
      dyz     :    -0.000000
      dx2y2   :     0.000007
      dxy     :     0.000013
  4 C s       :     0.027003  s :     0.027003
      pz      :     0.478337  p :     0.767596
      px      :     0.271703
      py      :     0.017556
      dz2     :    -0.000583  d :    -0.004049
      dxz     :    -0.001629
      dyz     :    -0.000255
      dx2y2   :    -0.000888
      dxy     :    -0.000694
  5 C s       :    -0.003252  s :    -0.003252
      pz      :    -0.003327  p :    -0.020265
      px      :    -0.003810
      py      :    -0.013128
      dz2     :     0.000584  d :     0.035142
      dxz     :     0.004141
      dyz     :     0.017071
      dx2y2   :     0.001515
      dxy     :     0.011830
  6 H s       :     0.005288  s :     0.005288
      pz      :    -0.000019  p :    -0.000591
      px      :    -0.000234
      py      :    -0.000338
  7 H s       :     0.018261  s :     0.018261
      pz      :     0.000072  p :    -0.000894
      px      :    -0.000337
      py      :    -0.000630
  8 C s       :     0.012218  s :     0.012218
      pz      :     0.016773  p :     0.028987
      px      :     0.009564
      py      :     0.002650
      dz2     :     0.000011  d :    -0.000047
      dxz     :     0.000876
      dyz     :    -0.000314
      dx2y2   :    -0.000153
      dxy     :    -0.000467
  9 O s       :    -0.000099  s :    -0.000099
      pz      :     0.001535  p :     0.003646
      px      :     0.000417
      py      :     0.001693
      dz2     :     0.000235  d :     0.000253
      dxz     :     0.000003
      dyz     :     0.000009
      dx2y2   :     0.000001
      dxy     :     0.000004
 10 O s       :     0.000544  s :     0.000544
      pz      :     0.013016  p :     0.010747
      px      :     0.001344
      py      :    -0.003613
      dz2     :     0.000007  d :     0.000205
      dxz     :     0.000180
      dyz     :     0.000005
      dx2y2   :    -0.000005
      dxy     :     0.000018
 11 H s       :    -0.000678  s :    -0.000678
      pz      :     0.000107  p :     0.000961
      px      :     0.000679
      py      :     0.000175
 12 H s       :     0.005171  s :     0.005171
      pz      :    -0.000256  p :    -0.000833
      px      :    -0.000217
      py      :    -0.000360
 13 C s       :     0.000140  s :     0.000140
      pz      :    -0.000115  p :     0.002080
      px      :    -0.000533
      py      :     0.002728
      dz2     :     0.000955  d :     0.001462
      dxz     :     0.000058
      dyz     :    -0.000151
      dx2y2   :     0.000515
      dxy     :     0.000084
 14 N s       :     0.001233  s :     0.001233
      pz      :     0.000461  p :     0.012364
      px      :     0.006948
      py      :     0.004956
      dz2     :    -0.000004  d :     0.000461
      dxz     :     0.000420
      dyz     :     0.000014
      dx2y2   :     0.000030
      dxy     :     0.000001
 15 H s       :     0.000790  s :     0.000790
      pz      :     0.000325  p :     0.000358
      px      :     0.000007
      py      :     0.000026
 16 H s       :    -0.000264  s :    -0.000264
      pz      :     0.000384  p :     0.000594
      px      :    -0.000003
      py      :     0.000213
 17 O s       :     0.000508  s :     0.000508
      pz      :     0.000673  p :     0.003598
      px      :     0.004211
      py      :    -0.001287
      dz2     :    -0.000003  d :     0.000034
      dxz     :    -0.000004
      dyz     :     0.000010
      dx2y2   :     0.000000
      dxy     :     0.000031
 18 C s       :     0.000581  s :     0.000581
      pz      :     0.000149  p :     0.001695
      px      :     0.001215
      py      :     0.000331
      dz2     :     0.000002  d :     0.000100
      dxz     :     0.000001
      dyz     :    -0.000003
      dx2y2   :     0.000010
      dxy     :     0.000090
 19 H s       :     0.000341  s :     0.000341
      pz      :     0.000002  p :     0.000078
      px      :     0.000079
      py      :    -0.000004
 20 H s       :    -0.000109  s :    -0.000109
      pz      :     0.000022  p :     0.000061
      px      :     0.000029
      py      :     0.000010
 21 H s       :    -0.000051  s :    -0.000051
      pz      :     0.000016  p :     0.000037
      px      :     0.000014
      py      :     0.000007
 22 C s       :    -0.000060  s :    -0.000060
      pz      :    -0.000121  p :    -0.000404
      px      :    -0.000221
      py      :    -0.000062
      dz2     :     0.000078  d :     0.000864
      dxz     :     0.000448
      dyz     :     0.000117
      dx2y2   :     0.000080
      dxy     :     0.000141
 23 H s       :     0.000214  s :     0.000214
      pz      :    -0.000012  p :    -0.000027
      px      :    -0.000010
      py      :    -0.000005
 24 H s       :     0.000884  s :     0.000884
      pz      :     0.000036  p :     0.000015
      px      :    -0.000018
      py      :    -0.000004
 25 H s       :     0.000298  s :     0.000298
      pz      :    -0.000014  p :    -0.000006
      px      :     0.000015
      py      :    -0.000007
 26 H s       :    -0.019580  s :    -0.019580
      pz      :     0.014822  p :     0.026422
      px      :     0.011262
      py      :     0.000338


                      *****************************
                      * MAYER POPULATION ANALYSIS *
                      *****************************

  NA   - Mulliken gross atomic population
  ZA   - Total nuclear charge
  QA   - Mulliken gross atomic charge
  VA   - Mayer's total valence
  BVA  - Mayer's bonded valence
  FA   - Mayer's free valence

  ATOM       NA         ZA         QA         VA         BVA        FA
  0 N      7.1243     7.0000    -0.1243     3.3025     3.3019     0.0006
  1 C      6.1235     6.0000    -0.1235     4.1734     4.1718     0.0016
  2 C      5.9170     6.0000     0.0830     4.0136     4.0124     0.0012
  3 O      8.3253     8.0000    -0.3253     2.1232     2.1229     0.0003
  4 C      6.0718     6.0000    -0.0718     3.8320     3.1049     0.7271
  5 C      6.3122     6.0000    -0.3122     3.9726     3.9704     0.0022
  6 H      0.8180     1.0000     0.1820     0.9634     0.9634     0.0000
  7 H      0.8431     1.0000     0.1569     0.9620     0.9615     0.0005
  8 C      5.8523     6.0000     0.1477     4.0489     4.0470     0.0019
  9 O      8.2456     8.0000    -0.2456     2.1103     2.1103     0.0000
 10 O      8.2536     8.0000    -0.2536     2.1236     2.1233     0.0003
 11 H      0.7465     1.0000     0.2535     0.9652     0.9652     0.0000
 12 H      0.8388     1.0000     0.1612     0.9452     0.9452     0.0001
 13 C      5.8180     6.0000     0.1820     3.9983     3.9983    -0.0000
 14 N      7.0908     7.0000    -0.0908     3.2023     3.2020     0.0004
 15 H      0.7105     1.0000     0.2895     0.9557     0.9557     0.0000
 16 H      0.7683     1.0000     0.2317     0.9620     0.9620     0.0000
 17 O      8.3254     8.0000    -0.3254     2.1176     2.1175     0.0001
 18 C      6.5516     6.0000    -0.5516     3.8386     3.8386     0.0000
 19 H      0.7946     1.0000     0.2054     0.9540     0.9540     0.0000
 20 H      0.8196     1.0000     0.1804     0.9609     0.9609     0.0000
 21 H      0.8519     1.0000     0.1481     0.9719     0.9719     0.0000
 22 C      6.4558     6.0000    -0.4558     3.8870     3.8870    -0.0000
 23 H      0.8364     1.0000     0.1636     0.9570     0.9570     0.0000
 24 H      0.8345     1.0000     0.1655     0.9560     0.9560     0.0000
 25 H      0.8004     1.0000     0.1996     0.9656     0.9656     0.0000
 26 H      0.8703     1.0000     0.1297     0.9711     0.9681     0.0030

  Mayer bond orders larger than 0.100000
B(  0-N ,  1-C ) :   1.0250 B(  0-N , 11-H ) :   0.8908 B(  0-N , 13-C ) :   1.2153 
B(  1-C ,  2-C ) :   0.8718 B(  1-C ,  4-C ) :   1.0015 B(  1-C , 12-H ) :   0.9695 
B(  1-C , 17-O ) :   0.1231 B(  2-C ,  3-O ) :   1.8691 B(  2-C , 14-N ) :   1.2016 
B(  4-C ,  5-C ) :   0.9813 B(  4-C , 26-H ) :   0.9662 B(  5-C ,  6-H ) :   0.9764 
B(  5-C ,  7-H ) :   0.9530 B(  5-C ,  8-C ) :   0.8808 B(  8-C ,  9-O ) :   1.1445 
B(  8-C , 10-O ) :   1.9459 B(  9-O , 15-H ) :   0.8930 B( 13-C , 17-O ) :   1.8558 
B( 13-C , 18-C ) :   0.8869 B( 14-N , 16-H ) :   0.9306 B( 14-N , 22-C ) :   0.9689 
B( 18-C , 19-H ) :   0.9466 B( 18-C , 20-H ) :   0.9639 B( 18-C , 21-H ) :   0.9739 
B( 22-C , 23-H ) :   0.9607 B( 22-C , 24-H ) :   0.9571 B( 22-C , 25-H ) :   0.9438 


-------
TIMINGS
-------

Total SCF time: 0 days 0 hours 0 min 15 sec 

Total time                  ....      15.245 sec
Sum of individual times     ....      14.511 sec  ( 95.2%)

Fock matrix formation       ....      12.494 sec  ( 82.0%)
  Split-RI-J                ....       1.079 sec  (  8.6% of F)
  Chain of spheres X        ....       8.347 sec  ( 66.8% of F)
  XC integration            ....       2.742 sec  ( 21.9% of F)
    Basis function eval.    ....       0.277 sec  ( 10.1% of XC)
    Density eval.           ....       0.399 sec  ( 14.5% of XC)
    XC-Functional eval.     ....       0.062 sec  (  2.3% of XC)
    XC-Potential eval.      ....       0.262 sec  (  9.6% of XC)
Diagonalization             ....       0.444 sec  (  2.9%)
Density matrix formation    ....       0.027 sec  (  0.2%)
Population analysis         ....       0.073 sec  (  0.5%)
Initial guess               ....       0.041 sec  (  0.3%)
Orbital Transformation      ....       0.000 sec  (  0.0%)
Orbital Orthonormalization  ....       0.028 sec  (  0.2%)
DIIS solution               ....       0.227 sec  (  1.5%)
Grid generation             ....       1.204 sec  (  7.9%)

Maximum memory used throughout the entire SCF-calculation: 78.0 MB

-------------------------   --------------------
FINAL SINGLE POINT ENERGY      -722.840414781531
-------------------------   --------------------

                                *** OPTIMIZATION RUN DONE ***

                            ***************************************
                            *     ORCA property calculations      *
                            ***************************************

                                    ---------------------
                                    Active property flags
                                    ---------------------
   (+) Dipole Moment


------------------------------------------------------------------------------
                       ORCA ELECTRIC PROPERTIES CALCULATION
------------------------------------------------------------------------------

Dipole Moment Calculation                       ... on
Quadrupole Moment Calculation                   ... off
Polarizability Calculation                      ... off
GBWName                                         ... opt.gbw
Electron density                                ... opt.scfp
The origin for moment calculation is the CENTER OF MASS  = (-5.917331, -7.040921 -1.334386)

-------------
DIPOLE MOMENT
-------------
                                X             Y             Z
Electronic contribution:     -1.13727       3.74270      -5.18486
Nuclear contribution   :      2.50036      -4.12341       5.94352
                        -----------------------------------------
Total Dipole Moment    :      1.36309      -0.38071       0.75865
                        -----------------------------------------
Magnitude (a.u.)       :      1.60577
Magnitude (Debye)      :      4.08155



--------------------
Rotational spectrum 
--------------------
 
Rotational constants in cm-1:     0.031849     0.014570     0.011909 
Rotational constants in MHz :   954.799966   436.789126   357.008386 

 Dipole components along the rotational axes: 
x,y,z [a.u.] :     1.335572    -0.750423     0.481265 
x,y,z [Debye]:     3.394754    -1.907424     1.223279 

 

Timings for individual modules:

Sum of individual times         ...     2248.374 sec (=  37.473 min)
GTO integral calculation        ...      213.742 sec (=   3.562 min)   9.5 %
SCF iterations                  ...     1467.279 sec (=  24.455 min)  65.3 %
SCF Gradient evaluation         ...      564.028 sec (=   9.400 min)  25.1 %
Geometry relaxation             ...        3.325 sec (=   0.055 min)   0.1 %
                             ****ORCA TERMINATED NORMALLY****
TOTAL RUN TIME: 0 days 0 hours 40 minutes 48 seconds 79 msec
