
                                 *****************
                                 * O   R   C   A *
                                 *****************

                                            #,                                       
                                            ###                                      
                                            ####                                     
                                            #####                                    
                                            ######                                   
                                           ########,                                 
                                     ,,################,,,,,                         
                               ,,#################################,,                 
                          ,,##########################################,,             
                       ,#########################################, ''#####,          
                    ,#############################################,,   '####,        
                  ,##################################################,,,,####,       
                ,###########''''           ''''###############################       
              ,#####''   ,,,,##########,,,,          '''####'''          '####       
            ,##' ,,,,###########################,,,                        '##       
           ' ,,###''''                  '''############,,,                           
         ,,##''                                '''############,,,,        ,,,,,,###''
      ,#''                                            '''#######################'''  
     '                                                          ''''####''''         
             ,#######,   #######,   ,#######,      ##                                
            ,#'     '#,  ##    ##  ,#'     '#,    #''#        ######   ,####,        
            ##       ##  ##   ,#'  ##            #'  '#       #        #'  '#        
            ##       ##  #######   ##           ,######,      #####,   #    #        
            '#,     ,#'  ##    ##  '#,     ,#' ,#      #,         ##   #,  ,#        
             '#######'   ##     ##  '#######'  #'      '#     #####' # '####'        



                  #######################################################
                  #                        -***-                        #
                  #          Department of theory and spectroscopy      #
                  #    Directorship and core code : Frank Neese         #
                  #        Max Planck Institute fuer Kohlenforschung    #
                  #                Kaiser Wilhelm Platz 1               #
                  #                 D-45470 Muelheim/Ruhr               #
                  #                      Germany                        #
                  #                                                     #
                  #                  All rights reserved                #
                  #                        -***-                        #
                  #######################################################


                         Program Version 5.0.4 -  RELEASE  -


 With contributions from (in alphabetic order):
   Daniel Aravena         : Magnetic Suceptibility
   Michael Atanasov       : Ab Initio Ligand Field Theory (pilot matlab implementation)
   Alexander A. Auer      : GIAO ZORA, VPT2 properties, NMR spectrum
   Ute Becker             : Parallelization
   Giovanni Bistoni       : ED, misc. LED, open-shell LED, HFLD
   Martin Brehm           : Molecular dynamics
   Dmytro Bykov           : SCF Hessian
   Vijay G. Chilkuri      : MRCI spin determinant printing, contributions to CSF-ICE
   Dipayan Datta          : RHF DLPNO-CCSD density
   Achintya Kumar Dutta   : EOM-CC, STEOM-CC
   Dmitry Ganyushin       : Spin-Orbit,Spin-Spin,Magnetic field MRCI
   Miquel Garcia          : C-PCM and meta-GGA Hessian, CC/C-PCM, Gaussian charge scheme
   Yang Guo               : DLPNO-NEVPT2, F12-NEVPT2, CIM, IAO-localization
   Andreas Hansen         : Spin unrestricted coupled pair/coupled cluster methods
   Benjamin Helmich-Paris : MC-RPA, TRAH-SCF, COSX integrals
   Lee Huntington         : MR-EOM, pCC
   Robert Izsak           : Overlap fitted RIJCOSX, COSX-SCS-MP3, EOM
   Marcus Kettner         : VPT2
   Christian Kollmar      : KDIIS, OOCD, Brueckner-CCSD(T), CCSD density, CASPT2, CASPT2-K
   Simone Kossmann        : Meta GGA functionals, TD-DFT gradient, OOMP2, MP2 Hessian
   Martin Krupicka        : Initial AUTO-CI
   Lucas Lang             : DCDCAS
   Marvin Lechner         : AUTO-CI (C++ implementation), FIC-MRCC
   Dagmar Lenk            : GEPOL surface, SMD
   Dimitrios Liakos       : Extrapolation schemes; Compound Job, initial MDCI parallelization
   Dimitrios Manganas     : Further ROCIS development; embedding schemes
   Dimitrios Pantazis     : SARC Basis sets
   Anastasios Papadopoulos: AUTO-CI, single reference methods and gradients
   Taras Petrenko         : DFT Hessian,TD-DFT gradient, ASA, ECA, R-Raman, ABS, FL, XAS/XES, NRVS
   Peter Pinski           : DLPNO-MP2, DLPNO-MP2 Gradient
   Christoph Reimann      : Effective Core Potentials
   Marius Retegan         : Local ZFS, SOC
   Christoph Riplinger    : Optimizer, TS searches, QM/MM, DLPNO-CCSD(T), (RO)-DLPNO pert. Triples
   Tobias Risthaus        : Range-separated hybrids, TD-DFT gradient, RPA, STAB
   Michael Roemelt        : Original ROCIS implementation
   Masaaki Saitow         : Open-shell DLPNO-CCSD energy and density
   Barbara Sandhoefer     : DKH picture change effects
   Avijit Sen             : IP-ROCIS
   Kantharuban Sivalingam : CASSCF convergence, NEVPT2, FIC-MRCI
   Bernardo de Souza      : ESD, SOC TD-DFT
   Georgi Stoychev        : AutoAux, RI-MP2 NMR, DLPNO-MP2 response
   Willem Van den Heuvel  : Paramagnetic NMR
   Boris Wezisla          : Elementary symmetry handling
   Frank Wennmohs         : Technical directorship


 We gratefully acknowledge several colleagues who have allowed us to
 interface, adapt or use parts of their codes:
   Stefan Grimme, W. Hujo, H. Kruse, P. Pracht,  : VdW corrections, initial TS optimization,
                  C. Bannwarth, S. Ehlert          DFT functionals, gCP, sTDA/sTD-DF
   Ed Valeev, F. Pavosevic, A. Kumar             : LibInt (2-el integral package), F12 methods
   Garnet Chan, S. Sharma, J. Yang, R. Olivares  : DMRG
   Ulf Ekstrom                                   : XCFun DFT Library
   Mihaly Kallay                                 : mrcc  (arbitrary order and MRCC methods)
   Jiri Pittner, Ondrej Demel                    : Mk-CCSD
   Frank Weinhold                                : gennbo (NPA and NBO analysis)
   Christopher J. Cramer and Donald G. Truhlar   : smd solvation model
   Lars Goerigk                                  : TD-DFT with DH, B97 family of functionals
   V. Asgeirsson, H. Jonsson                     : NEB implementation
   FAccTs GmbH                                   : IRC, NEB, NEB-TS, DLPNO-Multilevel, CI-OPT
                                                   MM, QMMM, 2- and 3-layer-ONIOM, Crystal-QMMM,
                                                   LR-CPCM, SF, NACMEs, symmetry and pop. for TD-DFT,
                                                   nearIR, NL-DFT gradient (VV10), updates on ESD,
                                                   ML-optimized integration grids
   S Lehtola, MJT Oliveira, MAL Marques          : LibXC Library
   Liviu Ungur et al                             : ANISO software


 Your calculation uses the libint2 library for the computation of 2-el integrals
 For citations please refer to: http://libint.valeyev.net

 Your ORCA version has been built with support for libXC version: 5.1.0
 For citations please refer to: https://tddft.org/programs/libxc/

 This ORCA versions uses:
   CBLAS   interface :  Fast vector & matrix operations
   LAPACKE interface :  Fast linear algebra routines
   SCALAPACK package :  Parallel linear algebra routines
   Shared memory     :  Shared parallel matrices
   BLAS/LAPACK       :  OpenBLAS 0.3.15  USE64BITINT DYNAMIC_ARCH NO_AFFINITY Zen SINGLE_THREADED
        Core in use  :  Zen
   Copyright (c) 2011-2014, The OpenBLAS Project




***************************************
The coordinates will be read from file: opt.xyz
***************************************


================================================================================

----- Orbital basis set information -----
Your calculation utilizes the basis: EPR-II
   V. Barone, in Recent Advances in Density Functional Methods, Part 1 (ed. D. P. Chong), World Scientific, Singapore, 1995, p. 287.

----- AuxJ basis set information -----
Your calculation utilizes the AutoAux generation procedure.
  G. L. Stoychev, A. A. Auer, F. Neese, J. Chem. Theory Comput. 13, 554 (2017)

----- AuxC basis set information -----
Your calculation utilizes the AutoAux generation procedure.
  G. L. Stoychev, A. A. Auer, F. Neese, J. Chem. Theory Comput. 13, 554 (2017)

----- AuxJK basis set information -----
Your calculation utilizes the AutoAux generation procedure.
  G. L. Stoychev, A. A. Auer, F. Neese, J. Chem. Theory Comput. 13, 554 (2017)

================================================================================
                                        WARNINGS
                       Please study these warnings very carefully!
================================================================================


WARNING: your system is open-shell and RHF/RKS was chosen
  ===> : WILL SWITCH to UHF/UKS


INFO   : the flag for use of the SHARK integral package has been found!

================================================================================
                                       INPUT FILE
================================================================================
NAME = epr_info.inp
|  1> ! B3LYP EPR-II AUTOAUX
|  2> %pal nprocs 16 end
|  3> *XYZFile 1 2 opt.xyz
|  4> %EPRNMR
|  5>         GTENSOR   TRUE
|  6>         NUCLEI    = 1,9,10,11,12,13,14,15,16,21,30,31,32,33 {SHIFT, AISO, ADIP, AORB}
|  7>         ORI       GIAO
|  8> END
|  9> 
| 10>                          ****END OF INPUT****
================================================================================

                       ****************************
                       * Single Point Calculation *
                       ****************************

---------------------------------
CARTESIAN COORDINATES (ANGSTROEM)
---------------------------------
  N     -7.617007    1.396341    0.277124
  C     -6.205451    1.039096    0.320010
  C     -5.931516    0.601314    1.782111
  O     -6.678094    0.966066    2.691871
  C     -5.230104    2.172376   -0.123952
  C     -5.442865    3.504999    0.532471
  C     -5.317105    4.772726   -0.273989
  C     -6.615867    5.022412   -1.067350
  N     -6.421660    6.141925   -2.105940
  H     -4.482214    4.673466   -0.986486
  H     -5.102034    5.630223    0.374715
  H     -7.431767    5.352471   -0.420951
  H     -6.935160    4.136994   -1.625039
  H     -7.279673    6.301753   -2.642450
  H     -5.682580    5.887990   -2.768438
  H     -8.091157    1.285418    1.167062
  C     -8.287364    1.897149   -0.792328
  N     -4.820747   -0.158875    1.963668
  H     -4.334967   -0.500495    1.147300
  O     -7.727554    2.208821   -1.856738
  H     -6.151776    7.025404   -1.663064
  C     -4.408429   -0.666525    3.274031
  H     -4.648147   -1.729638    3.376508
  H     -3.333115   -0.524702    3.408990
  H     -4.947479   -0.109324    4.039703
  C     -9.793460    2.039195   -0.614021
  H    -10.115668    3.010242   -0.997358
  H    -10.280246    1.270936   -1.223099
  H    -10.122553    1.923795    0.421361
  H     -6.025092    0.188048   -0.350467
  H     -4.207577    1.816499    0.084528
  H     -5.311112    2.268413   -1.209837
  H     -5.647481    3.568910    1.597015

----------------------------
CARTESIAN COORDINATES (A.U.)
----------------------------
  NO LB      ZA    FRAG     MASS         X           Y           Z
   0 N     7.0000    0    14.007  -14.394057    2.638703    0.523689
   1 C     6.0000    0    12.011  -11.726604    1.963606    0.604732
   2 C     6.0000    0    12.011  -11.208941    1.136319    3.367702
   3 O     8.0000    0    15.999  -12.619769    1.825600    5.086899
   4 C     6.0000    0    12.011   -9.883465    4.105196   -0.234235
   5 C     6.0000    0    12.011  -10.285525    6.623488    1.006224
   6 C     6.0000    0    12.011  -10.047872    9.019145   -0.517765
   7 C     6.0000    0    12.011  -12.502177    9.490983   -2.017000
   8 N     7.0000    0    14.007  -12.135178   11.606557   -3.979650
   9 H     1.0000    0     1.008   -8.470157    8.831572   -1.864188
  10 H     1.0000    0     1.008   -9.641448   10.639579    0.708109
  11 H     1.0000    0     1.008  -14.044004   10.114705   -0.795481
  12 H     1.0000    0     1.008  -13.105553    7.817785   -3.070879
  13 H     1.0000    0     1.008  -13.756589   11.908587   -4.993507
  14 H     1.0000    0     1.008  -10.738520   11.126688   -5.231590
  15 H     1.0000    0     1.008  -15.290072    2.429087    2.205428
  16 C     6.0000    0    12.011  -15.660848    3.585093   -1.497283
  17 N     7.0000    0    14.007   -9.109892   -0.300230    3.710794
  18 H     1.0000    0     1.008   -8.191900   -0.945798    2.168084
  19 O     8.0000    0    15.999  -14.602960    4.174067   -3.508726
  20 H     1.0000    0     1.008  -11.625172   13.276090   -3.142735
  21 C     6.0000    0    12.011   -8.330723   -1.259551    6.187022
  22 H     1.0000    0     1.008   -8.783724   -3.268543    6.380676
  23 H     1.0000    0     1.008   -6.298675   -0.991543    6.442058
  24 H     1.0000    0     1.008   -9.349381   -0.206592    7.633932
  25 C     6.0000    0    12.011  -18.506957    3.853519   -1.160332
  26 H     1.0000    0     1.008  -19.115842    5.688533   -1.884733
  27 H     1.0000    0     1.008  -19.426850    2.401720   -2.311322
  28 H     1.0000    0     1.008  -19.128854    3.635446    0.796256
  29 H     1.0000    0     1.008  -11.385774    0.355359   -0.662286
  30 H     1.0000    0     1.008   -7.951168    3.432686    0.159735
  31 H     1.0000    0     1.008  -10.036548    4.286679   -2.286261
  32 H     1.0000    0     1.008  -10.672192    6.744263    3.017921

--------------------------------
INTERNAL COORDINATES (ANGSTROEM)
--------------------------------
 N      0   0   0     0.000000000000     0.00000000     0.00000000
 C      1   0   0     1.456692298233     0.00000000     0.00000000
 C      2   1   0     1.550623166516   105.55636033     0.00000000
 O      3   2   1     1.232105832999   120.37119727   338.55493272
 C      2   1   3     1.559720761992   114.79577965   237.06141387
 C      5   2   1     1.500680459347   115.59821331    50.25242453
 C      6   5   2     1.507755449891   120.05664341   219.88866206
 C      7   6   5     1.542253878856   109.93973791    80.61612362
 N      8   7   6     1.539381785570   111.01206307   191.28244367
 H      7   6   5     1.102064578729   109.46686606   321.32527096
 H      7   6   5     1.096528060002   110.94346435   202.58186095
 H      8   7   6     1.091999861222   111.93954542    73.18690298
 H      8   7   6     1.094043160803   112.14608806   310.08967817
 H      9   8   7     1.024487699253   111.16884086   179.28801990
 H      9   8   7     1.024512402875   110.30605944    59.87346616
 H      1   2   3     1.014451598480   113.59507990   359.89978052
 C      1   2   3     1.357908554071   126.29955826   176.77602854
 N      3   2   1     1.358181834450   115.37529288   160.16164664
 H     18   3   2     1.009525960331   118.34925925   351.03401735
 O     17   1   2     1.242374816485   123.01325010   354.26879408
 H      9   8   7     1.024456430435   111.63787557   300.22671081
 C     18   3   2     1.464502672602   122.94800475   180.22967509
 H     22  18   3     1.094611947999   111.02473752   103.42704250
 H     22  18   3     1.092989844460   110.02869753   224.51254079
 H     22  18   3     1.089633781023   108.19125686   344.08563228
 C     17   1   2     1.523251173758   115.48724791   173.46760301
 H     26  17   1     1.092564831233   109.47514780   135.42685841
 H     26  17   1     1.094604190729   108.00634334   251.95619930
 H     26  17   1     1.092536278540   113.51010767    12.45128686
 H      2   1   3     1.098340082943   109.34030320   117.28087892
 H      5   2   1     1.102576048882   106.95328582   172.58543149
 H      5   2   1     1.093129440186   107.47254688   286.67856368
 H      6   5   2     1.085912693374   120.51660463    42.42436340

---------------------------
INTERNAL COORDINATES (A.U.)
---------------------------
 N      0   0   0     0.000000000000     0.00000000     0.00000000
 C      1   0   0     2.752749505053     0.00000000     0.00000000
 C      2   1   0     2.930253121629   105.55636033     0.00000000
 O      3   2   1     2.328342592375   120.37119727   338.55493272
 C      2   1   3     2.947445085556   114.79577965   237.06141387
 C      5   2   1     2.835875082694   115.59821331    50.25242453
 C      6   5   2     2.849244877222   120.05664341   219.88866206
 C      7   6   5     2.914437460016   109.93973791    80.61612362
 N      8   7   6     2.909009990274   111.01206307   191.28244367
 H      7   6   5     2.082600235693   109.46686606   321.32527096
 H      7   6   5     2.072137731563   110.94346435   202.58186095
 H      8   7   6     2.063580675989   111.93954542    73.18690298
 H      8   7   6     2.067441952607   112.14608806   310.08967817
 H      9   8   7     1.936001179159   111.16884086   179.28801990
 H      9   8   7     1.936047862240   110.30605944    59.87346616
 H      1   2   3     1.917035697245   113.59507990   359.89978052
 C      1   2   3     2.566075282104   126.29955826   176.77602854
 N      3   2   1     2.566591707177   115.37529288   160.16164664
 H     18   3   2     1.907727590109   118.34925925   351.03401735
 O     17   1   2     2.347748158837   123.01325010   354.26879408
 H      9   8   7     1.935942089657   111.63787557   300.22671081
 C     18   3   2     2.767508973613   122.94800475   180.22967509
 H     22  18   3     2.068516804636   111.02473752   103.42704250
 H     22  18   3     2.065451473187   110.02869753   224.51254079
 H     22  18   3     2.059109432403   108.19125686   344.08563228
 C     17   1   2     2.878527551577   115.48724791   173.46760301
 H     26  17   1     2.064648314584   109.47514780   135.42685841
 H     26  17   1     2.068502145520   108.00634334   251.95619930
 H     26  17   1     2.064594357814   113.51010767    12.45128686
 H      2   1   3     2.075561958671   109.34030320   117.28087892
 H      5   2   1     2.083566774208   106.95328582   172.58543149
 H      5   2   1     2.065715270878   107.47254688   286.67856368
 H      6   5   2     2.052077595826   120.51660463    42.42436340

---------------------
BASIS SET INFORMATION
---------------------
There are 4 groups of distinct atoms

 Group   1 Type N   : 10s5p1d contracted to 6s2p1d pattern {511111/41/1}
 Group   2 Type C   : 10s5p1d contracted to 6s2p1d pattern {511111/41/1}
 Group   3 Type O   : 10s5p1d contracted to 6s2p1d pattern {511111/41/1}
 Group   4 Type H   : 6s1p contracted to 4s1p pattern {3111/1}

Atom   0N    basis set group =>   1
Atom   1C    basis set group =>   2
Atom   2C    basis set group =>   2
Atom   3O    basis set group =>   3
Atom   4C    basis set group =>   2
Atom   5C    basis set group =>   2
Atom   6C    basis set group =>   2
Atom   7C    basis set group =>   2
Atom   8N    basis set group =>   1
Atom   9H    basis set group =>   4
Atom  10H    basis set group =>   4
Atom  11H    basis set group =>   4
Atom  12H    basis set group =>   4
Atom  13H    basis set group =>   4
Atom  14H    basis set group =>   4
Atom  15H    basis set group =>   4
Atom  16C    basis set group =>   2
Atom  17N    basis set group =>   1
Atom  18H    basis set group =>   4
Atom  19O    basis set group =>   3
Atom  20H    basis set group =>   4
Atom  21C    basis set group =>   2
Atom  22H    basis set group =>   4
Atom  23H    basis set group =>   4
Atom  24H    basis set group =>   4
Atom  25C    basis set group =>   2
Atom  26H    basis set group =>   4
Atom  27H    basis set group =>   4
Atom  28H    basis set group =>   4
Atom  29H    basis set group =>   4
Atom  30H    basis set group =>   4
Atom  31H    basis set group =>   4
Atom  32H    basis set group =>   4
---------------------------------
AUXILIARY/J BASIS SET INFORMATION
---------------------------------
There are 4 groups of distinct atoms

 Group   1 Type N   : 17s13p12d2f contracted to 17s13p12d2f pattern {11111111111111111/1111111111111/111111111111/11}
 Group   2 Type C   : 17s13p12d2f contracted to 17s13p12d2f pattern {11111111111111111/1111111111111/111111111111/11}
 Group   3 Type O   : 17s13p12d2f contracted to 17s13p12d2f pattern {11111111111111111/1111111111111/111111111111/11}
 Group   4 Type H   : 15s6p1d contracted to 15s6p1d pattern {111111111111111/111111/1}

Atom   0N    basis set group =>   1
Atom   1C    basis set group =>   2
Atom   2C    basis set group =>   2
Atom   3O    basis set group =>   3
Atom   4C    basis set group =>   2
Atom   5C    basis set group =>   2
Atom   6C    basis set group =>   2
Atom   7C    basis set group =>   2
Atom   8N    basis set group =>   1
Atom   9H    basis set group =>   4
Atom  10H    basis set group =>   4
Atom  11H    basis set group =>   4
Atom  12H    basis set group =>   4
Atom  13H    basis set group =>   4
Atom  14H    basis set group =>   4
Atom  15H    basis set group =>   4
Atom  16C    basis set group =>   2
Atom  17N    basis set group =>   1
Atom  18H    basis set group =>   4
Atom  19O    basis set group =>   3
Atom  20H    basis set group =>   4
Atom  21C    basis set group =>   2
Atom  22H    basis set group =>   4
Atom  23H    basis set group =>   4
Atom  24H    basis set group =>   4
Atom  25C    basis set group =>   2
Atom  26H    basis set group =>   4
Atom  27H    basis set group =>   4
Atom  28H    basis set group =>   4
Atom  29H    basis set group =>   4
Atom  30H    basis set group =>   4
Atom  31H    basis set group =>   4
Atom  32H    basis set group =>   4
---------------------------------
AUXILIARY/C BASIS SET INFORMATION
---------------------------------
There are 4 groups of distinct atoms

 Group   1 Type N   : 17s13p12d2f contracted to 17s13p12d2f pattern {11111111111111111/1111111111111/111111111111/11}
 Group   2 Type C   : 17s13p12d2f contracted to 17s13p12d2f pattern {11111111111111111/1111111111111/111111111111/11}
 Group   3 Type O   : 17s13p12d2f contracted to 17s13p12d2f pattern {11111111111111111/1111111111111/111111111111/11}
 Group   4 Type H   : 15s6p1d contracted to 15s6p1d pattern {111111111111111/111111/1}

Atom   0N    basis set group =>   1
Atom   1C    basis set group =>   2
Atom   2C    basis set group =>   2
Atom   3O    basis set group =>   3
Atom   4C    basis set group =>   2
Atom   5C    basis set group =>   2
Atom   6C    basis set group =>   2
Atom   7C    basis set group =>   2
Atom   8N    basis set group =>   1
Atom   9H    basis set group =>   4
Atom  10H    basis set group =>   4
Atom  11H    basis set group =>   4
Atom  12H    basis set group =>   4
Atom  13H    basis set group =>   4
Atom  14H    basis set group =>   4
Atom  15H    basis set group =>   4
Atom  16C    basis set group =>   2
Atom  17N    basis set group =>   1
Atom  18H    basis set group =>   4
Atom  19O    basis set group =>   3
Atom  20H    basis set group =>   4
Atom  21C    basis set group =>   2
Atom  22H    basis set group =>   4
Atom  23H    basis set group =>   4
Atom  24H    basis set group =>   4
Atom  25C    basis set group =>   2
Atom  26H    basis set group =>   4
Atom  27H    basis set group =>   4
Atom  28H    basis set group =>   4
Atom  29H    basis set group =>   4
Atom  30H    basis set group =>   4
Atom  31H    basis set group =>   4
Atom  32H    basis set group =>   4
----------------------------------
AUXILIARY/JK BASIS SET INFORMATION
----------------------------------
There are 4 groups of distinct atoms

 Group   1 Type N   : 17s13p12d2f contracted to 17s13p12d2f pattern {11111111111111111/1111111111111/111111111111/11}
 Group   2 Type C   : 17s13p12d2f contracted to 17s13p12d2f pattern {11111111111111111/1111111111111/111111111111/11}
 Group   3 Type O   : 17s13p12d2f contracted to 17s13p12d2f pattern {11111111111111111/1111111111111/111111111111/11}
 Group   4 Type H   : 15s6p1d contracted to 15s6p1d pattern {111111111111111/111111/1}

Atom   0N    basis set group =>   1
Atom   1C    basis set group =>   2
Atom   2C    basis set group =>   2
Atom   3O    basis set group =>   3
Atom   4C    basis set group =>   2
Atom   5C    basis set group =>   2
Atom   6C    basis set group =>   2
Atom   7C    basis set group =>   2
Atom   8N    basis set group =>   1
Atom   9H    basis set group =>   4
Atom  10H    basis set group =>   4
Atom  11H    basis set group =>   4
Atom  12H    basis set group =>   4
Atom  13H    basis set group =>   4
Atom  14H    basis set group =>   4
Atom  15H    basis set group =>   4
Atom  16C    basis set group =>   2
Atom  17N    basis set group =>   1
Atom  18H    basis set group =>   4
Atom  19O    basis set group =>   3
Atom  20H    basis set group =>   4
Atom  21C    basis set group =>   2
Atom  22H    basis set group =>   4
Atom  23H    basis set group =>   4
Atom  24H    basis set group =>   4
Atom  25C    basis set group =>   2
Atom  26H    basis set group =>   4
Atom  27H    basis set group =>   4
Atom  28H    basis set group =>   4
Atom  29H    basis set group =>   4
Atom  30H    basis set group =>   4
Atom  31H    basis set group =>   4
Atom  32H    basis set group =>   4


           ************************************************************
           *        Program running with 16 parallel MPI-processes    *
           *              working on a common directory               *
           ************************************************************
------------------------------------------------------------------------------
                           ORCA GTO INTEGRAL CALCULATION
                           -- RI-GTO INTEGRALS CHOSEN --
------------------------------------------------------------------------------
------------------------------------------------------------------------------
                   ___                                                        
                  /   \      - P O W E R E D   B Y -                         
                 /     \                                                     
                 |  |  |   _    _      __       _____    __    __             
                 |  |  |  | |  | |    /  \     |  _  \  |  |  /  |          
                  \  \/   | |  | |   /    \    | | | |  |  | /  /          
                 / \  \   | |__| |  /  /\  \   | |_| |  |  |/  /          
                |  |  |   |  __  | /  /__\  \  |    /   |      \           
                |  |  |   | |  | | |   __   |  |    \   |  |\   \          
                \     /   | |  | | |  |  |  |  | |\  \  |  | \   \       
                 \___/    |_|  |_| |__|  |__|  |_| \__\ |__|  \__/        
                                                                              
                      - O R C A' S   B I G   F R I E N D -                    
                                      &                                       
                       - I N T E G R A L  F E E D E R -                       
                                                                              
 v1 FN, 2020, v2 2021                                                         
------------------------------------------------------------------------------


Reading SHARK input file epr_info.SHARKINP.tmp ... ok
----------------------
SHARK INTEGRAL PACKAGE
----------------------

Number of atoms                             ...     33
Number of basis functions                   ...    371
Number of shells                            ...    221
Maximum angular momentum                    ...      2
Integral batch strategy                     ... SHARK/LIBINT Hybrid
RI-J (if used) integral strategy            ... SPLIT-RIJ (Revised 2003 algorithm where possible)
Printlevel                                  ...      1
Contraction scheme used                     ... SEGMENTED contraction
Coulomb Range Separation                    ... NOT USED
Exchange Range Separation                   ... NOT USED
Finite Nucleus Model                        ... NOT USED
Auxiliary Coulomb fitting basis             ... AVAILABLE
   # of basis functions in Aux-J            ...   2542
   # of shells in Aux-J                     ...   1034
   Maximum angular momentum in Aux-J        ...      3
Auxiliary J/K fitting basis                 ... AVAILABLE
   # of basis functions in Aux-JK           ...   2542
   # of shells in Aux-JK                    ...   1034
   Maximum angular momentum in Aux-JK       ...      3
Auxiliary Correlation fitting basis         ... AVAILABLE
   # of basis functions in Aux-C            ...   2542
   # of shells in Aux-C                     ...   1034
   Maximum angular momentum in Aux-C        ...      3
Auxiliary 'external' fitting basis          ... NOT available
Integral threshold                          ...     1.000000e-10
Primitive cut-off                           ...     1.000000e-11
Primitive pair pre-selection threshold      ...     1.000000e-11

Calculating pre-screening integrals         ... done (  0.0 sec) Dimension = 221
Organizing shell pair data                  ... done (  0.0 sec)
Shell pair information
Total number of shell pairs                 ...     24531
Shell pairs after pre-screening             ...     16037
Total number of primitive shell pairs       ...     64184
Primitive shell pairs kept                  ...     30503
          la=0 lb=0:   7543 shell pairs
          la=1 lb=0:   5469 shell pairs
          la=1 lb=1:    934 shell pairs
          la=2 lb=0:   1475 shell pairs
          la=2 lb=1:    530 shell pairs
          la=2 lb=2:     86 shell pairs

Calculating one electron integrals          ... done (  0.0 sec)
Calculating RI/J V-Matrix + Cholesky decomp.... done (  0.3 sec)
Calculating RI/JK V-Matrix + Cholesky decomp... done (  0.3 sec)
Calculating RI/C V-Matrix + Cholesky decomp.... done (  0.3 sec)
Calculating Nuclear repulsion               ... done (  0.0 sec) ENN=    957.643101970191 Eh

SHARK setup successfully completed in   1.1 seconds

Maximum memory used throughout the entire GTOINT-calculation: 29.2 MB


           ************************************************************
           *        Program running with 16 parallel MPI-processes    *
           *              working on a common directory               *
           ************************************************************
-------------------------------------------------------------------------------
                                 ORCA SCF
-------------------------------------------------------------------------------

------------
SCF SETTINGS
------------
Hamiltonian:
 Density Functional     Method          .... DFT(GTOs)
 Exchange Functional    Exchange        .... B88
   X-Alpha parameter    XAlpha          ....  0.666667
   Becke's b parameter  XBeta           ....  0.004200
 Correlation Functional Correlation     .... LYP
 LDA part of GGA corr.  LDAOpt          .... VWN-5
 Gradients option       PostSCFGGA      .... off
 Hybrid DFT is turned on
   Fraction HF Exchange ScalHFX         ....  0.200000
   Scaling of DF-GGA-X  ScalDFX         ....  0.720000
   Scaling of DF-GGA-C  ScalDFC         ....  0.810000
   Scaling of DF-LDA-C  ScalLDAC        ....  1.000000
   Perturbative correction              ....  0.000000
   Density functional embedding theory  .... OFF
   NL short-range parameter             ....  4.800000
 RI-approximation to the Coulomb term is turned on
   Number of AuxJ basis functions       .... 2542
   RIJ-COSX (HFX calculated with COS-X)).... on


General Settings:
 Integral files         IntName         .... epr_info
 Hartree-Fock type      HFTyp           .... UHF
 Total Charge           Charge          ....    1
 Multiplicity           Mult            ....    2
 Number of Electrons    NEL             ....  109
 Basis Dimension        Dim             ....  371
 Nuclear Repulsion      ENuc            ....    957.6431019702 Eh

Convergence Acceleration:
 DIIS                   CNVDIIS         .... on
   Start iteration      DIISMaxIt       ....    12
   Startup error        DIISStart       ....  0.200000
   # of expansion vecs  DIISMaxEq       ....     5
   Bias factor          DIISBfac        ....   1.050
   Max. coefficient     DIISMaxC        ....  10.000
 Trust-Rad. Augm. Hess. CNVTRAH         .... auto
   Auto Start mean grad. ratio tolernc. ....  1.125000
   Auto Start start iteration           ....    20
   Auto Start num. interpolation iter.  ....    10
   Max. Number of Micro iterations      ....    16
   Max. Number of Macro iterations      .... Maxiter - #DIIS iter
   Number of Davidson start vectors     ....     2
   Converg. threshold I  (grad. norm)   ....   5.000e-05
   Converg. threshold II (energy diff.) ....   1.000e-06
   Grad. Scal. Fac. for Micro threshold ....   0.100
   Minimum threshold for Micro iter.    ....   0.010
   NR start threshold (gradient norm)   ....   0.001
   Initial trust radius                 ....   0.400
   Minimum AH scaling param. (alpha)    ....   1.000
   Maximum AH scaling param. (alpha)    .... 1000.000
   Orbital update algorithm             .... Taylor
   White noise on init. David. guess    .... on
   Maximum white noise                  ....   0.010
   Quad. conv. algorithm                .... NR
 SOSCF                  CNVSOSCF        .... off
 Level Shifting         CNVShift        .... on
   Level shift para.    LevelShift      ....    0.2500
   Turn off err/grad.   ShiftErr        ....    0.0010
 Zerner damping         CNVZerner       .... off
 Static damping         CNVDamp         .... on
   Fraction old density DampFac         ....    0.7000
   Max. Damping (<1)    DampMax         ....    0.9800
   Min. Damping (>=0)   DampMin         ....    0.0000
   Turn off err/grad.   DampErr         ....    0.1000
 Fernandez-Rico         CNVRico         .... off

SCF Procedure:
 Maximum # iterations   MaxIter         ....   125
 SCF integral mode      SCFMode         .... Direct
   Integral package                     .... SHARK and LIBINT hybrid scheme
 Reset frequency        DirectResetFreq ....    20
 Integral Threshold     Thresh          ....  1.000e-10 Eh
 Primitive CutOff       TCut            ....  1.000e-11 Eh

Convergence Tolerance:
 Convergence Check Mode ConvCheckMode   .... Total+1el-Energy
 Convergence forced     ConvForced      .... 0
 Energy Change          TolE            ....  1.000e-06 Eh
 1-El. energy change                    ....  1.000e-03 Eh
 DIIS Error             TolErr          ....  1.000e-06


Diagonalization of the overlap matrix:
Smallest eigenvalue                        ... 1.086e-03
Time for diagonalization                   ...    0.015 sec
Threshold for overlap eigenvalues          ... 1.000e-08
Number of eigenvalues below threshold      ... 0
Time for construction of square roots      ...    0.010 sec
Total time needed                          ...    0.026 sec

Time for model grid setup =    0.117 sec

------------------------------
INITIAL GUESS: MODEL POTENTIAL
------------------------------
Loading Hartree-Fock densities                     ... done
Calculating cut-offs                               ... done
Initializing the effective Hamiltonian             ... done
Setting up the integral package (SHARK)            ... done
Starting the Coulomb interaction                   ... done (   0.1 sec)
Reading the grid                                   ... done
Mapping shells                                     ... done
Starting the XC term evaluation                    ... done (   0.0 sec)
  promolecular density results
     # of electrons  =    109.988145731
     EX              =    -88.048620087
     EC              =     -3.689393315
     EX+EC           =    -91.738013402
Transforming the Hamiltonian                       ... done (   0.0 sec)
Diagonalizing the Hamiltonian                      ... done (   0.0 sec)
Back transforming the eigenvectors                 ... done (   0.0 sec)
Now organizing SCF variables                       ... done
                      ------------------
                      INITIAL GUESS DONE (   0.3 sec)
                      ------------------
-------------------
DFT GRID GENERATION
-------------------

General Integration Accuracy     IntAcc      ... 4.388
Radial Grid Type                 RadialGrid  ... OptM3 with GC (2021)
Angular Grid (max. ang.)         AngularGrid ... 4 (Lebedev-302)
Angular grid pruning method      GridPruning ... 4 (adaptive)
Weight generation scheme         WeightScheme... Becke
Basis function cutoff            BFCut       ... 1.0000e-10
Integration weight cutoff        WCut        ... 1.0000e-14
Angular grids for H and He will be reduced by one unit
Partially contracted basis set               ... off
Rotationally invariant grid construction     ... off

Total number of grid points                  ...   144644
Total number of batches                      ...     2276
Average number of points per batch           ...       63
Average number of grid points per atom       ...     4383
Time for grid setup =    0.614 sec

--------------------
COSX GRID GENERATION
--------------------

GRIDX 1
-------
General Integration Accuracy     IntAcc      ... 3.816
Radial Grid Type                 RadialGrid  ... OptM3 with GC (2021)
Angular Grid (max. ang.)         AngularGrid ... 1 (Lebedev-50)
Angular grid pruning method      GridPruning ... 4 (adaptive)
Weight generation scheme         WeightScheme... Becke
Basis function cutoff            BFCut       ... 1.0000e-10
Integration weight cutoff        WCut        ... 1.0000e-14
Angular grids for H and He will be reduced by one unit
Partially contracted basis set               ... on
Rotationally invariant grid construction     ... off

Total number of grid points                  ...    18470
Total number of batches                      ...      307
Average number of points per batch           ...       60
Average number of grid points per atom       ...      560
UseSFitting                                  ... on

GRIDX 2
-------
General Integration Accuracy     IntAcc      ... 4.020
Radial Grid Type                 RadialGrid  ... OptM3 with GC (2021)
Angular Grid (max. ang.)         AngularGrid ... 2 (Lebedev-110)
Angular grid pruning method      GridPruning ... 4 (adaptive)
Weight generation scheme         WeightScheme... Becke
Basis function cutoff            BFCut       ... 1.0000e-10
Integration weight cutoff        WCut        ... 1.0000e-14
Angular grids for H and He will be reduced by one unit
Partially contracted basis set               ... on
Rotationally invariant grid construction     ... off

Total number of grid points                  ...    38920
Total number of batches                      ...      623
Average number of points per batch           ...       62
Average number of grid points per atom       ...     1179
UseSFitting                                  ... on

GRIDX 3
-------
General Integration Accuracy     IntAcc      ... 4.338
Radial Grid Type                 RadialGrid  ... OptM3 with GC (2021)
Angular Grid (max. ang.)         AngularGrid ... 3 (Lebedev-194)
Angular grid pruning method      GridPruning ... 4 (adaptive)
Weight generation scheme         WeightScheme... Becke
Basis function cutoff            BFCut       ... 1.0000e-10
Integration weight cutoff        WCut        ... 1.0000e-14
Angular grids for H and He will be reduced by one unit
Partially contracted basis set               ... on
Rotationally invariant grid construction     ... off

Total number of grid points                  ...    84793
Total number of batches                      ...     1341
Average number of points per batch           ...       63
Average number of grid points per atom       ...     2569
UseSFitting                                  ... on

Time for X-Grid setup             =    0.789 sec

--------------
SCF ITERATIONS
--------------
ITER       Energy         Delta-E        Max-DP      RMS-DP      [F,P]     Damp
               ***  Starting incremental Fock matrix formation  ***
  0   -668.1491596024   0.000000000000 0.06073118  0.00085769  0.1288567 0.7000
  1   -668.3600373810  -0.210877778626 0.03445831  0.00058229  0.0507900 0.7000
                               ***Turning on DIIS***
  2   -668.4371934523  -0.077156071357 0.04350840  0.00090447  0.0182036 0.0000
  3   -668.5661244097  -0.128930957311 0.02398422  0.00042764  0.0239152 0.0000
  4   -668.5922746241  -0.026150214431 0.00862426  0.00014341  0.0068257 0.0000
  5   -668.5938807882  -0.001606164098 0.00369106  0.00005517  0.0045572 0.0000
  6   -668.5942167902  -0.000336002033 0.00260280  0.00003365  0.0005434 0.0000
               *** Restarting incremental Fock matrix formation ***
                                   *** Resetting DIIS ***
  7   -668.5942558324  -0.000039042137 0.00174447  0.00001712  0.0005716 0.0000
  8   -668.5942433232   0.000012509165 0.00083092  0.00000694  0.0010083 0.0000
  9   -668.5942640802  -0.000020757038 0.00034805  0.00000394  0.0002614 0.0000
 10   -668.5942656942  -0.000001613995 0.00013699  0.00000128  0.0000695 0.0000
                 **** Energy Check signals convergence ****

               *****************************************************
               *                     SUCCESS                       *
               *           SCF CONVERGED AFTER  11 CYCLES          *
               *****************************************************

Old exchange energy                            =    -17.879008958 Eh
New exchange energy                            =    -17.879043032 Eh
Exchange energy change after final integration =     -0.000034073 Eh
Total energy after final integration           =   -668.594299871 Eh
Final COS-X integration done in                =     2.253 sec

----------------
TOTAL SCF ENERGY
----------------

Total Energy       :         -668.59429987 Eh          -18193.37583 eV

Components:
Nuclear Repulsion  :          957.64310197 Eh           26058.79361 eV
Electronic Energy  :        -1626.23740184 Eh          -44252.16944 eV
One Electron Energy:        -2795.22004870 Eh          -76061.80443 eV
Two Electron Energy:         1168.98264686 Eh           31809.63499 eV
Max COSX asymmetry :            0.00000156 Eh               0.00004 eV

Virial components:
Potential Energy   :        -1332.58827270 Eh          -36261.57040 eV
Kinetic Energy     :          663.99397283 Eh           18068.19457 eV
Virial Ratio       :            2.00692827


DFT components:
N(Alpha)           :       55.000073151107 electrons
N(Beta)            :       54.000077228482 electrons
N(Total)           :      109.000150379589 electrons
E(X)               :      -71.012781487411 Eh       
E(C)               :       -4.314995405508 Eh       
E(XC)              :      -75.327776892919 Eh       
DFET-embed. en.    :        0.000000000000 Eh       

---------------
SCF CONVERGENCE
---------------

  Last Energy change         ...   -1.0303e-07  Tolerance :   1.0000e-06
  Last MAX-Density change    ...    0.0000e+00  Tolerance :   1.0000e-05
  Last RMS-Density change    ...    0.0000e+00  Tolerance :   1.0000e-06
  Last DIIS Error            ...    9.9152e-05  Tolerance :   1.0000e-06

             **** THE GBW FILE WAS UPDATED (epr_info.gbw) ****
             **** DENSITY epr_info.scfp WAS UPDATED ****
             **** ENERGY FILE WAS UPDATED (epr_info.en.tmp) ****
----------------------
UHF SPIN CONTAMINATION
----------------------

Warning: in a DFT calculation there is little theoretical justification to 
         calculate <S**2> as in Hartree-Fock theory. We will do it anyways
         but you should keep in mind that the values have only limited relevance

Expectation value of <S**2>     :     0.754139
Ideal value S*(S+1) for S=0.5   :     0.750000
Deviation                       :     0.004139

             **** THE GBW FILE WAS UPDATED (epr_info.gbw) ****
             **** DENSITY epr_info.scfp WAS UPDATED ****
----------------
ORBITAL ENERGIES
----------------
                 SPIN UP ORBITALS
  NO   OCC          E(Eh)            E(eV) 
   0   1.0000     -19.215186      -522.8718 
   1   1.0000     -19.212044      -522.7863 
   2   1.0000     -14.631535      -398.1443 
   3   1.0000     -14.463343      -393.5676 
   4   1.0000     -14.458819      -393.4445 
   5   1.0000     -10.403781      -283.1013 
   6   1.0000     -10.398944      -282.9697 
   7   1.0000     -10.398275      -282.9514 
   8   1.0000     -10.350766      -281.6587 
   9   1.0000     -10.350426      -281.6494 
  10   1.0000     -10.328700      -281.0582 
  11   1.0000     -10.312057      -280.6053 
  12   1.0000     -10.303261      -280.3660 
  13   1.0000     -10.284970      -279.8683 
  14   1.0000      -1.177633       -32.0450 
  15   1.0000      -1.141077       -31.0503 
  16   1.0000      -1.130218       -30.7548 
  17   1.0000      -1.025525       -27.9060 
  18   1.0000      -1.022072       -27.8120 
  19   1.0000      -0.953271       -25.9398 
  20   1.0000      -0.897730       -24.4285 
  21   1.0000      -0.851294       -23.1649 
  22   1.0000      -0.823489       -22.4083 
  23   1.0000      -0.804616       -21.8947 
  24   1.0000      -0.772907       -21.0319 
  25   1.0000      -0.764990       -20.8164 
  26   1.0000      -0.753551       -20.5052 
  27   1.0000      -0.708155       -19.2699 
  28   1.0000      -0.689869       -18.7723 
  29   1.0000      -0.669203       -18.2099 
  30   1.0000      -0.658459       -17.9176 
  31   1.0000      -0.636712       -17.3258 
  32   1.0000      -0.616715       -16.7817 
  33   1.0000      -0.591224       -16.0880 
  34   1.0000      -0.577248       -15.7077 
  35   1.0000      -0.568960       -15.4822 
  36   1.0000      -0.556437       -15.1414 
  37   1.0000      -0.549109       -14.9420 
  38   1.0000      -0.546756       -14.8780 
  39   1.0000      -0.538024       -14.6404 
  40   1.0000      -0.530777       -14.4432 
  41   1.0000      -0.524475       -14.2717 
  42   1.0000      -0.509222       -13.8566 
  43   1.0000      -0.498748       -13.5716 
  44   1.0000      -0.496064       -13.4986 
  45   1.0000      -0.488245       -13.2858 
  46   1.0000      -0.481904       -13.1133 
  47   1.0000      -0.473395       -12.8817 
  48   1.0000      -0.466352       -12.6901 
  49   1.0000      -0.450940       -12.2707 
  50   1.0000      -0.367299        -9.9947 
  51   1.0000      -0.365195        -9.9375 
  52   1.0000      -0.358626        -9.7587 
  53   1.0000      -0.352402        -9.5893 
  54   1.0000      -0.324965        -8.8428 
  55   0.0000      -0.172774        -4.7014 
  56   0.0000      -0.103155        -2.8070 
  57   0.0000      -0.099275        -2.7014 
  58   0.0000      -0.093237        -2.5371 
  59   0.0000      -0.078687        -2.1412 
  60   0.0000      -0.074741        -2.0338 
  61   0.0000      -0.069292        -1.8855 
  62   0.0000      -0.061246        -1.6666 
  63   0.0000      -0.054915        -1.4943 
  64   0.0000      -0.050736        -1.3806 
  65   0.0000      -0.034711        -0.9445 
  66   0.0000      -0.031427        -0.8552 
  67   0.0000      -0.024517        -0.6671 
  68   0.0000      -0.017588        -0.4786 
  69   0.0000      -0.006204        -0.1688 
  70   0.0000       0.010753         0.2926 
  71   0.0000       0.017864         0.4861 
  72   0.0000       0.031428         0.8552 
  73   0.0000       0.036602         0.9960 
  74   0.0000       0.047579         1.2947 
  75   0.0000       0.051592         1.4039 
  76   0.0000       0.062993         1.7141 
  77   0.0000       0.067775         1.8443 
  78   0.0000       0.070382         1.9152 
  79   0.0000       0.073279         1.9940 
  80   0.0000       0.079497         2.1632 
  81   0.0000       0.088069         2.3965 
  82   0.0000       0.094761         2.5786 
  83   0.0000       0.102065         2.7773 
  84   0.0000       0.103034         2.8037 
  85   0.0000       0.113885         3.0990 
  86   0.0000       0.119387         3.2487 
  87   0.0000       0.128415         3.4943 
  88   0.0000       0.133139         3.6229 
  89   0.0000       0.135538         3.6882 
  90   0.0000       0.146821         3.9952 
  91   0.0000       0.154352         4.2001 
  92   0.0000       0.159420         4.3380 
  93   0.0000       0.165847         4.5129 
  94   0.0000       0.175484         4.7752 
  95   0.0000       0.181792         4.9468 
  96   0.0000       0.185306         5.0424 
  97   0.0000       0.195005         5.3063 
  98   0.0000       0.199348         5.4245 
  99   0.0000       0.201571         5.4850 
 100   0.0000       0.213963         5.8222 
 101   0.0000       0.220960         6.0126 
 102   0.0000       0.224374         6.1055 
 103   0.0000       0.227279         6.1846 
 104   0.0000       0.236249         6.4287 
 105   0.0000       0.245842         6.6897 
 106   0.0000       0.255514         6.9529 
 107   0.0000       0.259700         7.0668 
 108   0.0000       0.273856         7.4520 
 109   0.0000       0.277371         7.5476 
 110   0.0000       0.287326         7.8185 
 111   0.0000       0.301687         8.2093 
 112   0.0000       0.309904         8.4329 
 113   0.0000       0.312128         8.4934 
 114   0.0000       0.332464         9.0468 
 115   0.0000       0.335846         9.1388 
 116   0.0000       0.338809         9.2195 
 117   0.0000       0.352862         9.6019 
 118   0.0000       0.359950         9.7947 
 119   0.0000       0.367735        10.0066 
 120   0.0000       0.377702        10.2778 
 121   0.0000       0.390824        10.6349 
 122   0.0000       0.398898        10.8546 
 123   0.0000       0.406668        11.0660 
 124   0.0000       0.415661        11.3107 
 125   0.0000       0.433298        11.7906 
 126   0.0000       0.449763        12.2387 
 127   0.0000       0.453303        12.3350 
 128   0.0000       0.458407        12.4739 
 129   0.0000       0.468965        12.7612 
 130   0.0000       0.483062        13.1448 
 131   0.0000       0.498695        13.5702 
 132   0.0000       0.532917        14.5014 
 133   0.0000       0.551036        14.9944 
 134   0.0000       0.558050        15.1853 
 135   0.0000       0.568522        15.4703 
 136   0.0000       0.573262        15.5993 
 137   0.0000       0.610043        16.6001 
 138   0.0000       0.617059        16.7910 
 139   0.0000       0.647196        17.6111 
 140   0.0000       0.657776        17.8990 
 141   0.0000       0.669262        18.2115 
 142   0.0000       0.681593        18.5471 
 143   0.0000       0.693055        18.8590 
 144   0.0000       0.701549        19.0901 
 145   0.0000       0.714873        19.4527 
 146   0.0000       0.724340        19.7103 
 147   0.0000       0.736814        20.0497 
 148   0.0000       0.747245        20.3336 
 149   0.0000       0.752084        20.4653 
 150   0.0000       0.758775        20.6473 
 151   0.0000       0.766730        20.8638 
 152   0.0000       0.772311        21.0157 
 153   0.0000       0.778190        21.1756 
 154   0.0000       0.786166        21.3927 
 155   0.0000       0.788918        21.4675 
 156   0.0000       0.796405        21.6713 
 157   0.0000       0.800123        21.7725 
 158   0.0000       0.803200        21.8562 
 159   0.0000       0.823514        22.4090 
 160   0.0000       0.833291        22.6750 
 161   0.0000       0.837361        22.7857 
 162   0.0000       0.844471        22.9792 
 163   0.0000       0.859335        23.3837 
 164   0.0000       0.862447        23.4684 
 165   0.0000       0.871145        23.7051 
 166   0.0000       0.889457        24.2034 
 167   0.0000       0.894972        24.3534 
 168   0.0000       0.909914        24.7600 
 169   0.0000       0.913165        24.8485 
 170   0.0000       0.929314        25.2879 
 171   0.0000       0.937998        25.5242 
 172   0.0000       0.944608        25.7041 
 173   0.0000       0.952081        25.9074 
 174   0.0000       0.966761        26.3069 
 175   0.0000       0.981682        26.7129 
 176   0.0000       1.003811        27.3151 
 177   0.0000       1.035519        28.1779 
 178   0.0000       1.042418        28.3656 
 179   0.0000       1.053808        28.6756 
 180   0.0000       1.056336        28.7444 
 181   0.0000       1.072558        29.1858 
 182   0.0000       1.095833        29.8191 
 183   0.0000       1.109851        30.2006 
 184   0.0000       1.113439        30.2982 
 185   0.0000       1.121667        30.5221 
 186   0.0000       1.135478        30.8979 
 187   0.0000       1.171462        31.8771 
 188   0.0000       1.187761        32.3206 
 189   0.0000       1.202259        32.7151 
 190   0.0000       1.209502        32.9122 
 191   0.0000       1.228701        33.4347 
 192   0.0000       1.241301        33.7775 
 193   0.0000       1.256439        34.1894 
 194   0.0000       1.269647        34.5489 
 195   0.0000       1.296546        35.2808 
 196   0.0000       1.302202        35.4347 
 197   0.0000       1.319860        35.9152 
 198   0.0000       1.324837        36.0506 
 199   0.0000       1.335441        36.3392 
 200   0.0000       1.337142        36.3855 
 201   0.0000       1.353693        36.8359 
 202   0.0000       1.370171        37.2842 
 203   0.0000       1.390515        37.8378 
 204   0.0000       1.400982        38.1227 
 205   0.0000       1.406152        38.2633 
 206   0.0000       1.416933        38.5567 
 207   0.0000       1.419420        38.6244 
 208   0.0000       1.433494        39.0074 
 209   0.0000       1.442930        39.2641 
 210   0.0000       1.451498        39.4973 
 211   0.0000       1.463386        39.8208 
 212   0.0000       1.472759        40.0758 
 213   0.0000       1.493548        40.6415 
 214   0.0000       1.496172        40.7129 
 215   0.0000       1.505873        40.9769 
 216   0.0000       1.509423        41.0735 
 217   0.0000       1.521083        41.3908 
 218   0.0000       1.528927        41.6042 
 219   0.0000       1.544157        42.0186 
 220   0.0000       1.554975        42.3130 
 221   0.0000       1.559129        42.4261 
 222   0.0000       1.569001        42.6947 
 223   0.0000       1.583304        43.0839 
 224   0.0000       1.591211        43.2991 
 225   0.0000       1.606128        43.7050 
 226   0.0000       1.612888        43.8889 
 227   0.0000       1.617578        44.0165 
 228   0.0000       1.625049        44.2198 
 229   0.0000       1.642114        44.6842 
 230   0.0000       1.647086        44.8195 
 231   0.0000       1.663050        45.2539 
 232   0.0000       1.677199        45.6389 
 233   0.0000       1.706095        46.4252 
 234   0.0000       1.711071        46.5606 
 235   0.0000       1.722981        46.8847 
 236   0.0000       1.735602        47.2281 
 237   0.0000       1.738583        47.3093 
 238   0.0000       1.752344        47.6837 
 239   0.0000       1.767760        48.1032 
 240   0.0000       1.777749        48.3750 
 241   0.0000       1.781490        48.4768 
 242   0.0000       1.800649        48.9982 
 243   0.0000       1.828741        49.7626 
 244   0.0000       1.867753        50.8241 
 245   0.0000       1.888880        51.3990 
 246   0.0000       1.898541        51.6619 
 247   0.0000       1.913342        52.0647 
 248   0.0000       1.932144        52.5763 
 249   0.0000       1.951280        53.0970 
 250   0.0000       1.959776        53.3282 
 251   0.0000       1.968164        53.5565 
 252   0.0000       1.972723        53.6805 
 253   0.0000       1.994547        54.2744 
 254   0.0000       2.005498        54.5724 
 255   0.0000       2.031806        55.2883 
 256   0.0000       2.063216        56.1430 
 257   0.0000       2.086827        56.7854 
 258   0.0000       2.105430        57.2917 
 259   0.0000       2.110769        57.4369 
 260   0.0000       2.142324        58.2956 
 261   0.0000       2.155587        58.6565 
 262   0.0000       2.169577        59.0372 
 263   0.0000       2.178875        59.2902 
 264   0.0000       2.192563        59.6627 
 265   0.0000       2.200986        59.8919 
 266   0.0000       2.225944        60.5710 
 267   0.0000       2.253825        61.3297 
 268   0.0000       2.261034        61.5259 
 269   0.0000       2.268117        61.7186 
 270   0.0000       2.284746        62.1711 
 271   0.0000       2.295601        62.4665 
 272   0.0000       2.303742        62.6880 
 273   0.0000       2.309925        62.8563 
 274   0.0000       2.329663        63.3934 
 275   0.0000       2.347822        63.8875 
 276   0.0000       2.350618        63.9636 
 277   0.0000       2.363892        64.3248 
 278   0.0000       2.387759        64.9742 
 279   0.0000       2.401398        65.3454 
 280   0.0000       2.409721        65.5718 
 281   0.0000       2.416175        65.7475 
 282   0.0000       2.422137        65.9097 
 283   0.0000       2.424266        65.9676 
 284   0.0000       2.433008        66.2055 
 285   0.0000       2.455940        66.8295 
 286   0.0000       2.511513        68.3417 
 287   0.0000       2.534720        68.9732 
 288   0.0000       2.572309        69.9961 
 289   0.0000       2.583548        70.3019 
 290   0.0000       2.586198        70.3740 
 291   0.0000       2.633522        71.6618 
 292   0.0000       2.637929        71.7817 
 293   0.0000       2.642126        71.8959 
 294   0.0000       2.673702        72.7551 
 295   0.0000       2.683254        73.0151 
 296   0.0000       2.734276        74.4034 
 297   0.0000       2.876132        78.2635 
 298   0.0000       2.927397        79.6585 
 299   0.0000       2.991872        81.4130 
 300   0.0000       3.010281        81.9139 
 301   0.0000       3.254165        88.5503 
 302   0.0000       3.298907        89.7678 
 303   0.0000       3.327734        90.5523 
 304   0.0000       3.343336        90.9768 
 305   0.0000       4.653215       126.6204 
 306   0.0000       4.686073       127.5145 
 307   0.0000       4.869107       132.4951 
 308   0.0000       4.884325       132.9092 
 309   0.0000       4.902002       133.3902 
 310   0.0000       4.904435       133.4565 
 311   0.0000       4.921399       133.9181 
 312   0.0000       4.930470       134.1649 
 313   0.0000       4.936796       134.3371 
 314   0.0000       4.957260       134.8939 
 315   0.0000       4.983441       135.6063 
 316   0.0000       5.023132       136.6864 
 317   0.0000       5.031179       136.9053 
 318   0.0000       5.080615       138.2506 
 319   0.0000       5.115101       139.1890 
 320   0.0000       5.140718       139.8860 
 321   0.0000       5.154735       140.2675 
 322   0.0000       5.173611       140.7811 
 323   0.0000       5.184832       141.0864 
 324   0.0000       5.231050       142.3441 
 325   0.0000       5.238748       142.5536 
 326   0.0000       5.268103       143.3524 
 327   0.0000       5.326717       144.9473 
 328   0.0000       5.497632       149.5982 
 329   0.0000       5.551235       151.0568 
 330   0.0000       5.614441       152.7767 
 331   0.0000       5.622450       152.9946 
 332   0.0000       5.690197       154.8381 
 333   0.0000       7.010978       190.7784 
 334   0.0000       7.211219       196.2272 
 335   0.0000       7.228406       196.6949 
 336   0.0000       8.978472       244.3166 
 337   0.0000       9.006983       245.0925 
 338   0.0000      29.468350       801.8746 
 339   0.0000      29.519813       803.2749 
 340   0.0000      29.592028       805.2400 
 341   0.0000      29.743294       809.3562 
 342   0.0000      29.818910       811.4138 
 343   0.0000      29.965182       815.3941 
 344   0.0000      29.982267       815.8590 
 345   0.0000      30.024652       817.0123 
 346   0.0000      30.094836       818.9221 
 347   0.0000      36.255045       986.5499 
 348   0.0000      36.280734       987.2490 
 349   0.0000      36.491521       992.9848 
 350   0.0000      36.520231       993.7660 
 351   0.0000      36.524090       993.8710 
 352   0.0000      36.532652       994.1040 
 353   0.0000      36.540158       994.3082 
 354   0.0000      36.548085       994.5239 
 355   0.0000      36.563208       994.9355 
 356   0.0000      36.605904       996.0973 
 357   0.0000      36.635557       996.9042 
 358   0.0000      36.645145       997.1651 
 359   0.0000      36.665531       997.7198 
 360   0.0000      36.688580       998.3470 
 361   0.0000      36.705314       998.8024 
 362   0.0000      36.772402      1000.6279 
 363   0.0000      36.780893      1000.8590 
 364   0.0000      36.817264      1001.8487 
 365   0.0000      36.826873      1002.1102 
 366   0.0000      40.941869      1114.0849 
 367   0.0000      41.150444      1119.7605 
 368   0.0000      41.168746      1120.2585 
 369   0.0000      53.516488      1456.2577 
 370   0.0000      53.541318      1456.9333 

                 SPIN DOWN ORBITALS
  NO   OCC          E(Eh)            E(eV) 
   0   1.0000     -19.215161      -522.8711 
   1   1.0000     -19.212028      -522.7859 
   2   1.0000     -14.631279      -398.1373 
   3   1.0000     -14.463332      -393.5673 
   4   1.0000     -14.458784      -393.4435 
   5   1.0000     -10.402313      -283.0613 
   6   1.0000     -10.398941      -282.9696 
   7   1.0000     -10.398293      -282.9519 
   8   1.0000     -10.351718      -281.6846 
   9   1.0000     -10.349829      -281.6332 
  10   1.0000     -10.314806      -280.6801 
  11   1.0000     -10.312900      -280.6283 
  12   1.0000     -10.303260      -280.3660 
  13   1.0000     -10.284972      -279.8683 
  14   1.0000      -1.176915       -32.0255 
  15   1.0000      -1.141006       -31.0483 
  16   1.0000      -1.130175       -30.7536 
  17   1.0000      -1.025156       -27.8959 
  18   1.0000      -1.022007       -27.8102 
  19   1.0000      -0.944415       -25.6988 
  20   1.0000      -0.894118       -24.3302 
  21   1.0000      -0.843816       -22.9614 
  22   1.0000      -0.822293       -22.3757 
  23   1.0000      -0.803877       -21.8746 
  24   1.0000      -0.769643       -20.9431 
  25   1.0000      -0.764628       -20.8066 
  26   1.0000      -0.752679       -20.4815 
  27   1.0000      -0.697699       -18.9854 
  28   1.0000      -0.688522       -18.7356 
  29   1.0000      -0.664516       -18.0824 
  30   1.0000      -0.654992       -17.8232 
  31   1.0000      -0.635853       -17.3025 
  32   1.0000      -0.615013       -16.7354 
  33   1.0000      -0.588914       -16.0252 
  34   1.0000      -0.576542       -15.6885 
  35   1.0000      -0.567321       -15.4376 
  36   1.0000      -0.549579       -14.9548 
  37   1.0000      -0.547942       -14.9103 
  38   1.0000      -0.543776       -14.7969 
  39   1.0000      -0.535305       -14.5664 
  40   1.0000      -0.528368       -14.3776 
  41   1.0000      -0.521464       -14.1897 
  42   1.0000      -0.507017       -13.7966 
  43   1.0000      -0.496647       -13.5145 
  44   1.0000      -0.494614       -13.4591 
  45   1.0000      -0.486754       -13.2453 
  46   1.0000      -0.481418       -13.1000 
  47   1.0000      -0.470476       -12.8023 
  48   1.0000      -0.465056       -12.6548 
  49   1.0000      -0.450128       -12.2486 
  50   1.0000      -0.366687        -9.9780 
  51   1.0000      -0.365046        -9.9334 
  52   1.0000      -0.358377        -9.7519 
  53   1.0000      -0.352238        -9.5849 
  54   0.0000      -0.184093        -5.0094 
  55   0.0000      -0.172506        -4.6941 
  56   0.0000      -0.102339        -2.7848 
  57   0.0000      -0.098851        -2.6899 
  58   0.0000      -0.091223        -2.4823 
  59   0.0000      -0.078538        -2.1371 
  60   0.0000      -0.073945        -2.0121 
  61   0.0000      -0.069073        -1.8796 
  62   0.0000      -0.060463        -1.6453 
  63   0.0000      -0.054493        -1.4828 
  64   0.0000      -0.049340        -1.3426 
  65   0.0000      -0.032949        -0.8966 
  66   0.0000      -0.028470        -0.7747 
  67   0.0000      -0.022620        -0.6155 
  68   0.0000      -0.015401        -0.4191 
  69   0.0000      -0.005257        -0.1430 
  70   0.0000       0.012549         0.3415 
  71   0.0000       0.019154         0.5212 
  72   0.0000       0.033611         0.9146 
  73   0.0000       0.039975         1.0878 
  74   0.0000       0.048745         1.3264 
  75   0.0000       0.054841         1.4923 
  76   0.0000       0.064861         1.7650 
  77   0.0000       0.068221         1.8564 
  78   0.0000       0.070922         1.9299 
  79   0.0000       0.074089         2.0161 
  80   0.0000       0.079970         2.1761 
  81   0.0000       0.088841         2.4175 
  82   0.0000       0.097323         2.6483 
  83   0.0000       0.103026         2.8035 
  84   0.0000       0.103428         2.8144 
  85   0.0000       0.114961         3.1283 
  86   0.0000       0.121021         3.2931 
  87   0.0000       0.129387         3.5208 
  88   0.0000       0.134787         3.6677 
  89   0.0000       0.140031         3.8104 
  90   0.0000       0.148869         4.0509 
  91   0.0000       0.155795         4.2394 
  92   0.0000       0.164709         4.4820 
  93   0.0000       0.166954         4.5431 
  94   0.0000       0.175901         4.7865 
  95   0.0000       0.184334         5.0160 
  96   0.0000       0.189864         5.1665 
  97   0.0000       0.196077         5.3355 
  98   0.0000       0.200892         5.4666 
  99   0.0000       0.207940         5.6583 
 100   0.0000       0.215165         5.8549 
 101   0.0000       0.222945         6.0666 
 102   0.0000       0.225243         6.1292 
 103   0.0000       0.228661         6.2222 
 104   0.0000       0.237535         6.4637 
 105   0.0000       0.246242         6.7006 
 106   0.0000       0.256480         6.9792 
 107   0.0000       0.261178         7.1070 
 108   0.0000       0.277002         7.5376 
 109   0.0000       0.279166         7.5965 
 110   0.0000       0.287950         7.8355 
 111   0.0000       0.304793         8.2939 
 112   0.0000       0.310913         8.4604 
 113   0.0000       0.320773         8.7287 
 114   0.0000       0.336002         9.1431 
 115   0.0000       0.336891         9.1673 
 116   0.0000       0.345269         9.3952 
 117   0.0000       0.355555         9.6751 
 118   0.0000       0.363416         9.8890 
 119   0.0000       0.373899        10.1743 
 120   0.0000       0.379963        10.3393 
 121   0.0000       0.396112        10.7788 
 122   0.0000       0.404155        10.9976 
 123   0.0000       0.409555        11.1446 
 124   0.0000       0.417073        11.3491 
 125   0.0000       0.435221        11.8430 
 126   0.0000       0.452344        12.3089 
 127   0.0000       0.453611        12.3434 
 128   0.0000       0.461192        12.5497 
 129   0.0000       0.470159        12.7937 
 130   0.0000       0.484437        13.1822 
 131   0.0000       0.500084        13.6080 
 132   0.0000       0.535987        14.5850 
 133   0.0000       0.551988        15.0203 
 134   0.0000       0.558520        15.1981 
 135   0.0000       0.568904        15.4807 
 136   0.0000       0.573911        15.6169 
 137   0.0000       0.613820        16.7029 
 138   0.0000       0.620648        16.8887 
 139   0.0000       0.652193        17.7471 
 140   0.0000       0.658526        17.9194 
 141   0.0000       0.670011        18.2319 
 142   0.0000       0.685957        18.6658 
 143   0.0000       0.694443        18.8967 
 144   0.0000       0.703583        19.1455 
 145   0.0000       0.716093        19.4859 
 146   0.0000       0.726011        19.7558 
 147   0.0000       0.737622        20.0717 
 148   0.0000       0.747737        20.3470 
 149   0.0000       0.753007        20.4904 
 150   0.0000       0.759389        20.6640 
 151   0.0000       0.767710        20.8904 
 152   0.0000       0.774896        21.0860 
 153   0.0000       0.778865        21.1940 
 154   0.0000       0.788612        21.4592 
 155   0.0000       0.789918        21.4948 
 156   0.0000       0.797544        21.7023 
 157   0.0000       0.801439        21.8083 
 158   0.0000       0.804204        21.8835 
 159   0.0000       0.824879        22.4461 
 160   0.0000       0.835398        22.7323 
 161   0.0000       0.837947        22.8017 
 162   0.0000       0.847810        23.0701 
 163   0.0000       0.860418        23.4132 
 164   0.0000       0.863480        23.4965 
 165   0.0000       0.875131        23.8135 
 166   0.0000       0.891410        24.2565 
 167   0.0000       0.897092        24.4111 
 168   0.0000       0.911913        24.8144 
 169   0.0000       0.918720        24.9996 
 170   0.0000       0.931111        25.3368 
 171   0.0000       0.942285        25.6409 
 172   0.0000       0.945700        25.7338 
 173   0.0000       0.955329        25.9958 
 174   0.0000       0.969483        26.3810 
 175   0.0000       0.983857        26.7721 
 176   0.0000       1.006964        27.4009 
 177   0.0000       1.037840        28.2411 
 178   0.0000       1.043989        28.4084 
 179   0.0000       1.055106        28.7109 
 180   0.0000       1.057297        28.7705 
 181   0.0000       1.073482        29.2109 
 182   0.0000       1.097499        29.8645 
 183   0.0000       1.113374        30.2965 
 184   0.0000       1.114606        30.3300 
 185   0.0000       1.124833        30.6082 
 186   0.0000       1.138463        30.9791 
 187   0.0000       1.172877        31.9156 
 188   0.0000       1.190013        32.3819 
 189   0.0000       1.206820        32.8392 
 190   0.0000       1.213725        33.0271 
 191   0.0000       1.232144        33.5284 
 192   0.0000       1.243173        33.8285 
 193   0.0000       1.257943        34.2304 
 194   0.0000       1.271460        34.5982 
 195   0.0000       1.298946        35.3461 
 196   0.0000       1.304261        35.4907 
 197   0.0000       1.320232        35.9253 
 198   0.0000       1.328820        36.1590 
 199   0.0000       1.339120        36.4393 
 200   0.0000       1.343268        36.5522 
 201   0.0000       1.354988        36.8711 
 202   0.0000       1.377443        37.4821 
 203   0.0000       1.391706        37.8702 
 204   0.0000       1.401330        38.1321 
 205   0.0000       1.407844        38.3094 
 206   0.0000       1.419271        38.6203 
 207   0.0000       1.421439        38.6793 
 208   0.0000       1.436256        39.0825 
 209   0.0000       1.445499        39.3340 
 210   0.0000       1.452594        39.5271 
 211   0.0000       1.465026        39.8654 
 212   0.0000       1.473571        40.0979 
 213   0.0000       1.495545        40.6959 
 214   0.0000       1.498950        40.7885 
 215   0.0000       1.507924        41.0327 
 216   0.0000       1.515337        41.2344 
 217   0.0000       1.524113        41.4732 
 218   0.0000       1.531328        41.6696 
 219   0.0000       1.546774        42.0899 
 220   0.0000       1.555899        42.3382 
 221   0.0000       1.563399        42.5422 
 222   0.0000       1.571578        42.7648 
 223   0.0000       1.586466        43.1699 
 224   0.0000       1.594196        43.3803 
 225   0.0000       1.610651        43.8281 
 226   0.0000       1.613664        43.9100 
 227   0.0000       1.618915        44.0529 
 228   0.0000       1.626564        44.2611 
 229   0.0000       1.644435        44.7473 
 230   0.0000       1.647335        44.8263 
 231   0.0000       1.667029        45.3622 
 232   0.0000       1.679473        45.7008 
 233   0.0000       1.706626        46.4396 
 234   0.0000       1.714711        46.6597 
 235   0.0000       1.725518        46.9537 
 236   0.0000       1.737652        47.2839 
 237   0.0000       1.745161        47.4883 
 238   0.0000       1.754747        47.7491 
 239   0.0000       1.770709        48.1835 
 240   0.0000       1.779369        48.4191 
 241   0.0000       1.785658        48.5902 
 242   0.0000       1.801708        49.0270 
 243   0.0000       1.829990        49.7965 
 244   0.0000       1.870105        50.8882 
 245   0.0000       1.889984        51.4291 
 246   0.0000       1.902969        51.7824 
 247   0.0000       1.916263        52.1442 
 248   0.0000       1.932716        52.5919 
 249   0.0000       1.952806        53.1386 
 250   0.0000       1.963003        53.4160 
 251   0.0000       1.969463        53.5918 
 252   0.0000       1.976132        53.7733 
 253   0.0000       1.998272        54.3757 
 254   0.0000       2.007284        54.6210 
 255   0.0000       2.033771        55.3417 
 256   0.0000       2.063875        56.1609 
 257   0.0000       2.089196        56.8499 
 258   0.0000       2.106375        57.3174 
 259   0.0000       2.113768        57.5185 
 260   0.0000       2.144798        58.3629 
 261   0.0000       2.156910        58.6925 
 262   0.0000       2.171340        59.0852 
 263   0.0000       2.179180        59.2985 
 264   0.0000       2.193546        59.6894 
 265   0.0000       2.204657        59.9918 
 266   0.0000       2.228362        60.6368 
 267   0.0000       2.254341        61.3437 
 268   0.0000       2.261308        61.5333 
 269   0.0000       2.270238        61.7763 
 270   0.0000       2.285535        62.1926 
 271   0.0000       2.296187        62.4824 
 272   0.0000       2.303987        62.6947 
 273   0.0000       2.311823        62.9079 
 274   0.0000       2.330590        63.4186 
 275   0.0000       2.349006        63.9197 
 276   0.0000       2.352209        64.0069 
 277   0.0000       2.364177        64.3325 
 278   0.0000       2.390188        65.0403 
 279   0.0000       2.401872        65.3583 
 280   0.0000       2.412482        65.6470 
 281   0.0000       2.417132        65.7735 
 282   0.0000       2.423013        65.9335 
 283   0.0000       2.425262        65.9947 
 284   0.0000       2.434719        66.2521 
 285   0.0000       2.456774        66.8522 
 286   0.0000       2.511861        68.3512 
 287   0.0000       2.536311        69.0165 
 288   0.0000       2.573659        70.0328 
 289   0.0000       2.584074        70.3162 
 290   0.0000       2.586720        70.3882 
 291   0.0000       2.634502        71.6885 
 292   0.0000       2.639826        71.8333 
 293   0.0000       2.643016        71.9201 
 294   0.0000       2.673948        72.7618 
 295   0.0000       2.683436        73.0200 
 296   0.0000       2.734569        74.4114 
 297   0.0000       2.876351        78.2695 
 298   0.0000       2.927525        79.6620 
 299   0.0000       2.991944        81.4149 
 300   0.0000       3.010371        81.9164 
 301   0.0000       3.254195        88.5512 
 302   0.0000       3.298947        89.7689 
 303   0.0000       3.327767        90.5532 
 304   0.0000       3.343386        90.9782 
 305   0.0000       4.653182       126.6195 
 306   0.0000       4.686231       127.5188 
 307   0.0000       4.873119       132.6043 
 308   0.0000       4.886530       132.9692 
 309   0.0000       4.902041       133.3913 
 310   0.0000       4.904622       133.4616 
 311   0.0000       4.921411       133.9184 
 312   0.0000       4.931372       134.1895 
 313   0.0000       4.943130       134.5094 
 314   0.0000       4.961065       134.9974 
 315   0.0000       4.986335       135.6851 
 316   0.0000       5.022511       136.6695 
 317   0.0000       5.031824       136.9229 
 318   0.0000       5.080907       138.2585 
 319   0.0000       5.117104       139.2435 
 320   0.0000       5.142081       139.9231 
 321   0.0000       5.156192       140.3071 
 322   0.0000       5.173831       140.7871 
 323   0.0000       5.188188       141.1778 
 324   0.0000       5.232659       142.3879 
 325   0.0000       5.242365       142.6520 
 326   0.0000       5.268308       143.3579 
 327   0.0000       5.331563       145.0792 
 328   0.0000       5.500788       149.6840 
 329   0.0000       5.552611       151.0942 
 330   0.0000       5.614678       152.7832 
 331   0.0000       5.625905       153.0887 
 332   0.0000       5.696854       155.0193 
 333   0.0000       7.011612       190.7957 
 334   0.0000       7.211312       196.2298 
 335   0.0000       7.228440       196.6959 
 336   0.0000       8.978501       244.3174 
 337   0.0000       9.007046       245.0942 
 338   0.0000      29.472427       801.9855 
 339   0.0000      29.520406       803.2911 
 340   0.0000      29.594829       805.3162 
 341   0.0000      29.748264       809.4914 
 342   0.0000      29.820449       811.4557 
 343   0.0000      29.966958       815.4424 
 344   0.0000      29.982834       815.8744 
 345   0.0000      30.027650       817.0939 
 346   0.0000      30.096595       818.9700 
 347   0.0000      36.254943       986.5472 
 348   0.0000      36.280799       987.2507 
 349   0.0000      36.497747       993.1542 
 350   0.0000      36.520325       993.7686 
 351   0.0000      36.524259       993.8756 
 352   0.0000      36.535305       994.1762 
 353   0.0000      36.540064       994.3057 
 354   0.0000      36.549450       994.5611 
 355   0.0000      36.570068       995.1221 
 356   0.0000      36.604529       996.0599 
 357   0.0000      36.636931       996.9416 
 358   0.0000      36.642612       997.0962 
 359   0.0000      36.665091       997.7078 
 360   0.0000      36.689082       998.3607 
 361   0.0000      36.705177       998.7987 
 362   0.0000      36.776942      1000.7515 
 363   0.0000      36.785480      1000.9838 
 364   0.0000      36.817476      1001.8545 
 365   0.0000      36.826888      1002.1106 
 366   0.0000      40.942199      1114.0939 
 367   0.0000      41.150486      1119.7617 
 368   0.0000      41.168762      1120.2590 
 369   0.0000      53.516506      1456.2582 
 370   0.0000      53.541349      1456.9342 

                    ********************************
                    * MULLIKEN POPULATION ANALYSIS *
                    ********************************

--------------------------------------------
MULLIKEN ATOMIC CHARGES AND SPIN POPULATIONS
--------------------------------------------
   0 N :   -0.086835    0.003821
   1 C :   -0.085286    0.022436
   2 C :    0.067952   -0.003360
   3 O :   -0.319824    0.001545
   4 C :   -0.285135   -0.057774
   5 C :   -0.084486    0.996049
   6 C :   -0.316976   -0.049879
   7 C :   -0.242246    0.049967
   8 N :   -0.385347    0.007760
   9 H :    0.157731    0.022554
  10 H :    0.163300    0.005052
  11 H :    0.206362   -0.002199
  12 H :    0.251601   -0.002360
  13 H :    0.335090    0.000341
  14 H :    0.332431    0.000106
  15 H :    0.261660    0.000377
  16 C :    0.161648   -0.002576
  17 N :   -0.097017    0.001593
  18 H :    0.236208    0.000081
  19 O :   -0.371462    0.000078
  20 H :    0.329770   -0.000286
  21 C :   -0.443893   -0.000084
  22 H :    0.181703    0.000006
  23 H :    0.167582   -0.000002
  24 H :    0.201628    0.000033
  25 C :   -0.531433    0.000721
  26 H :    0.166604   -0.000018
  27 H :    0.203981   -0.000002
  28 H :    0.161977    0.000013
  29 H :    0.167729   -0.000314
  30 H :    0.156105    0.047505
  31 H :    0.171459    0.006988
  32 H :    0.167419   -0.048171
Sum of atomic charges         :    1.0000000
Sum of atomic spin populations:    1.0000000

-----------------------------------------------------
MULLIKEN REDUCED ORBITAL CHARGES AND SPIN POPULATIONS
-----------------------------------------------------
CHARGE
[...]
                -0.0626               1.6580              -3.2955

 A(FC)          -1.6423              -1.6423              -1.6423
 A(SD)           4.0381              -1.7022              -2.3358
 A(ORB+DIA)      0.0008              -0.0006              -0.0002    A(PC) =  -0.0000
 A(ORB)          0.0005              -0.0009              -0.0005    A(PC) =  -0.0003
 A(DIA)          0.0003               0.0003               0.0003    A(PC) =   0.0003
             ----------           ----------           ----------
 A(Tot)          2.3965              -3.3452              -3.9784    A(iso)=   -1.6424
 Orientation: 
  X           0.1308674           -0.8285745            0.5443694
  Y           0.9521583           -0.0479117           -0.3018261
  Z           0.2761671            0.5578250            0.7826640

Notes:  (1) The A matrix conforms to the "SAI" spin Hamiltonian convention.
        (2) Tensor is right-handed.

 -----------------------------------------------------------
 Nucleus  30H : A:ISTP=    1 I=  0.5 P=533.5514 MHz/au**3
                Q:ISTP=    2 I=  1.0 Q=  0.0029 barn     
 -----------------------------------------------------------
 Solving for nuclear perturbation:
Forming RHS of the CP-SCF equations         ... 
Calc. nucleus orbit integrals (SHARK)       ... done

------------------------------------------------------------------------------
                           ORCA CP-SCF CALCULATION
------------------------------------------------------------------------------

Input orbitals are from        ... epr_info.gbw
Input Perturbation             ... epr_info.pin.tmp
Wavefunction output            ... epr_info.pout.tmp
Perturbation mode              ... Imaginary perturbation
Solver                         ... POPLE
Max. number of iterations      ... 64
Convergence tolerance          ... 1.000e-03
Integral handling              ... Direct
DFT GridXC                     ... 1
COSX GridX                     ... 1
COSX IntAccX                   ... 3.067
COSX Algorithm                 ... Auto
Number of perturbations        ... 3
Number of operators            ... 2
Orbital ranges used for CP-SCF:
 Operator 0:  Orbitals   0... 54  to  55...370
 Operator 1:  Orbitals   0... 53  to  54...370
Variables per perturbation     ... 34498
DFT calculation                         ... on
XC functional terms                     ... off
Hybrid DFT                              ... on
   Exchange mixing (SCF)                ...  0.200
   Exchange mixing (CP-SCF)             ...  0.200
   GGA exch. scaling(SCF)               ...  0.720
   GGA exch. scaling (CP-SCF)           ...  0.720
   GGA corr. scaling (SCF)              ...  0.810
   GGA corr. scaling (CP-SCF)           ...  0.810

CP-SCF GRID
-----------

General Integration Accuracy     IntAcc      ... 3.467
Radial Grid Type                 RadialGrid  ... OptM3 with GC (2021)
Angular Grid (max. ang.)         AngularGrid ... 1 (Lebedev-50)
Angular grid pruning method      GridPruning ... 4 (adaptive)
Weight generation scheme         WeightScheme... Becke
Basis function cutoff            BFCut       ... 1.0000e-10
Integration weight cutoff        WCut        ... 1.0000e-14
Angular grids for H and He will be reduced by one unit
Partially contracted basis set               ... off
Rotationally invariant grid construction     ... off

Total number of grid points                  ...    20320
Total number of batches                      ...      332
Average number of points per batch           ...       61
Average number of grid points per atom       ...      616

CP-SCF GRIDX
------------

General Integration Accuracy     IntAcc      ... 3.067
Radial Grid Type                 RadialGrid  ... OptM3 with GC (2021)
Angular Grid (max. ang.)         AngularGrid ... 1 (Lebedev-50)
Angular grid pruning method      GridPruning ... 4 (adaptive)
Weight generation scheme         WeightScheme... Becke
Basis function cutoff            BFCut       ... 1.0000e-10
Integration weight cutoff        WCut        ... 1.0000e-14
Angular grids for H and He will be reduced by one unit
Partially contracted basis set               ... on
Rotationally invariant grid construction     ... off

Total number of grid points                  ...     9623
Total number of batches                      ...      169
Average number of points per batch           ...       56
Average number of grid points per atom       ...      292

Memory available               ... 918.4 MB
Memory needed per perturbation ...   8.2 MB
Perturbations treated per batch... 3
Number of batches              ... 1
     CP-SCF ITERATION   0:   4.1588e-02 (   0.5 sec   0/  3 done)
     CP-SCF ITERATION   1:   1.1380e-03 (   0.5 sec   2/  3 done)
     CP-SCF ITERATION   2:   1.0279e-04 (   0.4 sec   3/  3 done)
                    *** THE CP-SCF HAS CONVERGED ***

Forming final perturbed densities           ... done
Transforming perturbed density to AO basis  ... done

 Raw HFC matrix (all values in MHz): 
 -----------------------------------
               124.4622              -4.9989              -1.1467
                -5.0006             129.8970               3.5317
                -1.1479               3.5313             120.6371

 A(FC)         124.9983             124.9983             124.9983
 A(SD)          -5.6447              -3.2209               8.8656
 A(ORB+DIA)     -0.0009               0.0003               0.0019    A(PC) =   0.0004
 A(ORB)         -0.0011              -0.0001               0.0014    A(PC) =   0.0001
 A(DIA)          0.0002               0.0003               0.0006    A(PC) =   0.0004
             ----------           ----------           ----------
 A(Tot)        119.3528             121.7777             133.8658    A(iso)=  124.9988
 Orientation: 
  X          -0.1744410            0.8610659           -0.4776357
  Y          -0.3860890            0.3864168            0.8376260
  Z           0.9058176            0.3305262            0.2650411

Notes:  (1) The A matrix conforms to the "SAI" spin Hamiltonian convention.
        (2) Tensor is right-handed.

 -----------------------------------------------------------
 Nucleus  31H : A:ISTP=    1 I=  0.5 P=533.5514 MHz/au**3
                Q:ISTP=    2 I=  1.0 Q=  0.0029 barn     
 -----------------------------------------------------------
 Solving for nuclear perturbation:
Forming RHS of the CP-SCF equations         ... 
Calc. nucleus orbit integrals (SHARK)       ... done

------------------------------------------------------------------------------
                           ORCA CP-SCF CALCULATION
------------------------------------------------------------------------------

Input orbitals are from        ... epr_info.gbw
Input Perturbation             ... epr_info.pin.tmp
Wavefunction output            ... epr_info.pout.tmp
Perturbation mode              ... Imaginary perturbation
Solver                         ... POPLE
Max. number of iterations      ... 64
Convergence tolerance          ... 1.000e-03
Integral handling              ... Direct
DFT GridXC                     ... 1
COSX GridX                     ... 1
COSX IntAccX                   ... 3.067
COSX Algorithm                 ... Auto
Number of perturbations        ... 3
Number of operators            ... 2
Orbital ranges used for CP-SCF:
 Operator 0:  Orbitals   0... 54  to  55...370
 Operator 1:  Orbitals   0... 53  to  54...370
Variables per perturbation     ... 34498
DFT calculation                         ... on
XC functional terms                     ... off
Hybrid DFT                              ... on
   Exchange mixing (SCF)                ...  0.200
   Exchange mixing (CP-SCF)             ...  0.200
   GGA exch. scaling(SCF)               ...  0.720
   GGA exch. scaling (CP-SCF)           ...  0.720
   GGA corr. scaling (SCF)              ...  0.810
   GGA corr. scaling (CP-SCF)           ...  0.810

CP-SCF GRID
-----------

General Integration Accuracy     IntAcc      ... 3.467
Radial Grid Type                 RadialGrid  ... OptM3 with GC (2021)
Angular Grid (max. ang.)         AngularGrid ... 1 (Lebedev-50)
Angular grid pruning method      GridPruning ... 4 (adaptive)
Weight generation scheme         WeightScheme... Becke
Basis function cutoff            BFCut       ... 1.0000e-10
Integration weight cutoff        WCut        ... 1.0000e-14
Angular grids for H and He will be reduced by one unit
Partially contracted basis set               ... off
Rotationally invariant grid construction     ... off

Total number of grid points                  ...    20320
Total number of batches                      ...      332
Average number of points per batch           ...       61
Average number of grid points per atom       ...      616

CP-SCF GRIDX
------------

General Integration Accuracy     IntAcc      ... 3.067
Radial Grid Type                 RadialGrid  ... OptM3 with GC (2021)
Angular Grid (max. ang.)         AngularGrid ... 1 (Lebedev-50)
Angular grid pruning method      GridPruning ... 4 (adaptive)
Weight generation scheme         WeightScheme... Becke
Basis function cutoff            BFCut       ... 1.0000e-10
Integration weight cutoff        WCut        ... 1.0000e-14
Angular grids for H and He will be reduced by one unit
Partially contracted basis set               ... on
Rotationally invariant grid construction     ... off

Total number of grid points                  ...     9623
Total number of batches                      ...      169
Average number of points per batch           ...       56
Average number of grid points per atom       ...      292

Memory available               ... 918.0 MB
Memory needed per perturbation ...   8.2 MB
Perturbations treated per batch... 3
Number of batches              ... 1
     CP-SCF ITERATION   0:   4.3152e-02 (   0.5 sec   0/  3 done)
     CP-SCF ITERATION   1:   1.4236e-03 (   0.5 sec   1/  3 done)
     CP-SCF ITERATION   2:   1.1332e-04 (   0.4 sec   3/  3 done)
                    *** THE CP-SCF HAS CONVERGED ***

Forming final perturbed densities           ... done
Transforming perturbed density to AO basis  ... done

 Raw HFC matrix (all values in MHz): 
 -----------------------------------
                15.0997              -0.4448              -1.2030
                -0.4445              19.1426               6.4574
                -1.2026               6.4621              22.7175

 A(FC)          18.9838              18.9838              18.9838
 A(SD)          -4.9122              -3.8502               8.7625
 A(ORB+DIA)      0.0026               0.0004               0.0052    A(PC) =   0.0027
 A(ORB)          0.0018              -0.0002               0.0044    A(PC) =   0.0020
 A(DIA)          0.0009               0.0006               0.0008    A(PC) =   0.0008
             ----------           ----------           ----------
 A(Tot)         14.0742              15.1340              27.7515    A(iso)=   18.9866
 Orientation: 
  X          -0.3795838            0.9201000            0.0966031
  Y           0.7149814            0.3580130           -0.6005233
  Z          -0.5871267           -0.1588795           -0.7937503

Notes:  (1) The A matrix conforms to the "SAI" spin Hamiltonian convention.
        (2) Tensor is right-handed.

 -----------------------------------------------------------
 Nucleus  32H : A:ISTP=    1 I=  0.5 P=533.5514 MHz/au**3
                Q:ISTP=    2 I=  1.0 Q=  0.0029 barn     
 -----------------------------------------------------------
 Solving for nuclear perturbation:
Forming RHS of the CP-SCF equations         ... 
Calc. nucleus orbit integrals (SHARK)       ... done

------------------------------------------------------------------------------
                           ORCA CP-SCF CALCULATION
------------------------------------------------------------------------------

Input orbitals are from        ... epr_info.gbw
Input Perturbation             ... epr_info.pin.tmp
Wavefunction output            ... epr_info.pout.tmp
Perturbation mode              ... Imaginary perturbation
Solver                         ... POPLE
Max. number of iterations      ... 64
Convergence tolerance          ... 1.000e-03
Integral handling              ... Direct
DFT GridXC                     ... 1
COSX GridX                     ... 1
COSX IntAccX                   ... 3.067
COSX Algorithm                 ... Auto
Number of perturbations        ... 3
Number of operators            ... 2
Orbital ranges used for CP-SCF:
 Operator 0:  Orbitals   0... 54  to  55...370
 Operator 1:  Orbitals   0... 53  to  54...370
Variables per perturbation     ... 34498
DFT calculation                         ... on
XC functional terms                     ... off
Hybrid DFT                              ... on
   Exchange mixing (SCF)                ...  0.200
   Exchange mixing (CP-SCF)             ...  0.200
   GGA exch. scaling(SCF)               ...  0.720
   GGA exch. scaling (CP-SCF)           ...  0.720
   GGA corr. scaling (SCF)              ...  0.810
   GGA corr. scaling (CP-SCF)           ...  0.810

CP-SCF GRID
-----------

General Integration Accuracy     IntAcc      ... 3.467
Radial Grid Type                 RadialGrid  ... OptM3 with GC (2021)
Angular Grid (max. ang.)         AngularGrid ... 1 (Lebedev-50)
Angular grid pruning method      GridPruning ... 4 (adaptive)
Weight generation scheme         WeightScheme... Becke
Basis function cutoff            BFCut       ... 1.0000e-10
Integration weight cutoff        WCut        ... 1.0000e-14
Angular grids for H and He will be reduced by one unit
Partially contracted basis set               ... off
Rotationally invariant grid construction     ... off

Total number of grid points                  ...    20320
Total number of batches                      ...      332
Average number of points per batch           ...       61
Average number of grid points per atom       ...      616

CP-SCF GRIDX
------------

General Integration Accuracy     IntAcc      ... 3.067
Radial Grid Type                 RadialGrid  ... OptM3 with GC (2021)
Angular Grid (max. ang.)         AngularGrid ... 1 (Lebedev-50)
Angular grid pruning method      GridPruning ... 4 (adaptive)
Weight generation scheme         WeightScheme... Becke
Basis function cutoff            BFCut       ... 1.0000e-10
Integration weight cutoff        WCut        ... 1.0000e-14
Angular grids for H and He will be reduced by one unit
Partially contracted basis set               ... on
Rotationally invariant grid construction     ... off

Total number of grid points                  ...     9623
Total number of batches                      ...      169
Average number of points per batch           ...       56
Average number of grid points per atom       ...      292

Memory available               ... 917.6 MB
Memory needed per perturbation ...   8.2 MB
Perturbations treated per batch... 3
Number of batches              ... 1
     CP-SCF ITERATION   0:   6.2406e-02 (   0.5 sec   0/  3 done)
     CP-SCF ITERATION   1:   2.1799e-03 (   0.5 sec   0/  3 done)
     CP-SCF ITERATION   2:   1.3702e-04 (   0.5 sec   3/  3 done)
                    *** THE CP-SCF HAS CONVERGED ***

Forming final perturbed densities           ... done
Transforming perturbed density to AO basis  ... done

 Raw HFC matrix (all values in MHz): 
 -----------------------------------
               -65.9260               0.6103              -8.2250
                 0.6116            -104.2162               3.8503
                -8.2221               3.8554             -28.4678

 A(FC)         -66.2148             -66.2148             -66.2148
 A(SD)          39.6345              -1.3828             -38.2518
 A(ORB+DIA)      0.0096              -0.0021               0.0269    A(PC) =   0.0114
 A(ORB)          0.0046               0.0007               0.0268    A(PC) =   0.0107
 A(DIA)          0.0050              -0.0028               0.0001    A(PC) =   0.0008
             ----------           ----------           ----------
 A(Tot)        -26.5707             -67.5997            -104.4396    A(iso)=  -66.2033
 Orientation: 
  X          -0.2036502           -0.9786642            0.0272575
  Y           0.0468928           -0.0375593           -0.9981935
  Z           0.9779201           -0.2020042            0.0535413

Notes:  (1) The A matrix conforms to the "SAI" spin Hamiltonian convention.
        (2) Tensor is right-handed.


--------------------------------------------------------------------------------
----------------------------------------------------------------------------
                           ORCA EULER ANGLE PROGRAM
----------------------------------------------------------------------------

Only g-tensor available        -->  using g-tensor as reference tensor

Reference tensor               ...  g

g-tensor ordering              ...  |g_min> --> |gx>
                                    |g_mid> --> |gy>
                                    |g_max> --> |gz>

A- and EFG-tensor ordering     ...  the axes |Ax>, |Qx>, |Ay>, etc. are assigned
                                    such that the Euler rotation is minimal. You
                                    can find the respective eigenvalues as Ax,
                                    EFGx, Ay, etc. in the tables below.
                                    The relation of |Ax>, |Ay>,  etc. to Amin, Amid, etc.
                                    (as printed in the ORCA EPR/NMR CALCULATION Output)
                                    is obtained in the detailed printout.

Euler rotation around          ...  z - y - z
   First rotation              -->  by alpha around z
   Second rotation             -->  by beta around y'
   Third rotation              -->  by gamma around z''
   Positive / Negative angle   -->  clockwise / counterclockwise rotation

Plot EFG-tensors                    (-)
Plot HFC-tensors                    (-)
Detailed Printout                   (-)

-------------------------------------------------------------------------
          Euler rotation of hyperfine tensor to g-tensor
-------------------------------------------------------------------------

-------------------------------------------------------------------
 Atom  |   Alpha    Beta    Gamma   |   Ax       Ay       Az 
       |          [degrees]         |           [MHz]         
-------------------------------------------------------------------
  0N      -45.0     20.9     21.5      -6.24     2.24    -8.77
  8N       67.7     21.4    -93.7      36.63    36.16    58.44
  9H      172.5     19.8   -131.4      52.41    52.61    65.96
 10H      -69.8     34.0     58.6       9.85    22.92     8.83
 11H      123.7     28.9   -155.9       2.50    -8.69    -5.76
 12H      -53.9     45.0     16.6      -8.13    -5.17     3.73
 13H       40.1     39.3    -25.9       0.21    -0.80     3.05
 14H       29.5     10.1    -65.8      -1.40    -2.61     1.76
 15H       14.3     37.9     14.9       4.85    -0.39    -0.49
 20H       46.3     45.1    -83.3      -2.43    -1.59     1.73
 29H      -11.5     41.5     -3.3      -3.35     2.40    -3.98
 30H     -162.8      1.6   -173.7     121.78   133.87   119.35
 31H       50.6     41.2    -46.4      15.13    27.75    14.07
 32H      -93.3     25.3     94.1     -67.60  -104.44   -26.57
-------------------------------------------------------------------


Maximum memory used throughout the entire EPRNMR-calculation: 141.7 MB

Timings for individual modules:

Sum of individual times         ...      450.477 sec (=   7.508 min)
GTO integral calculation        ...        3.606 sec (=   0.060 min)   0.8 %
Spin-Orbit-Coupling Matrices    ...        4.944 sec (=   0.082 min)   1.1 %
SCF iterations                  ...       25.240 sec (=   0.421 min)   5.6 %
EPR/NMR calculation             ...      416.688 sec (=   6.945 min)  92.5 %
                             ****ORCA TERMINATED NORMALLY****
TOTAL RUN TIME: 0 days 0 hours 7 minutes 33 seconds 185 msec
