
                                 *****************
                                 * O   R   C   A *
                                 *****************

                                            #,                                       
                                            ###                                      
                                            ####                                     
                                            #####                                    
                                            ######                                   
                                           ########,                                 
                                     ,,################,,,,,                         
                               ,,#################################,,                 
                          ,,##########################################,,             
                       ,#########################################, ''#####,          
                    ,#############################################,,   '####,        
                  ,##################################################,,,,####,       
                ,###########''''           ''''###############################       
              ,#####''   ,,,,##########,,,,          '''####'''          '####       
            ,##' ,,,,###########################,,,                        '##       
           ' ,,###''''                  '''############,,,                           
         ,,##''                                '''############,,,,        ,,,,,,###''
      ,#''                                            '''#######################'''  
     '                                                          ''''####''''         
             ,#######,   #######,   ,#######,      ##                                
            ,#'     '#,  ##    ##  ,#'     '#,    #''#        ######   ,####,        
            ##       ##  ##   ,#'  ##            #'  '#       #        #'  '#        
            ##       ##  #######   ##           ,######,      #####,   #    #        
            '#,     ,#'  ##    ##  '#,     ,#' ,#      #,         ##   #,  ,#        
             '#######'   ##     ##  '#######'  #'      '#     #####' # '####'        



                  #######################################################
                  #                        -***-                        #
                  #          Department of theory and spectroscopy      #
                  #    Directorship and core code : Frank Neese         #
                  #        Max Planck Institute fuer Kohlenforschung    #
                  #                Kaiser Wilhelm Platz 1               #
                  #                 D-45470 Muelheim/Ruhr               #
                  #                      Germany                        #
                  #                                                     #
                  #                  All rights reserved                #
                  #                        -***-                        #
                  #######################################################


                         Program Version 5.0.4 -  RELEASE  -


 With contributions from (in alphabetic order):
   Daniel Aravena         : Magnetic Suceptibility
   Michael Atanasov       : Ab Initio Ligand Field Theory (pilot matlab implementation)
   Alexander A. Auer      : GIAO ZORA, VPT2 properties, NMR spectrum
   Ute Becker             : Parallelization
   Giovanni Bistoni       : ED, misc. LED, open-shell LED, HFLD
   Martin Brehm           : Molecular dynamics
   Dmytro Bykov           : SCF Hessian
   Vijay G. Chilkuri      : MRCI spin determinant printing, contributions to CSF-ICE
   Dipayan Datta          : RHF DLPNO-CCSD density
   Achintya Kumar Dutta   : EOM-CC, STEOM-CC
   Dmitry Ganyushin       : Spin-Orbit,Spin-Spin,Magnetic field MRCI
   Miquel Garcia          : C-PCM and meta-GGA Hessian, CC/C-PCM, Gaussian charge scheme
   Yang Guo               : DLPNO-NEVPT2, F12-NEVPT2, CIM, IAO-localization
   Andreas Hansen         : Spin unrestricted coupled pair/coupled cluster methods
   Benjamin Helmich-Paris : MC-RPA, TRAH-SCF, COSX integrals
   Lee Huntington         : MR-EOM, pCC
   Robert Izsak           : Overlap fitted RIJCOSX, COSX-SCS-MP3, EOM
   Marcus Kettner         : VPT2
   Christian Kollmar      : KDIIS, OOCD, Brueckner-CCSD(T), CCSD density, CASPT2, CASPT2-K
   Simone Kossmann        : Meta GGA functionals, TD-DFT gradient, OOMP2, MP2 Hessian
   Martin Krupicka        : Initial AUTO-CI
   Lucas Lang             : DCDCAS
   Marvin Lechner         : AUTO-CI (C++ implementation), FIC-MRCC
   Dagmar Lenk            : GEPOL surface, SMD
   Dimitrios Liakos       : Extrapolation schemes; Compound Job, initial MDCI parallelization
   Dimitrios Manganas     : Further ROCIS development; embedding schemes
   Dimitrios Pantazis     : SARC Basis sets
   Anastasios Papadopoulos: AUTO-CI, single reference methods and gradients
   Taras Petrenko         : DFT Hessian,TD-DFT gradient, ASA, ECA, R-Raman, ABS, FL, XAS/XES, NRVS
   Peter Pinski           : DLPNO-MP2, DLPNO-MP2 Gradient
   Christoph Reimann      : Effective Core Potentials
   Marius Retegan         : Local ZFS, SOC
   Christoph Riplinger    : Optimizer, TS searches, QM/MM, DLPNO-CCSD(T), (RO)-DLPNO pert. Triples
   Tobias Risthaus        : Range-separated hybrids, TD-DFT gradient, RPA, STAB
   Michael Roemelt        : Original ROCIS implementation
   Masaaki Saitow         : Open-shell DLPNO-CCSD energy and density
   Barbara Sandhoefer     : DKH picture change effects
   Avijit Sen             : IP-ROCIS
   Kantharuban Sivalingam : CASSCF convergence, NEVPT2, FIC-MRCI
   Bernardo de Souza      : ESD, SOC TD-DFT
   Georgi Stoychev        : AutoAux, RI-MP2 NMR, DLPNO-MP2 response
   Willem Van den Heuvel  : Paramagnetic NMR
   Boris Wezisla          : Elementary symmetry handling
   Frank Wennmohs         : Technical directorship


 We gratefully acknowledge several colleagues who have allowed us to
 interface, adapt or use parts of their codes:
   Stefan Grimme, W. Hujo, H. Kruse, P. Pracht,  : VdW corrections, initial TS optimization,
                  C. Bannwarth, S. Ehlert          DFT functionals, gCP, sTDA/sTD-DF
   Ed Valeev, F. Pavosevic, A. Kumar             : LibInt (2-el integral package), F12 methods
   Garnet Chan, S. Sharma, J. Yang, R. Olivares  : DMRG
   Ulf Ekstrom                                   : XCFun DFT Library
   Mihaly Kallay                                 : mrcc  (arbitrary order and MRCC methods)
   Jiri Pittner, Ondrej Demel                    : Mk-CCSD
   Frank Weinhold                                : gennbo (NPA and NBO analysis)
   Christopher J. Cramer and Donald G. Truhlar   : smd solvation model
   Lars Goerigk                                  : TD-DFT with DH, B97 family of functionals
   V. Asgeirsson, H. Jonsson                     : NEB implementation
   FAccTs GmbH                                   : IRC, NEB, NEB-TS, DLPNO-Multilevel, CI-OPT
                                                   MM, QMMM, 2- and 3-layer-ONIOM, Crystal-QMMM,
                                                   LR-CPCM, SF, NACMEs, symmetry and pop. for TD-DFT,
                                                   nearIR, NL-DFT gradient (VV10), updates on ESD,
                                                   ML-optimized integration grids
   S Lehtola, MJT Oliveira, MAL Marques          : LibXC Library
   Liviu Ungur et al                             : ANISO software


 Your calculation uses the libint2 library for the computation of 2-el integrals
 For citations please refer to: http://libint.valeyev.net

 Your ORCA version has been built with support for libXC version: 5.1.0
 For citations please refer to: https://tddft.org/programs/libxc/

 This ORCA versions uses:
   CBLAS   interface :  Fast vector & matrix operations
   LAPACKE interface :  Fast linear algebra routines
   SCALAPACK package :  Parallel linear algebra routines
   Shared memory     :  Shared parallel matrices
   BLAS/LAPACK       :  OpenBLAS 0.3.15  USE64BITINT DYNAMIC_ARCH NO_AFFINITY Zen SINGLE_THREADED
        Core in use  :  Zen
   Copyright (c) 2011-2014, The OpenBLAS Project




***************************************
The coordinates will be read from file: opt.xyz
***************************************


XCFun DFT library Copyright 2009-2010 Ulf Ekstrom and contributors.
See http://admol.org/xcfun for more information.
This is free software; see the source code for copying conditions.
There is ABSOLUTELY NO WARRANTY; not even for MERCHANTABILITY or FITNESS FOR A PARTICULAR PURPOSE.
For details see the documentation.
Scientific users of this library should cite U. Ekstrom, L. Visscher, R. Bast, A. J. Thorvaldsen and K. Ruud;
J.Chem.Theor.Comp. 2010, DOI: 10.1021/ct100117s
XCFun Version 0.99 

================================================================================

----- Orbital basis set information -----
Your calculation utilizes the basis: def2-TZVP
   F. Weigend and R. Ahlrichs, Phys. Chem. Chem. Phys. 7, 3297 (2005).

----- AuxJ basis set information -----
Your calculation utilizes the auxiliary basis: def2/J
   F. Weigend, Phys. Chem. Chem. Phys. 8, 1057 (2006).

================================================================================
                                        WARNINGS
                       Please study these warnings very carefully!
================================================================================


WARNING: your system is open-shell and RHF/RKS was chosen
  ===> : WILL SWITCH to UHF/UKS


WARNING: Geometry Optimization
  ===> : Switching off AutoStart
         For restart on a previous wavefunction, please use MOREAD

WARNING: Minnesota functionals are quite sensitive to the integration grid.
         see SE Wheeler, KN Houk, JCTC 2010, 6, 395,
             N Mardirossian, M Head-Gordon, JCTC 2016, 12, 4303.
         DEFGRID3 seems to be a minimum grid for reliable results with these functionals!
  ===> : Please increase the integration grid!


INFO   : the flag for use of the SHARK integral package has been found!

================================================================================
                                       INPUT FILE
================================================================================
NAME = freq.inp
|  1> ! M062X def2-TZVP OPT FREQ
|  2> %pal nprocs 16 end
|  3> *XYZFile 1 2 opt.xyz
|  4> 
|  5>                          ****END OF INPUT****
================================================================================

                       *****************************
                       * Geometry Optimization Run *
                       *****************************

Geometry optimization settings:
Update method            Update   .... BFGS
Choice of coordinates    CoordSys .... Z-matrix Internals
Initial Hessian          InHess   .... Almoef's Model

Convergence Tolerances:
Energy Change            TolE     ....  5.0000e-06 Eh
Max. Gradient            TolMAXG  ....  3.0000e-04 Eh/bohr
RMS Gradient             TolRMSG  ....  1.0000e-04 Eh/bohr
Max. Displacement        TolMAXD  ....  4.0000e-03 bohr
RMS Displacement         TolRMSD  ....  2.0000e-03 bohr
Strict Convergence                ....  False
------------------------------------------------------------------------------
                        ORCA OPTIMIZATION COORDINATE SETUP
------------------------------------------------------------------------------

The optimization will be done in new redundant internal coordinates
Making redundant internal coordinates   ...  (new redundants) done
Evaluating the initial hessian          ...  (Almloef) done
Evaluating the coordinates              ...  done
Calculating the B-matrix                .... done
Calculating the G-matrix                .... done
Diagonalizing the G-matrix              .... done
Small eigenvalue found = 3.932e-03
Small eigenvalue found = 8.433e-03
Small eigenvalue found = 9.451e-03
Small eigenvalue found = 1.750e-02
Small eigenvalue found = 1.920e-02
The first mode is                       ....   67
The number of degrees of freedom        ....   93

    -----------------------------------------------------------------
                    Redundant Internal Coordinates


    -----------------------------------------------------------------
         Definition                    Initial Value    Approx d2E/dq
    -----------------------------------------------------------------
      1. B(C   1,N   0)                  1.4567         0.437998   
      2. B(C   2,C   1)                  1.5506         0.346318   
      3. B(O   3,C   2)                  1.2321         0.999506   
      4. B(C   4,C   1)                  1.5597         0.334935   
      5. B(C   5,C   4)                  1.5007         0.416059   
      6. B(C   6,C   5)                  1.5078         0.405385   
      7. B(C   7,C   6)                  1.5423         0.357131   
      8. B(N   8,C   7)                  1.5394         0.323256   
      9. B(H   9,C   6)                  1.1021         0.344489   
     10. B(H  10,C   6)                  1.0965         0.351567   
     11. B(H  11,C   7)                  1.0920         0.357464   
     12. B(H  12,C   7)                  1.0940         0.354791   
     13. B(H  13,N   8)                  1.0245         0.410280   
     14. B(H  14,N   8)                  1.0245         0.410243   
     15. B(H  15,N   0)                  1.0145         0.425689   
     16. B(C  16,N   0)                  1.3579         0.629615   
     17. B(N  17,C   2)                  1.3582         0.628984   
     18. B(H  18,N  17)                  1.0095         0.433462   
     19. B(O  19,C  16)                  1.2424         0.962503   
     20. B(H  20,N   8)                  1.0245         0.410327   
     21. B(C  21,N  17)                  1.4645         0.425609   
     22. B(H  22,C  21)                  1.0946         0.354050   
     23. B(H  23,C  21)                  1.0930         0.356166   
     24. B(H  24,C  21)                  1.0896         0.360585   
     25. B(C  25,C  16)                  1.5233         0.382952   
     26. B(H  26,C  25)                  1.0926         0.356723   
     27. B(H  27,C  25)                  1.0946         0.354060   
     28. B(H  28,C  25)                  1.0925         0.356760   
     29. B(H  29,C   1)                  1.0983         0.349234   
     30. B(H  30,C   4)                  1.1026         0.343842   
     31. B(H  31,C   4)                  1.0931         0.355984   
     32. B(H  32,C   5)                  1.0859         0.365548   
     33. A(C   1,N   0,H  15)          113.5951         0.337350   
     34. A(C   1,N   0,C  16)          126.2996         0.403832   
     35. A(H  15,N   0,C  16)          120.0327         0.358610   
     36. A(N   0,C   1,C   2)          105.5564         0.366275   
     37. A(N   0,C   1,H  29)          109.3403         0.329268   
     38. A(N   0,C   1,C   4)          114.7958         0.364185   
     39. A(C   2,C   1,C   4)          111.2880         0.352104   
     40. A(C   4,C   1,H  29)          106.6517         0.316988   
     41. A(C   2,C   1,H  29)          109.1369         0.318719   
     42. A(O   3,C   2,N  17)          124.2323         0.468385   
     43. A(C   1,C   2,N  17)          115.3753         0.389942   
     44. A(C   1,C   2,O   3)          120.3712         0.423203   
     45. A(C   1,C   4,H  30)          106.9533         0.316187   
     46. A(H  30,C   4,H  31)          106.5537         0.288221   
     47. A(C   5,C   4,H  31)          110.2426         0.329499   
     48. A(C   1,C   4,C   5)          115.5982         0.363260   
     49. A(C   1,C   4,H  31)          107.4725         0.317978   
     50. A(C   5,C   4,H  30)          109.5967         0.327618   
     51. A(C   4,C   5,C   6)          120.0566         0.375370   
     52. A(C   4,C   5,H  32)          120.5166         0.330947   
     53. A(C   6,C   5,H  32)          119.3787         0.329528   
     54. A(C   5,C   6,C   7)          109.9397         0.365640   
     55. A(H   9,C   6,H  10)          107.7173         0.287743   
     56. A(C   7,C   6,H  10)          110.0533         0.320672   
     57. A(C   5,C   6,H  10)          110.9435         0.327414   
     58. A(C   7,C   6,H   9)          108.6611         0.319608   
     59. A(C   5,C   6,H   9)          109.4669         0.326319   
     60. A(N   8,C   7,H  11)          105.8917         0.314489   
     61. A(C   6,C   7,H  11)          111.9395         0.321546   
     62. A(H  11,C   7,H  12)          109.1657         0.289828   
     63. A(C   6,C   7,N   8)          111.0121         0.349659   
     64. A(N   8,C   7,H  12)          106.3479         0.314106   
     65. A(C   6,C   7,H  12)          112.1461         0.321152   
     66. A(H  14,N   8,H  20)          107.6532         0.298158   
     67. A(H  13,N   8,H  20)          108.2091         0.298162   
     68. A(C   7,N   8,H  20)          111.6379         0.318928   
     69. A(H  13,N   8,H  14)          107.7101         0.298153   
     70. A(C   7,N   8,H  14)          110.3061         0.318917   
     71. A(C   7,N   8,H  13)          111.1688         0.318922   
     72. A(N   0,C  16,O  19)          123.0133         0.465245   
     73. A(O  19,C  16,C  25)          121.4945         0.427989   
     74. A(N   0,C  16,C  25)          115.4872         0.396940   
     75. A(C   2,N  17,H  18)          118.3493         0.359655   
     76. A(H  18,N  17,C  21)          118.0846         0.336755   
     77. A(C   2,N  17,C  21)          122.9480         0.401723   
     78. A(H  23,C  21,H  24)          109.4867         0.290400   
     79. A(H  22,C  21,H  24)          108.8157         0.290128   
     80. A(N  17,C  21,H  24)          108.1913         0.329447   
     81. A(H  22,C  21,H  23)          109.2639         0.289568   
     82. A(N  17,C  21,H  23)          110.0287         0.328777   
     83. A(N  17,C  21,H  22)          111.0247         0.328453   
     84. A(H  27,C  25,H  28)          108.6167         0.289645   
     85. A(H  26,C  25,H  28)          109.7276         0.289985   
     86. A(C  16,C  25,H  28)          113.5101         0.325144   
     87. A(H  26,C  25,H  27)          107.3025         0.289640   
     88. A(C  16,C  25,H  27)          108.0063         0.324739   
     89. A(C  16,C  25,H  26)          109.4751         0.325139   
     90. D(H  29,C   1,N   0,H  15)    117.1807         0.016358   
     91. D(C   4,C   1,N   0,C  16)     53.8374         0.016358   
     92. D(H  29,C   1,N   0,C  16)    -65.9431         0.016358   
     93. D(C   4,C   1,N   0,H  15)   -123.0388         0.016358   
     94. D(C   2,C   1,N   0,H  15)     -0.1002         0.016358   
     95. D(C   2,C   1,N   0,C  16)    176.7760         0.016358   
     96. D(O   3,C   2,C   1,N   0)    -21.4451         0.009080   
     97. D(N  17,C   2,C   1,C   4)    -74.6909         0.009080   
     98. D(N  17,C   2,C   1,H  29)     42.7435         0.009080   
     99. D(O   3,C   2,C   1,H  29)   -138.8632         0.009080   
    100. D(O   3,C   2,C   1,C   4)    103.7023         0.009080   
    101. D(N  17,C   2,C   1,N   0)    160.1616         0.009080   
    102. D(C   5,C   4,C   1,H  29)    171.5146         0.009109   
    103. D(C   5,C   4,C   1,C   2)    -69.5533         0.009109   
    104. D(H  31,C   4,C   1,C   2)    166.8729         0.009109   
    105. D(H  31,C   4,C   1,N   0)    -73.3214         0.009109   
    106. D(H  30,C   4,C   1,H  29)    -66.1524         0.009109   
    107. D(H  31,C   4,C   1,H  29)     47.9407         0.009109   
    108. D(H  30,C   4,C   1,C   2)     52.7797         0.009109   
    109. D(H  30,C   4,C   1,N   0)    172.5854         0.009109   
    110. D(C   5,C   4,C   1,N   0)     50.2524         0.009109   
    111. D(H  32,C   5,C   4,H  31)    164.5323         0.012808   
    112. D(H  32,C   5,C   4,H  30)    -78.4909         0.012808   
    113. D(C   6,C   5,C   4,H  31)    -18.0034         0.012808   
    114. D(C   6,C   5,C   4,H  30)     98.9734         0.012808   
    115. D(C   6,C   5,C   4,C   1)   -140.1113         0.012808   
    116. D(H  32,C   5,C   4,C   1)     42.4244         0.012808   
    117. D(H   9,C   6,C   5,H  32)    138.8184         0.012182   
    118. D(H   9,C   6,C   5,C   4)    -38.6747         0.012182   
    119. D(C   7,C   6,C   5,H  32)   -101.8907         0.012182   
    120. D(C   7,C   6,C   5,C   4)     80.6161         0.012182   
    121. D(H  10,C   6,C   5,H  32)     20.0750         0.012182   
    122. D(H  10,C   6,C   5,C   4)   -157.4181         0.012182   
    123. D(H  12,C   7,C   6,H  10)   -172.4039         0.010244   
    124. D(H  12,C   7,C   6,H   9)     69.8720         0.010244   
    125. D(H  12,C   7,C   6,C   5)    -49.9103         0.010244   
    126. D(H  11,C   7,C   6,H  10)    -49.3067         0.010244   
    127. D(H  11,C   7,C   6,H   9)   -167.0308         0.010244   
    128. D(H  11,C   7,C   6,C   5)     73.1869         0.010244   
    129. D(N   8,C   7,C   6,H  10)     68.7889         0.010244   
    130. D(N   8,C   7,C   6,H   9)    -48.9353         0.010244   
    131. D(N   8,C   7,C   6,C   5)   -168.7176         0.010244   
    132. D(H  20,N   8,C   7,H  12)    177.9841         0.009735   
    133. D(H  20,N   8,C   7,H  11)     61.9288         0.009735   
    134. D(H  20,N   8,C   7,C   6)    -59.7733         0.009735   
    135. D(H  14,N   8,C   7,H  12)    -62.3691         0.009735   
    136. D(H  14,N   8,C   7,H  11)   -178.4245         0.009735   
    137. D(H  14,N   8,C   7,C   6)     59.8735         0.009735   
    138. D(H  13,N   8,C   7,H  12)     57.0454         0.009735   
    139. D(H  13,N   8,C   7,H  11)    -59.0099         0.009735   
    140. D(H  13,N   8,C   7,C   6)    179.2880         0.009735   
    141. D(C  25,C  16,N   0,H  15)     -9.8391         0.032178   
    142. D(C  25,C  16,N   0,C   1)    173.4676         0.032178   
    143. D(O  19,C  16,N   0,H  15)    170.9621         0.032178   
    144. D(O  19,C  16,N   0,C   1)     -5.7312         0.032178   
    145. D(C  21,N  17,C   2,O   3)      1.9064         0.032109   
    146. D(C  21,N  17,C   2,C   1)   -179.7703         0.032109   
    147. D(H  18,N  17,C   2,O   3)    172.7107         0.032109   
    148. D(H  18,N  17,C   2,C   1)     -8.9660         0.032109   
    149. D(H  23,C  21,N  17,H  18)     53.6852         0.015444   
    150. D(H  23,C  21,N  17,C   2)   -135.4875         0.015444   
    151. D(H  22,C  21,N  17,H  18)    -67.4003         0.015444   
    152. D(H  22,C  21,N  17,C   2)    103.4270         0.015444   
    153. D(H  24,C  21,N  17,H  18)    173.2583         0.015444   
    154. D(H  24,C  21,N  17,C   2)    -15.9144         0.015444   
    155. D(H  28,C  25,C  16,O  19)   -168.3366         0.010933   
    156. D(H  28,C  25,C  16,N   0)     12.4513         0.010933   
    157. D(H  27,C  25,C  16,O  19)     71.1683         0.010933   
    158. D(H  27,C  25,C  16,N   0)   -108.0438         0.010933   
    159. D(H  26,C  25,C  16,O  19)    -45.3610         0.010933   
    160. D(H  26,C  25,C  16,N   0)    135.4269         0.010933   
    -----------------------------------------------------------------

Number of atoms                         .... 33
Number of degrees of freedom            .... 160

         *************************************************************
         *                GEOMETRY OPTIMIZATION CYCLE   1            *
         *************************************************************
---------------------------------
CARTESIAN COORDINATES (ANGSTROEM)
---------------------------------
  N     -7.617007    1.396341    0.277124
  C     -6.205451    1.039096    0.320010
  C     -5.931516    0.601314    1.782111
  O     -6.678094    0.966066    2.691871
  C     -5.230104    2.172376   -0.123952
  C     -5.442865    3.504999    0.532471
  C     -5.317105    4.772726   -0.273989
  C     -6.615867    5.022412   -1.067350
  N     -6.421660    6.141925   -2.105940
  H     -4.482214    4.673466   -0.986486
  H     -5.102034    5.630223    0.374715
  H     -7.431767    5.352471   -0.420951
  H     -6.935160    4.136994   -1.625039
  H     -7.279673    6.301753   -2.642450
  H     -5.682580    5.887990   -2.768438
  H     -8.091157    1.285418    1.167062
  C     -8.287364    1.897149   -0.792328
  N     -4.820747   -0.158875    1.963668
  H     -4.334967   -0.500495    1.147300
  O     -7.727554    2.208821   -1.856738
  H     -6.151776    7.025404   -1.663064
  C     -4.408429   -0.666525    3.274031
  H     -4.648147   -1.729638    3.376508
  H     -3.333115   -0.524702    3.408990
  H     -4.947479   -0.109324    4.039703
  C     -9.793460    2.039195   -0.614021
  H    -10.115668    3.010242   -0.997358
  H    -10.280246    1.270936   -1.223099
  H    -10.122553    1.923795    0.421361
  H     -6.025092    0.188048   -0.350467
  H     -4.207577    1.816499    0.084528
  H     -5.311112    2.268413   -1.209837
  H     -5.647481    3.568910    1.597015

----------------------------
CARTESIAN COORDINATES (A.U.)
----------------------------
  NO LB      ZA    FRAG     MASS         X           Y           Z
   0 N     7.0000    0    14.007  -14.394057    2.638703    0.523689
   1 C     6.0000    0    12.011  -11.726604    1.963606    0.604732
   2 C     6.0000    0    12.011  -11.208941    1.136319    3.367702
   3 O     8.0000    0    15.999  -12.619769    1.825600    5.086899
   4 C     6.0000    0    12.011   -9.883465    4.105196   -0.234235
   5 C     6.0000    0    12.011  -10.285525    6.623488    1.006224
   6 C     6.0000    0    12.011  -10.047872    9.019145   -0.517765
   7 C     6.0000    0    12.011  -12.502177    9.490983   -2.017000
   8 N     7.0000    0    14.007  -12.135178   11.606557   -3.979650
   9 H     1.0000    0     1.008   -8.470157    8.831572   -1.864188
  10 H     1.0000    0     1.008   -9.641448   10.639579    0.708109
  11 H     1.0000    0     1.008  -14.044004   10.114705   -0.795481
  12 H     1.0000    0     1.008  -13.105553    7.817785   -3.070879
  13 H     1.0000    0     1.008  -13.756589   11.908587   -4.993507
  14 H     1.0000    0     1.008  -10.738520   11.126688   -5.231590
  15 H     1.0000    0     1.008  -15.290072    2.429087    2.205428
  16 C     6.0000    0    12.011  -15.660848    3.585093   -1.497283
  17 N     7.0000    0    14.007   -9.109892   -0.300230    3.710794
  18 H     1.0000    0     1.008   -8.191900   -0.945798    2.168084
  19 O     8.0000    0    15.999  -14.602960    4.174067   -3.508726
  20 H     1.0000    0     1.008  -11.625172   13.276090   -3.142735
  21 C     6.0000    0    12.011   -8.330723   -1.259551    6.187022
  22 H     1.0000    0     1.008   -8.783724   -3.268543    6.380676
  23 H     1.0000    0     1.008   -6.298675   -0.991543    6.442058
  24 H     1.0000    0     1.008   -9.349381   -0.206592    7.633932
  25 C     6.0000    0    12.011  -18.506957    3.853519   -1.160332
  26 H     1.0000    0     1.008  -19.115842    5.688533   -1.884733
  27 H     1.0000    0     1.008  -19.426850    2.401720   -2.311322
  28 H     1.0000    0     1.008  -19.128854    3.635446    0.796256
  29 H     1.0000    0     1.008  -11.385774    0.355359   -0.662286
  30 H     1.0000    0     1.008   -7.951168    3.432686    0.159735
  31 H     1.0000    0     1.008  -10.036548    4.286679   -2.286261
  32 H     1.0000    0     1.008  -10.672192    6.744263    3.017921

--------------------------------
INTERNAL COORDINATES (ANGSTROEM)
--------------------------------
 N      0   0   0     0.000000000000     0.00000000     0.00000000
 C      1   0   0     1.456692298233     0.00000000     0.00000000
 C      2   1   0     1.550623166516   105.55636033     0.00000000
 O      3   2   1     1.232105832999   120.37119727   338.55493272
 C      2   1   3     1.559720761992   114.79577965   237.06141387
 C      5   2   1     1.500680459347   115.59821331    50.25242453
 C      6   5   2     1.507755449891   120.05664341   219.88866206
 C      7   6   5     1.542253878856   109.93973791    80.61612362
 N      8   7   6     1.539381785570   111.01206307   191.28244367
 H      7   6   5     1.102064578729   109.46686606   321.32527096
 H      7   6   5     1.096528060002   110.94346435   202.58186095
 H      8   7   6     1.091999861222   111.93954542    73.18690298
 H      8   7   6     1.094043160803   112.14608806   310.08967817
 H      9   8   7     1.024487699253   111.16884086   179.28801990
 H      9   8   7     1.024512402875   110.30605944    59.87346616
 H      1   2   3     1.014451598480   113.59507990   359.89978052
 C      1   2   3     1.357908554071   126.29955826   176.77602854
 N      3   2   1     1.358181834450   115.37529288   160.16164664
 H     18   3   2     1.009525960331   118.34925925   351.03401735
 O     17   1   2     1.242374816485   123.01325010   354.26879408
 H      9   8   7     1.024456430435   111.63787557   300.22671081
 C     18   3   2     1.464502672602   122.94800475   180.22967509
 H     22  18   3     1.094611947999   111.02473752   103.42704250
 H     22  18   3     1.092989844460   110.02869753   224.51254079
 H     22  18   3     1.089633781023   108.19125686   344.08563228
 C     17   1   2     1.523251173758   115.48724791   173.46760301
 H     26  17   1     1.092564831233   109.47514780   135.42685841
 H     26  17   1     1.094604190729   108.00634334   251.95619930
 H     26  17   1     1.092536278540   113.51010767    12.45128686
 H      2   1   3     1.098340082943   109.34030320   117.28087892
 H      5   2   1     1.102576048882   106.95328582   172.58543149
 H      5   2   1     1.093129440186   107.47254688   286.67856368
 H      6   5   2     1.085912693374   120.51660463    42.42436340

---------------------------
INTERNAL COORDINATES (A.U.)
---------------------------
 N      0   0   0     0.000000000000     0.00000000     0.00000000
 C      1   0   0     2.752749505053     0.00000000     0.00000000
 C      2   1   0     2.930253121629   105.55636033     0.00000000
 O      3   2   1     2.328342592375   120.37119727   338.55493272
 C      2   1   3     2.947445085556   114.79577965   237.06141387
 C      5   2   1     2.835875082694   115.59821331    50.25242453
 C      6   5   2     2.849244877222   120.05664341   219.88866206
 C      7   6   5     2.914437460016   109.93973791    80.61612362
 N      8   7   6     2.909009990274   111.01206307   191.28244367
 H      7   6   5     2.082600235693   109.46686606   321.32527096
 H      7   6   5     2.072137731563   110.94346435   202.58186095
 H      8   7   6     2.063580675989   111.93954542    73.18690298
 H      8   7   6     2.067441952607   112.14608806   310.08967817
 H      9   8   7     1.936001179159   111.16884086   179.28801990
 H      9   8   7     1.936047862240   110.30605944    59.87346616
 H      1   2   3     1.917035697245   113.59507990   359.89978052
 C      1   2   3     2.566075282104   126.29955826   176.77602854
 N      3   2   1     2.566591707177   115.37529288   160.16164664
 H     18   3   2     1.907727590109   118.34925925   351.03401735
 O     17   1   2     2.347748158837   123.01325010   354.26879408
 H      9   8   7     1.935942089657   111.63787557   300.22671081
 C     18   3   2     2.767508973613   122.94800475   180.22967509
 H     22  18   3     2.068516804636   111.02473752   103.42704250
 H     22  18   3     2.065451473187   110.02869753   224.51254079
 H     22  18   3     2.059109432403   108.19125686   344.08563228
 C     17   1   2     2.878527551577   115.48724791   173.46760301
 H     26  17   1     2.064648314584   109.47514780   135.42685841
 H     26  17   1     2.068502145520   108.00634334   251.95619930
 H     26  17   1     2.064594357814   113.51010767    12.45128686
 H      2   1   3     2.075561958671   109.34030320   117.28087892
 H      5   2   1     2.083566774208   106.95328582   172.58543149
 H      5   2   1     2.065715270878   107.47254688   286.67856368
 H      6   5   2     2.052077595826   120.51660463    42.42436340

---------------------
BASIS SET INFORMATION
---------------------
There are 4 groups of distinct atoms

 Group   1 Type N   : 11s6p2d1f contracted to 5s3p2d1f pattern {62111/411/11/1}
 Group   2 Type C   : 11s6p2d1f contracted to 5s3p2d1f pattern {62111/411/11/1}
 Group   3 Type O   : 11s6p2d1f contracted to 5s3p2d1f pattern {62111/411/11/1}
 Group   4 Type H   : 5s1p contracted to 3s1p pattern {311/1}

Atom   0N    basis set group =>   1
Atom   1C    basis set group =>   2
Atom   2C    basis set group =>   2
Atom   3O    basis set group =>   3
Atom   4C    basis set group =>   2
Atom   5C    basis set group =>   2
Atom   6C    basis set group =>   2
Atom   7C    basis set group =>   2
Atom   8N    basis set group =>   1
Atom   9H    basis set group =>   4
Atom  10H    basis set group =>   4
Atom  11H    basis set group =>   4
Atom  12H    basis set group =>   4
Atom  13H    basis set group =>   4
Atom  14H    basis set group =>   4
Atom  15H    basis set group =>   4
Atom  16C    basis set group =>   2
Atom  17N    basis set group =>   1
Atom  18H    basis set group =>   4
Atom  19O    basis set group =>   3
Atom  20H    basis set group =>   4
Atom  21C    basis set group =>   2
Atom  22H    basis set group =>   4
Atom  23H    basis set group =>   4
Atom  24H    basis set group =>   4
Atom  25C    basis set group =>   2
Atom  26H    basis set group =>   4
Atom  27H    basis set group =>   4
Atom  28H    basis set group =>   4
Atom  29H    basis set group =>   4
Atom  30H    basis set group =>   4
Atom  31H    basis set group =>   4
Atom  32H    basis set group =>   4
---------------------------------
AUXILIARY/J BASIS SET INFORMATION
---------------------------------
There are 4 groups of distinct atoms

 Group   1 Type N   : 12s5p4d2f1g contracted to 6s4p3d1f1g pattern {711111/2111/211/2/1}
 Group   2 Type C   : 12s5p4d2f1g contracted to 6s4p3d1f1g pattern {711111/2111/211/2/1}
 Group   3 Type O   : 12s5p4d2f1g contracted to 6s4p3d1f1g pattern {711111/2111/211/2/1}
 Group   4 Type H   : 5s2p1d contracted to 3s1p1d pattern {311/2/1}

Atom   0N    basis set group =>   1
Atom   1C    basis set group =>   2
Atom   2C    basis set group =>   2
Atom   3O    basis set group =>   3
Atom   4C    basis set group =>   2
Atom   5C    basis set group =>   2
Atom   6C    basis set group =>   2
Atom   7C    basis set group =>   2
Atom   8N    basis set group =>   1
Atom   9H    basis set group =>   4
Atom  10H    basis set group =>   4
Atom  11H    basis set group =>   4
Atom  12H    basis set group =>   4
Atom  13H    basis set group =>   4
Atom  14H    basis set group =>   4
Atom  15H    basis set group =>   4
Atom  16C    basis set group =>   2
Atom  17N    basis set group =>   1
Atom  18H    basis set group =>   4
Atom  19O    basis set group =>   3
Atom  20H    basis set group =>   4
Atom  21C    basis set group =>   2
Atom  22H    basis set group =>   4
Atom  23H    basis set group =>   4
Atom  24H    basis set group =>   4
Atom  25C    basis set group =>   2
Atom  26H    basis set group =>   4
Atom  27H    basis set group =>   4
Atom  28H    basis set group =>   4
Atom  29H    basis set group =>   4
Atom  30H    basis set group =>   4
Atom  31H    basis set group =>   4
Atom  32H    basis set group =>   4


           ************************************************************
           *        Program running with 16 parallel MPI-processes    *
           *              working on a common directory               *
           ************************************************************
------------------------------------------------------------------------------
                           ORCA GTO INTEGRAL CALCULATION
                           -- RI-GTO INTEGRALS CHOSEN --
------------------------------------------------------------------------------
------------------------------------------------------------------------------
                   ___                                                        
                  /   \      - P O W E R E D   B Y -                         
                 /     \                                                     
                 |  |  |   _    _      __       _____    __    __             
                 |  |  |  | |  | |    /  \     |  _  \  |  |  /  |          
                  \  \/   | |  | |   /    \    | | | |  |  | /  /          
                 / \  \   | |__| |  /  /\  \   | |_| |  |  |/  /          
                |  |  |   |  __  | /  /__\  \  |    /   |      \           
                |  |  |   | |  | | |   __   |  |    \   |  |\   \          
                \     /   | |  | | |  |  |  |  | |\  \  |  | \   \       
                 \___/    |_|  |_| |__|  |__|  |_| \__\ |__|  \__/        
                                                                              
                      - O R C A' S   B I G   F R I E N D -                    
                                      &                                       
                       - I N T E G R A L  F E E D E R -                       
                                                                              
 v1 FN, 2020, v2 2021                                                         
------------------------------------------------------------------------------


Reading SHARK input file freq.SHARKINP.tmp ... ok
----------------------
SHARK INTEGRAL PACKAGE
----------------------

Number of atoms                             ...     33
Number of basis functions                   ...    548
Number of shells                            ...    230
Maximum angular momentum                    ...      3
Integral batch strategy                     ... SHARK/LIBINT Hybrid
RI-J (if used) integral strategy            ... SPLIT-RIJ (Revised 2003 algorithm where possible)
Printlevel                                  ...      1
Contraction scheme used                     ... SEGMENTED contraction
Coulomb Range Separation                    ... NOT USED
Exchange Range Separation                   ... NOT USED
Finite Nucleus Model                        ... NOT USED
Auxiliary Coulomb fitting basis             ... AVAILABLE
   # of basis functions in Aux-J            ...    895
   # of shells in Aux-J                     ...    305
   Maximum angular momentum in Aux-J        ...      4
Auxiliary J/K fitting basis                 ... NOT available
Auxiliary Correlation fitting basis         ... NOT available
Auxiliary 'external' fitting basis          ... NOT available
Integral threshold                          ...     2.500000e-11
Primitive cut-off                           ...     2.500000e-12
Primitive pair pre-selection threshold      ...     2.500000e-12

Calculating pre-screening integrals         ... done (  0.0 sec) Dimension = 230
Organizing shell pair data                  ... done (  0.1 sec)
Shell pair information
Total number of shell pairs                 ...     26565
Shell pairs after pre-screening             ...     20491
Total number of primitive shell pairs       ...     78180
Primitive shell pairs kept                  ...     42108
          la=0 lb=0:   6166 shell pairs
          la=1 lb=0:   6048 shell pairs
          la=1 lb=1:   1532 shell pairs
          la=2 lb=0:   2736 shell pairs
          la=2 lb=1:   1353 shell pairs
          la=2 lb=2:    323 shell pairs
          la=3 lb=0:   1295 shell pairs
          la=3 lb=1:    657 shell pairs
          la=3 lb=2:    302 shell pairs
          la=3 lb=3:     79 shell pairs

Calculating one electron integrals          ... done (  0.0 sec)
Calculating RI/J V-Matrix + Cholesky decomp.... done (  0.0 sec)
Calculating Nuclear repulsion               ... done (  0.0 sec) ENN=    957.643101970191 Eh

SHARK setup successfully completed in   0.4 seconds

Maximum memory used throughout the entire GTOINT-calculation: 32.0 MB


           ************************************************************
           *        Program running with 16 parallel MPI-processes    *
           *              working on a common directory               *
           ************************************************************
-------------------------------------------------------------------------------
                                 ORCA SCF
-------------------------------------------------------------------------------

------------
SCF SETTINGS
------------
Hamiltonian:
 Density Functional     Method          .... DFT(GTOs)
 Exchange Functional    Exchange        .... M062X
 Correlation Functional Correlation     .... M062X
 Gradients option       PostSCFGGA      .... off
 Hybrid DFT is turned on
   Fraction HF Exchange ScalHFX         ....  0.540000
   Scaling of DF-GGA-X  ScalDFX         ....  0.460000
   Scaling of DF-GGA-C  ScalDFC         ....  1.000000
   Scaling of DF-LDA-C  ScalLDAC        ....  1.000000
   Perturbative correction              ....  0.000000
   Density functional embedding theory  .... OFF
 RI-approximation to the Coulomb term is turned on
   Number of AuxJ basis functions       .... 895
   RIJ-COSX (HFX calculated with COS-X)).... on


General Settings:
 Integral files         IntName         .... freq
 Hartree-Fock type      HFTyp           .... UHF
 Total Charge           Charge          ....    1
 Multiplicity           Mult            ....    2
 Number of Electrons    NEL             ....  109
 Basis Dimension        Dim             ....  548
 Nuclear Repulsion      ENuc            ....    957.6431019702 Eh

Convergence Acceleration:
 DIIS                   CNVDIIS         .... on
   Start iteration      DIISMaxIt       ....    12
   Startup error        DIISStart       ....  0.200000
   # of expansion vecs  DIISMaxEq       ....     5
   Bias factor          DIISBfac        ....   1.050
   Max. coefficient     DIISMaxC        ....  10.000
 Trust-Rad. Augm. Hess. CNVTRAH         .... auto
   Auto Start mean grad. ratio tolernc. ....  1.125000
   Auto Start start iteration           ....    20
   Auto Start num. interpolation iter.  ....    10
   Max. Number of Micro iterations      ....    16
   Max. Number of Macro iterations      .... Maxiter - #DIIS iter
   Number of Davidson start vectors     ....     2
   Converg. threshold I  (grad. norm)   ....   1.000e-05
   Converg. threshold II (energy diff.) ....   1.000e-08
   Grad. Scal. Fac. for Micro threshold ....   0.100
   Minimum threshold for Micro iter.    ....   0.010
   NR start threshold (gradient norm)   ....   0.001
   Initial trust radius                 ....   0.400
   Minimum AH scaling param. (alpha)    ....   1.000
   Maximum AH scaling param. (alpha)    .... 1000.000
   Orbital update algorithm             .... Taylor
   White noise on init. David. guess    .... on
   Maximum white noise                  ....   0.010
   Quad. conv. algorithm                .... NR
 SOSCF                  CNVSOSCF        .... off
 Level Shifting         CNVShift        .... on
   Level shift para.    LevelShift      ....    0.2500
   Turn off err/grad.   ShiftErr        ....    0.0010
 Zerner damping         CNVZerner       .... off
 Static damping         CNVDamp         .... on
   Fraction old density DampFac         ....    0.7000
   Max. Damping (<1)    DampMax         ....    0.9800
   Min. Damping (>=0)   DampMin         ....    0.0000
   Turn off err/grad.   DampErr         ....    0.1000
 Fernandez-Rico         CNVRico         .... off

SCF Procedure:
 Maximum # iterations   MaxIter         ....   125
 SCF integral mode      SCFMode         .... Direct
   Integral package                     .... SHARK and LIBINT hybrid scheme
 Reset frequency        DirectResetFreq ....    20
 Integral Threshold     Thresh          ....  2.500e-11 Eh
 Primitive CutOff       TCut            ....  2.500e-12 Eh

Convergence Tolerance:
 Convergence Check Mode ConvCheckMode   .... Total+1el-Energy
 Convergence forced     ConvForced      .... 0
 Energy Change          TolE            ....  1.000e-08 Eh
 1-El. energy change                    ....  1.000e-05 Eh
 DIIS Error             TolErr          ....  5.000e-07


Diagonalization of the overlap matrix:
Smallest eigenvalue                        ... 9.120e-05
Time for diagonalization                   ...    0.036 sec
Threshold for overlap eigenvalues          ... 1.000e-08
Number of eigenvalues below threshold      ... 0
Time for construction of square roots      ...    0.025 sec
Total time needed                          ...    0.062 sec

Time for model grid setup =    0.132 sec

------------------------------
INITIAL GUESS: MODEL POTENTIAL
------------------------------
Loading Hartree-Fock densities                     ... done
Calculating cut-offs                               ... done
Initializing the effective Hamiltonian             ... done
Setting up the integral package (SHARK)            ... done
Starting the Coulomb interaction                   ... done (   0.1 sec)
Reading the grid                                   ... done
Mapping shells                                     ... done
Starting the XC term evaluation                    ... done (   0.1 sec)
  promolecular density results
     # of electrons  =    109.988146595
     EX              =    -87.565861310
     EC              =     -3.650111272
     EX+EC           =    -91.215972582
Transforming the Hamiltonian                       ... done (   0.0 sec)
Diagonalizing the Hamiltonian                      ... done (   0.0 sec)
Back transforming the eigenvectors                 ... done (   0.0 sec)
Now organizing SCF variables                       ... done
                      ------------------
                      INITIAL GUESS DONE (   0.4 sec)
                      ------------------
-------------------
DFT GRID GENERATION
-------------------

General Integration Accuracy     IntAcc      ... 4.388
Radial Grid Type                 RadialGrid  ... OptM3 with GC (2021)
Angular Grid (max. ang.)         AngularGrid ... 4 (Lebedev-302)
Angular grid pruning method      GridPruning ... 4 (adaptive)
Weight generation scheme         WeightScheme... Becke
Basis function cutoff            BFCut       ... 1.0000e-11
Integration weight cutoff        WCut        ... 1.0000e-14
Angular grids for H and He will be reduced by one unit
Partially contracted basis set               ... off
Rotationally invariant grid construction     ... off

Total number of grid points                  ...   144644
Total number of batches                      ...     2276
Average number of points per batch           ...       63
Average number of grid points per atom       ...     4383
Time for grid setup =    0.635 sec

--------------------
COSX GRID GENERATION
--------------------

GRIDX 1
-------
General Integration Accuracy     IntAcc      ... 3.816
Radial Grid Type                 RadialGrid  ... OptM3 with GC (2021)
Angular Grid (max. ang.)         AngularGrid ... 1 (Lebedev-50)
Angular grid pruning method      GridPruning ... 4 (adaptive)
Weight generation scheme         WeightScheme... Becke
Basis function cutoff            BFCut       ... 1.0000e-11
Integration weight cutoff        WCut        ... 1.0000e-14
Angular grids for H and He will be reduced by one unit
Partially contracted basis set               ... on
Rotationally invariant grid construction     ... off

Total number of grid points                  ...    18470
Total number of batches                      ...      307
Average number of points per batch           ...       60
Average number of grid points per atom       ...      560
UseSFitting                                  ... on

GRIDX 2
-------
General Integration Accuracy     IntAcc      ... 4.020
Radial Grid Type                 RadialGrid  ... OptM3 with GC (2021)
Angular Grid (max. ang.)         AngularGrid ... 2 (Lebedev-110)
Angular grid pruning method      GridPruning ... 4 (adaptive)
Weight generation scheme         WeightScheme... Becke
Basis function cutoff            BFCut       ... 1.0000e-11
Integration weight cutoff        WCut        ... 1.0000e-14
Angular grids for H and He will be reduced by one unit
Partially contracted basis set               ... on
Rotationally invariant grid construction     ... off

Total number of grid points                  ...    38920
Total number of batches                      ...      623
Average number of points per batch           ...       62
Average number of grid points per atom       ...     1179
UseSFitting                                  ... on

GRIDX 3
-------
General Integration Accuracy     IntAcc      ... 4.338
Radial Grid Type                 RadialGrid  ... OptM3 with GC (2021)
Angular Grid (max. ang.)         AngularGrid ... 3 (Lebedev-194)
Angular grid pruning method      GridPruning ... 4 (adaptive)
Weight generation scheme         WeightScheme... Becke
Basis function cutoff            BFCut       ... 1.0000e-11
Integration weight cutoff        WCut        ... 1.0000e-14
Angular grids for H and He will be reduced by one unit
Partially contracted basis set               ... on
Rotationally invariant grid construction     ... off

Total number of grid points                  ...    84793
Total number of batches                      ...     1341
Average number of points per batch           ...       63
Average number of grid points per atom       ...     2569
UseSFitting                                  ... on

Time for X-Grid setup             =    0.895 sec

--------------
SCF ITERATIONS
--------------
ITER       Energy         Delta-E        Max-DP      RMS-DP      [F,P]     Damp
               ***  Starting incremental Fock matrix formation  ***
  0   -668.3657301949   0.000000000000 0.04587423  0.00043423  0.1478225 0.7000
  1   -668.5595030995  -0.193772904540 0.05099850  0.00037055  0.0708555 0.7000
                               ***Turning on DIIS***
  2   -668.6466065888  -0.087103489299 0.11905377  0.00076977  0.0258814 0.0000
  3   -668.7876751135  -0.141068524738 0.02332666  0.00023897  0.0337483 0.0000
  4   -668.8126020514  -0.024926937899 0.00737221  0.00007772  0.0053792 0.0000
  5   -668.8135658852  -0.000963833813 0.00360138  0.00003553  0.0033015 0.0000
  6   -668.8137806404  -0.000214755173 0.00230086  0.00001929  0.0011010 0.0000
  7   -668.8138184059  -0.000037765496 0.00208414  0.00001528  0.0006070 0.0000
               *** Restarting incremental Fock matrix formation ***
                                   *** Resetting DIIS ***
  8   -668.8138818730  -0.000063467071 0.00038244  0.00000475  0.0002273 0.0000
  9   -668.8138824413  -0.000000568293 0.00012783  0.00000151  0.0002786 0.0000
 10   -668.8138836859  -0.000001244633 0.00010602  0.00000086  0.0000519 0.0000
 11   -668.8138837705  -0.000000084584 0.00004281  0.00000040  0.0000643 0.0000
 12   -668.8138838086  -0.000000038149 0.00001796  0.00000016  0.0000216 0.0000
 13   -668.8138838061   0.000000002524 0.00000419  0.00000005  0.0000057 0.0000
 14   -668.8138838245  -0.000000018366 0.00000321  0.00000002  0.0000019 0.0000
                 **** Energy Check signals convergence ****

               *****************************************************
               *                     SUCCESS                       *
               *           SCF CONVERGED AFTER  15 CYCLES          *
               *****************************************************

Old exchange energy                            =    -48.306843533 Eh
New exchange energy                            =    -48.306885013 Eh
Exchange energy change after final integration =     -0.000041480 Eh
Total energy after final integration           =   -668.813925299 Eh
Final COS-X integration done in                =     5.059 sec

----------------
TOTAL SCF ENERGY
----------------

Total Energy       :         -668.81392530 Eh          -18199.35214 eV

Components:
Nuclear Repulsion  :          957.64310197 Eh           26058.79361 eV
Electronic Energy  :        -1626.45702727 Eh          -44258.14575 eV
One Electron Energy:        -2795.01634207 Eh          -76056.26129 eV
Two Electron Energy:         1168.55931480 Eh           31798.11554 eV
Max COSX asymmetry :            0.00000294 Eh               0.00008 eV

Virial components:
Potential Energy   :        -1333.93899678 Eh          -36298.32547 eV
Kinetic Energy     :          665.12507148 Eh           18098.97333 eV
Virial Ratio       :            2.00554611


DFT components:
N(Alpha)           :       55.000073659055 electrons
N(Beta)            :       54.000083451530 electrons
N(Total)           :      109.000157110585 electrons
E(XC)              :      -45.049939962010 Eh       
DFET-embed. en.    :        0.000000000000 Eh       

---------------
SCF CONVERGENCE
---------------

  Last Energy change         ...    5.6104e-09  Tolerance :   1.0000e-08
  Last MAX-Density change    ...    0.0000e+00  Tolerance :   1.0000e-07
  Last RMS-Density change    ...    0.0000e+00  Tolerance :   5.0000e-09
  Last DIIS Error            ...    1.7943e-06  Tolerance :   5.0000e-07

             **** THE GBW FILE WAS UPDATED (freq.gbw) ****
             **** DENSITY freq.scfp WAS UPDATED ****
             **** ENERGY FILE WAS UPDATED (freq.en.tmp) ****
----------------------
UHF SPIN CONTAMINATION
----------------------

Warning: in a DFT calculation there is little theoretical justification to 
         calculate <S**2> as in Hartree-Fock theory. We will do it anyways
         but you should keep in mind that the values have only limited relevance

Expectation value of <S**2>     :     0.755599
Ideal value S*(S+1) for S=0.5   :     0.750000
Deviation                       :     0.005599

             **** THE GBW FILE WAS UPDATED (freq.gbw) ****
             **** DENSITY freq.scfp WAS UPDATED ****
----------------
ORBITAL ENERGIES
----------------
                 SPIN UP ORBITALS
  NO   OCC          E(Eh)            E(eV) 
   0   1.0000     -19.700576      -536.0799 
   1   1.0000     -19.698457      -536.0223 
   2   1.0000     -15.050192      -409.5365 
   3   1.0000     -14.879726      -404.8979 
   4   1.0000     -14.877608      -404.8403 
   5   1.0000     -10.759321      -292.7760 
   6   1.0000     -10.754198      -292.6366 
   7   1.0000     -10.752833      -292.5995 
   8   1.0000     -10.705622      -291.3148 
   9   1.0000     -10.702975      -291.2427 
  10   1.0000     -10.683109      -290.7022 
  11   1.0000     -10.665575      -290.2250 
  12   1.0000     -10.658243      -290.0255 
  13   1.0000     -10.639249      -289.5087 
  14   1.0000      -1.287079       -35.0232 
  15   1.0000      -1.266250       -34.4564 
  16   1.0000      -1.255842       -34.1732 
  17   1.0000      -1.138091       -30.9690 
  18   1.0000      -1.133243       -30.8371 
  19   1.0000      -1.056228       -28.7414 
  20   1.0000      -0.998341       -27.1662 
  21   1.0000      -0.947890       -25.7934 
  22   1.0000      -0.919601       -25.0236 
  23   1.0000      -0.896802       -24.4032 
  24   1.0000      -0.860021       -23.4024 
  25   1.0000      -0.840652       -22.8753 
  26   1.0000      -0.834131       -22.6979 
  27   1.0000      -0.792050       -21.5528 
  28   1.0000      -0.773987       -21.0612 
  29   1.0000      -0.752309       -20.4714 
  30   1.0000      -0.732002       -19.9188 
  31   1.0000      -0.716237       -19.4898 
  32   1.0000      -0.691317       -18.8117 
  33   1.0000      -0.671484       -18.2720 
  34   1.0000      -0.658732       -17.9250 
  35   1.0000      -0.644751       -17.5446 
  36   1.0000      -0.629016       -17.1164 
  37   1.0000      -0.625367       -17.0171 
  38   1.0000      -0.623696       -16.9716 
  39   1.0000      -0.612275       -16.6609 
  40   1.0000      -0.601042       -16.3552 
  41   1.0000      -0.594964       -16.1898 
  42   1.0000      -0.581924       -15.8350 
  43   1.0000      -0.570522       -15.5247 
  44   1.0000      -0.564382       -15.3576 
  45   1.0000      -0.557157       -15.1610 
  46   1.0000      -0.548588       -14.9278 
  47   1.0000      -0.540992       -14.7212 
  48   1.0000      -0.537668       -14.6307 
  49   1.0000      -0.522273       -14.2118 
  50   1.0000      -0.442899       -12.0519 
  51   1.0000      -0.439384       -11.9563 
  52   1.0000      -0.433366       -11.7925 
  53   1.0000      -0.418621       -11.3913 
  54   1.0000      -0.382238       -10.4012 
  55   0.0000      -0.140038        -3.8106 
  56   0.0000      -0.078962        -2.1487 
  57   0.0000      -0.074492        -2.0270 
  58   0.0000      -0.063022        -1.7149 
  59   0.0000      -0.053936        -1.4677 
  60   0.0000      -0.040438        -1.1004 
  61   0.0000      -0.036931        -1.0049 
  62   0.0000      -0.025340        -0.6895 
  63   0.0000      -0.017429        -0.4743 
  64   0.0000      -0.004501        -0.1225 
  65   0.0000       0.004585         0.1248 
  66   0.0000       0.012025         0.3272 
  67   0.0000       0.015024         0.4088 
  68   0.0000       0.023902         0.6504 
  69   0.0000       0.024653         0.6708 
  70   0.0000       0.029041         0.7903 
  71   0.0000       0.036969         1.0060 
  72   0.0000       0.041485         1.1289 
  73   0.0000       0.052801         1.4368 
  74   0.0000       0.062919         1.7121 
  75   0.0000       0.066631         1.8131 
  76   0.0000       0.067957         1.8492 
  77   0.0000       0.072945         1.9849 
  78   0.0000       0.075189         2.0460 
  79   0.0000       0.078334         2.1316 
  80   0.0000       0.093791         2.5522 
  81   0.0000       0.097540         2.6542 
  82   0.0000       0.103523         2.8170 
  83   0.0000       0.110339         3.0025 
  84   0.0000       0.111604         3.0369 
  85   0.0000       0.124529         3.3886 
  86   0.0000       0.132930         3.6172 
  87   0.0000       0.139294         3.7904 
  88   0.0000       0.145243         3.9523 
  89   0.0000       0.158813         4.3215 
  90   0.0000       0.164407         4.4737 
  91   0.0000       0.169794         4.6203 
  92   0.0000       0.173933         4.7329 
  93   0.0000       0.178492         4.8570 
  94   0.0000       0.180154         4.9022 
  95   0.0000       0.191274         5.2048 
  96   0.0000       0.199961         5.4412 
  97   0.0000       0.203482         5.5370 
  98   0.0000       0.210161         5.7188 
  99   0.0000       0.227806         6.1989 
 100   0.0000       0.238046         6.4775 
 101   0.0000       0.248528         6.7628 
 102   0.0000       0.257901         7.0178 
 103   0.0000       0.261446         7.1143 
 104   0.0000       0.267800         7.2872 
 105   0.0000       0.275629         7.5002 
 106   0.0000       0.295907         8.0520 
 107   0.0000       0.297071         8.0837 
 108   0.0000       0.299737         8.1563 
 109   0.0000       0.302361         8.2276 
 110   0.0000       0.306288         8.3345 
 111   0.0000       0.311720         8.4823 
 112   0.0000       0.313779         8.5384 
 113   0.0000       0.319005         8.6806 
 114   0.0000       0.326034         8.8718 
 115   0.0000       0.327946         8.9239 
 116   0.0000       0.332960         9.0603 
 117   0.0000       0.340606         9.2684 
 118   0.0000       0.343530         9.3479 
 119   0.0000       0.351319         9.5599 
 120   0.0000       0.353891         9.6299 
 121   0.0000       0.357150         9.7185 
 122   0.0000       0.362010         9.8508 
 123   0.0000       0.370153        10.0724 
 124   0.0000       0.373501        10.1635 
 125   0.0000       0.375745        10.2245 
 126   0.0000       0.386607        10.5201 
 127   0.0000       0.391655        10.6575 
 128   0.0000       0.399244        10.8640 
 129   0.0000       0.409308        11.1378 
 130   0.0000       0.410835        11.1794 
 131   0.0000       0.414591        11.2816 
 132   0.0000       0.422342        11.4925 
 133   0.0000       0.425218        11.5708 
 134   0.0000       0.432295        11.7633 
 135   0.0000       0.445749        12.1294 
 136   0.0000       0.447558        12.1787 
 137   0.0000       0.453097        12.3294 
 138   0.0000       0.463264        12.6061 
 139   0.0000       0.471917        12.8415 
 140   0.0000       0.481634        13.1059 
 141   0.0000       0.483802        13.1649 
 142   0.0000       0.497070        13.5260 
 143   0.0000       0.500908        13.6304 
 144   0.0000       0.504737        13.7346 
 145   0.0000       0.515415        14.0252 
 146   0.0000       0.526672        14.3315 
 147   0.0000       0.534065        14.5326 
 148   0.0000       0.535315        14.5667 
 149   0.0000       0.549355        14.9487 
 150   0.0000       0.568900        15.4806 
 151   0.0000       0.579462        15.7680 
 152   0.0000       0.588434        16.0121 
 153   0.0000       0.603571        16.4240 
 154   0.0000       0.604248        16.4424 
 155   0.0000       0.612031        16.6542 
 156   0.0000       0.627520        17.0757 
 157   0.0000       0.638036        17.3618 
 158   0.0000       0.661369        17.9968 
 159   0.0000       0.672592        18.3022 
 160   0.0000       0.682066        18.5600 
 161   0.0000       0.690753        18.7963 
 162   0.0000       0.705221        19.1900 
 163   0.0000       0.718622        19.5547 
 164   0.0000       0.724703        19.7202 
 165   0.0000       0.739947        20.1350 
 166   0.0000       0.755261        20.5517 
 167   0.0000       0.760491        20.6940 
 168   0.0000       0.770509        20.9666 
 169   0.0000       0.785067        21.3628 
 170   0.0000       0.789445        21.4819 
 171   0.0000       0.802572        21.8391 
 172   0.0000       0.813585        22.1388 
 173   0.0000       0.821020        22.3411 
 174   0.0000       0.834916        22.7192 
 175   0.0000       0.847391        23.0587 
 176   0.0000       0.859885        23.3987 
 177   0.0000       0.879987        23.9457 
 178   0.0000       0.897953        24.4346 
 179   0.0000       0.906979        24.6801 
 180   0.0000       0.910289        24.7702 
 181   0.0000       0.916544        24.9404 
 182   0.0000       0.924818        25.1656 
 183   0.0000       0.935915        25.4676 
 184   0.0000       0.954725        25.9794 
 185   0.0000       0.957997        26.0684 
 186   0.0000       0.969197        26.3732 
 187   0.0000       0.973992        26.5037 
 188   0.0000       0.987773        26.8787 
 189   0.0000       0.990824        26.9617 
 190   0.0000       1.017198        27.6794 
 191   0.0000       1.024711        27.8838 
 192   0.0000       1.031622        28.0719 
 193   0.0000       1.043321        28.3902 
 194   0.0000       1.045776        28.4570 
 195   0.0000       1.071065        29.1452 
 196   0.0000       1.073307        29.2062 
 197   0.0000       1.092122        29.7182 
 198   0.0000       1.105841        30.0915 
 199   0.0000       1.134819        30.8800 
 200   0.0000       1.137871        30.9630 
 201   0.0000       1.149832        31.2885 
 202   0.0000       1.156194        31.4616 
 203   0.0000       1.167577        31.7714 
 204   0.0000       1.179554        32.0973 
 205   0.0000       1.185865        32.2690 
 206   0.0000       1.201271        32.6882 
 207   0.0000       1.207280        32.8518 
 208   0.0000       1.228150        33.4197 
 209   0.0000       1.242021        33.7971 
 210   0.0000       1.256047        34.1788 
 211   0.0000       1.266977        34.4762 
 212   0.0000       1.277312        34.7574 
 213   0.0000       1.294575        35.2272 
 214   0.0000       1.317862        35.8608 
 215   0.0000       1.334716        36.3195 
 216   0.0000       1.357433        36.9376 
 217   0.0000       1.373564        37.3766 
 218   0.0000       1.382213        37.6119 
 219   0.0000       1.397366        38.0243 
 220   0.0000       1.399057        38.0703 
 221   0.0000       1.407201        38.2919 
 222   0.0000       1.424259        38.7561 
 223   0.0000       1.433668        39.0121 
 224   0.0000       1.440810        39.2064 
 225   0.0000       1.449275        39.4368 
 226   0.0000       1.450988        39.4834 
 227   0.0000       1.456773        39.6408 
 228   0.0000       1.462661        39.8010 
 229   0.0000       1.466883        39.9159 
 230   0.0000       1.476467        40.1767 
 231   0.0000       1.488909        40.5153 
 232   0.0000       1.491467        40.5849 
 233   0.0000       1.496797        40.7299 
 234   0.0000       1.504788        40.9474 
 235   0.0000       1.521330        41.3975 
 236   0.0000       1.522193        41.4210 
 237   0.0000       1.536588        41.8127 
 238   0.0000       1.541391        41.9434 
 239   0.0000       1.551720        42.2245 
 240   0.0000       1.581465        43.0339 
 241   0.0000       1.584288        43.1107 
 242   0.0000       1.591650        43.3110 
 243   0.0000       1.601675        43.5838 
 244   0.0000       1.613582        43.9078 
 245   0.0000       1.618920        44.0531 
 246   0.0000       1.623406        44.1751 
 247   0.0000       1.638820        44.5946 
 248   0.0000       1.651041        44.9271 
 249   0.0000       1.658208        45.1221 
 250   0.0000       1.668358        45.3983 
 251   0.0000       1.670793        45.4646 
 252   0.0000       1.687602        45.9220 
 253   0.0000       1.695799        46.1450 
 254   0.0000       1.707900        46.4743 
 255   0.0000       1.719143        46.7803 
 256   0.0000       1.728284        47.0290 
 257   0.0000       1.735385        47.2222 
 258   0.0000       1.757285        47.8181 
 259   0.0000       1.759071        47.8668 
 260   0.0000       1.780173        48.4410 
 261   0.0000       1.789289        48.6890 
 262   0.0000       1.800536        48.9951 
 263   0.0000       1.801335        49.0168 
 264   0.0000       1.814001        49.3615 
 265   0.0000       1.825651        49.6785 
 266   0.0000       1.829739        49.7897 
 267   0.0000       1.853978        50.4493 
 268   0.0000       1.863941        50.7204 
 269   0.0000       1.875712        51.0407 
 270   0.0000       1.881386        51.1951 
 271   0.0000       1.895542        51.5803 
 272   0.0000       1.898995        51.6743 
 273   0.0000       1.913194        52.0606 
 274   0.0000       1.922296        52.3083 
 275   0.0000       1.937578        52.7242 
 276   0.0000       1.951795        53.1110 
 277   0.0000       1.957241        53.2592 
 278   0.0000       1.971605        53.6501 
 279   0.0000       2.004997        54.5587 
 280   0.0000       2.010925        54.7201 
 281   0.0000       2.025359        55.1128 
 282   0.0000       2.030917        55.2641 
 283   0.0000       2.058373        56.0112 
 284   0.0000       2.074830        56.4590 
 285   0.0000       2.097068        57.0641 
 286   0.0000       2.105551        57.2949 
 287   0.0000       2.110550        57.4310 
 288   0.0000       2.128326        57.9147 
 289   0.0000       2.140417        58.2437 
 290   0.0000       2.151756        58.5523 
 291   0.0000       2.163999        58.8854 
 292   0.0000       2.178432        59.2781 
 293   0.0000       2.183374        59.4126 
 294   0.0000       2.192088        59.6497 
 295   0.0000       2.195143        59.7329 
 296   0.0000       2.205179        60.0060 
 297   0.0000       2.207463        60.0681 
 298   0.0000       2.214292        60.2540 
 299   0.0000       2.227933        60.6251 
 300   0.0000       2.242365        61.0178 
 301   0.0000       2.252883        61.3041 
 302   0.0000       2.255947        61.3875 
 303   0.0000       2.261628        61.5420 
 304   0.0000       2.273238        61.8579 
 305   0.0000       2.275788        61.9273 
 306   0.0000       2.288436        62.2715 
 307   0.0000       2.301141        62.6172 
 308   0.0000       2.311002        62.8855 
 309   0.0000       2.323428        63.2237 
 310   0.0000       2.348635        63.9096 
 311   0.0000       2.357303        64.1455 
 312   0.0000       2.362678        64.2917 
 313   0.0000       2.376368        64.6643 
 314   0.0000       2.385344        64.9085 
 315   0.0000       2.397587        65.2417 
 316   0.0000       2.409222        65.5583 
 317   0.0000       2.416151        65.7468 
 318   0.0000       2.417946        65.7957 
 319   0.0000       2.446321        66.5678 
 320   0.0000       2.453531        66.7640 
 321   0.0000       2.460234        66.9464 
 322   0.0000       2.463083        67.0239 
 323   0.0000       2.476777        67.3965 
 324   0.0000       2.485268        67.6276 
 325   0.0000       2.491787        67.8050 
 326   0.0000       2.500044        68.0297 
 327   0.0000       2.512153        68.3591 
 328   0.0000       2.518214        68.5241 
 329   0.0000       2.524248        68.6883 
 330   0.0000       2.534018        68.9541 
 331   0.0000       2.552635        69.4607 
 332   0.0000       2.562689        69.7343 
 333   0.0000       2.570078        69.9354 
 334   0.0000       2.577777        70.1449 
 335   0.0000       2.594355        70.5960 
 336   0.0000       2.597212        70.6737 
 337   0.0000       2.610860        71.0451 
 338   0.0000       2.627575        71.4999 
 339   0.0000       2.641679        71.8837 
 340   0.0000       2.650078        72.1123 
 341   0.0000       2.658137        72.3316 
 342   0.0000       2.684617        73.0521 
 343   0.0000       2.693171        73.2849 
 344   0.0000       2.714764        73.8725 
 345   0.0000       2.716856        73.9294 
 346   0.0000       2.736422        74.4618 
 347   0.0000       2.748878        74.8008 
 348   0.0000       2.759796        75.0979 
 349   0.0000       2.775066        75.5134 
 350   0.0000       2.793671        76.0197 
 351   0.0000       2.802765        76.2671 
 352   0.0000       2.816678        76.6457 
 353   0.0000       2.831502        77.0491 
 354   0.0000       2.841001        77.3076 
 355   0.0000       2.854057        77.6628 
 356   0.0000       2.860504        77.8383 
 357   0.0000       2.873148        78.1823 
 358   0.0000       2.878300        78.3225 
 359   0.0000       2.882541        78.4379 
 360   0.0000       2.903520        79.0088 
 361   0.0000       2.918883        79.4268 
 362   0.0000       2.926727        79.6403 
 363   0.0000       2.927513        79.6617 
 364   0.0000       2.947762        80.2127 
 365   0.0000       2.962340        80.6094 
 366   0.0000       2.964121        80.6578 
 367   0.0000       2.968497        80.7769 
 368   0.0000       2.977422        81.0198 
 369   0.0000       2.984208        81.2044 
 370   0.0000       3.013439        81.9998 
 371   0.0000       3.016653        82.0873 
 372   0.0000       3.034974        82.5858 
 373   0.0000       3.047737        82.9331 
 374   0.0000       3.052259        83.0562 
 375   0.0000       3.057656        83.2030 
 376   0.0000       3.060925        83.2920 
 377   0.0000       3.071609        83.5827 
 378   0.0000       3.087296        84.0096 
 379   0.0000       3.093948        84.1906 
 380   0.0000       3.102894        84.4341 
 381   0.0000       3.106005        84.5187 
 382   0.0000       3.116949        84.8165 
 383   0.0000       3.119694        84.8912 
 384   0.0000       3.121158        84.9310 
 385   0.0000       3.131844        85.2218 
 386   0.0000       3.147705        85.6534 
 387   0.0000       3.167661        86.1964 
 388   0.0000       3.178821        86.5001 
 389   0.0000       3.183408        86.6249 
 390   0.0000       3.189078        86.7792 
 391   0.0000       3.206874        87.2635 
 392   0.0000       3.215447        87.4968 
 393   0.0000       3.232087        87.9496 
 394   0.0000       3.241879        88.2160 
 395   0.0000       3.251716        88.4837 
 396   0.0000       3.263636        88.8080 
 397   0.0000       3.272149        89.0397 
 398   0.0000       3.280721        89.2729 
 399   0.0000       3.288226        89.4772 
 400   0.0000       3.290079        89.5276 
 401   0.0000       3.307349        89.9975 
 402   0.0000       3.310648        90.0873 
 403   0.0000       3.319208        90.3202 
 404   0.0000       3.324243        90.4573 
 405   0.0000       3.335411        90.7612 
 406   0.0000       3.360525        91.4445 
 407   0.0000       3.365012        91.5666 
 408   0.0000       3.383345        92.0655 
 409   0.0000       3.384858        92.1067 
 410   0.0000       3.411707        92.8373 
 411   0.0000       3.419572        93.0513 
 412   0.0000       3.429516        93.3219 
 413   0.0000       3.435932        93.4965 
 414   0.0000       3.457711        94.0891 
 415   0.0000       3.470162        94.4279 
 416   0.0000       3.498405        95.1964 
 417   0.0000       3.516300        95.6834 
 418   0.0000       3.527830        95.9971 
 419   0.0000       3.531300        96.0915 
 420   0.0000       3.550254        96.6073 
 421   0.0000       3.559339        96.8545 
 422   0.0000       3.589263        97.6688 
 423   0.0000       3.604739        98.0899 
 424   0.0000       3.612322        98.2963 
 425   0.0000       3.638774        99.0161 
 426   0.0000       3.653644        99.4207 
 427   0.0000       3.661656        99.6387 
 428   0.0000       3.679490       100.1240 
 429   0.0000       3.688895       100.3799 
 430   0.0000       3.698679       100.6462 
 431   0.0000       3.725030       101.3632 
 432   0.0000       3.733222       101.5861 
 433   0.0000       3.745205       101.9122 
 434   0.0000       3.759785       102.3090 
 435   0.0000       3.776494       102.7636 
 436   0.0000       3.808343       103.6303 
 437   0.0000       3.810692       103.6942 
 438   0.0000       3.836260       104.3899 
 439   0.0000       3.845613       104.6445 
 440   0.0000       3.870363       105.3179 
 441   0.0000       3.882804       105.6565 
 442   0.0000       3.906541       106.3024 
 443   0.0000       3.943850       107.3176 
 444   0.0000       3.950412       107.4962 
 445   0.0000       3.983404       108.3939 
 446   0.0000       4.005598       108.9979 
 447   0.0000       4.017253       109.3150 
 448   0.0000       4.029334       109.6438 
 449   0.0000       4.043582       110.0315 
 450   0.0000       4.064664       110.6051 
 451   0.0000       4.074309       110.8676 
 452   0.0000       4.107295       111.7652 
 453   0.0000       4.147973       112.8721 
 454   0.0000       4.151855       112.9777 
 455   0.0000       4.198417       114.2447 
 456   0.0000       4.215697       114.7150 
 457   0.0000       4.223766       114.9345 
 458   0.0000       4.266647       116.1014 
 459   0.0000       4.278917       116.4352 
 460   0.0000       4.293897       116.8429 
 461   0.0000       4.302859       117.0867 
 462   0.0000       4.317882       117.4955 
 463   0.0000       4.344823       118.2286 
 464   0.0000       4.353050       118.4525 
 465   0.0000       4.392598       119.5287 
 466   0.0000       4.402394       119.7952 
 467   0.0000       4.429552       120.5342 
 468   0.0000       4.448113       121.0393 
 469   0.0000       4.491777       122.2275 
 470   0.0000       4.504297       122.5681 
 471   0.0000       4.530933       123.2930 
 472   0.0000       4.546575       123.7186 
 473   0.0000       4.559288       124.0645 
 474   0.0000       4.594513       125.0231 
 475   0.0000       4.596540       125.0782 
 476   0.0000       4.610371       125.4546 
 477   0.0000       4.615825       125.6030 
 478   0.0000       4.639536       126.2482 
 479   0.0000       4.649956       126.5317 
 480   0.0000       4.656140       126.7000 
 481   0.0000       4.686451       127.5248 
 482   0.0000       4.710365       128.1755 
 483   0.0000       4.755127       129.3936 
 484   0.0000       4.764972       129.6615 
 485   0.0000       4.799999       130.6146 
 486   0.0000       4.808316       130.8409 
 487   0.0000       4.876546       132.6976 
 488   0.0000       4.909956       133.6067 
 489   0.0000       4.922154       133.9386 
 490   0.0000       4.955427       134.8440 
 491   0.0000       4.972746       135.3153 
 492   0.0000       4.977580       135.4468 
 493   0.0000       4.986048       135.6773 
 494   0.0000       5.012330       136.3924 
 495   0.0000       5.035747       137.0296 
 496   0.0000       5.098746       138.7439 
 497   0.0000       5.102062       138.8342 
 498   0.0000       5.124848       139.4542 
 499   0.0000       5.143862       139.9716 
 500   0.0000       5.168515       140.6424 
 501   0.0000       5.172611       140.7539 
 502   0.0000       5.182818       141.0316 
 503   0.0000       5.193388       141.3193 
 504   0.0000       5.198043       141.4459 
 505   0.0000       5.259064       143.1064 
 506   0.0000       5.330569       145.0522 
 507   0.0000       5.375778       146.2824 
 508   0.0000       5.390605       146.6858 
 509   0.0000       5.443522       148.1258 
 510   0.0000       5.510868       149.9583 
 511   0.0000       5.535027       150.6157 
 512   0.0000       5.541847       150.8013 
 513   0.0000       5.569562       151.5555 
 514   0.0000       5.633019       153.2822 
 515   0.0000       5.680539       154.5753 
 516   0.0000       5.781662       157.3270 
 517   0.0000       5.797856       157.7677 
 518   0.0000       5.960519       162.1940 
 519   0.0000       6.022278       163.8745 
 520   0.0000       6.173493       167.9893 
 521   0.0000       6.210242       168.9893 
 522   0.0000       6.327934       172.1919 
 523   0.0000       6.339218       172.4989 
 524   0.0000       6.448163       175.4634 
 525   0.0000       6.469062       176.0321 
 526   0.0000       6.545679       178.1170 
 527   0.0000       6.557613       178.4417 
 528   0.0000       6.741605       183.4484 
 529   0.0000       6.748236       183.6289 
 530   0.0000       6.936882       188.7622 
 531   0.0000       6.962169       189.4503 
 532   0.0000       6.978171       189.8857 
 533   0.0000       7.001942       190.5325 
 534   0.0000      22.246014       605.3448 
 535   0.0000      22.310734       607.1059 
 536   0.0000      22.365804       608.6045 
 537   0.0000      22.384198       609.1050 
 538   0.0000      22.414191       609.9211 
 539   0.0000      22.527064       612.9926 
 540   0.0000      22.638937       616.0368 
 541   0.0000      23.276546       633.3870 
 542   0.0000      23.292508       633.8214 
 543   0.0000      31.775771       864.6627 
 544   0.0000      32.396238       881.5464 
 545   0.0000      32.608514       887.3228 
 546   0.0000      43.988413      1196.9856 
 547   0.0000      44.022927      1197.9247 

                 SPIN DOWN ORBITALS
  NO   OCC          E(Eh)            E(eV) 
   0   1.0000     -19.700580      -536.0800 
   1   1.0000     -19.698511      -536.0237 
   2   1.0000     -15.050032      -409.5322 
   3   1.0000     -14.879715      -404.8976 
   4   1.0000     -14.877591      -404.8398 
   5   1.0000     -10.758127      -292.7435 
   6   1.0000     -10.754197      -292.6366 
   7   1.0000     -10.752846      -292.5998 
   8   1.0000     -10.705207      -291.3035 
   9   1.0000     -10.703722      -291.2631 
  10   1.0000     -10.676285      -290.5165 
  11   1.0000     -10.666251      -290.2435 
  12   1.0000     -10.658243      -290.0255 
  13   1.0000     -10.639249      -289.5087 
  14   1.0000      -1.286362       -35.0037 
  15   1.0000      -1.266239       -34.4561 
  16   1.0000      -1.255946       -34.1760 
  17   1.0000      -1.137773       -30.9604 
  18   1.0000      -1.133213       -30.8363 
  19   1.0000      -1.045181       -28.4408 
  20   1.0000      -0.994740       -27.0683 
[...]
     42       0.003828   0.000835   0.000427
     43      -0.008292  -0.000084  -0.000062
     44      -0.018295  -0.000524  -0.000330
     45       0.000883  -0.486954   0.009483
     46       0.000213  -0.106285   0.002531
     47      -0.001454   0.863485  -0.018406
     48       0.000020   0.000568  -0.000038
     49      -0.000033  -0.000146   0.000035
     50       0.000104   0.000024  -0.000139
     51      -0.000005  -0.000304  -0.035607
     52       0.000011   0.000209   0.024345
     53      -0.000005   0.001151   0.059305
     54       0.000071   0.010742   0.474808
     55       0.000011  -0.007915  -0.331589
     56      -0.000079  -0.016615  -0.811532
     57      -0.000020  -0.000352  -0.000006
     58       0.000010  -0.000670   0.000001
     59      -0.000061   0.001753   0.000025
     60       0.076530   0.000225   0.000003
     61       0.573286   0.001702   0.000104
     62       0.369024   0.001203   0.000027
     63       0.000009  -0.000059  -0.000886
     64       0.000011  -0.000005   0.000933
     65      -0.000006  -0.000108  -0.000533
     66       0.000001  -0.000038   0.000043
     67      -0.000022  -0.000035   0.000275
     68      -0.000015   0.000263   0.000237
     69      -0.000031   0.000478   0.002671
     70       0.000018   0.000007  -0.000623
     71      -0.000010   0.000001   0.001200
     72       0.000023  -0.000429   0.004834
     73       0.000008   0.000216  -0.005241
     74      -0.000017  -0.000104  -0.011439
     75      -0.000006   0.000142   0.000004
     76      -0.000012   0.000131   0.000006
     77       0.000017  -0.000369   0.000005
     78      -0.000066   0.000594   0.000018
     79       0.000093  -0.000881  -0.000045
     80       0.000097   0.000247   0.000013
     81      -0.000042   0.000274   0.000029
     82      -0.000069  -0.000317  -0.000022
     83      -0.000009   0.000006  -0.000022
     84       0.000029  -0.000049  -0.000073
     85       0.000087  -0.001595   0.000037
     86      -0.000227   0.006823  -0.000082
     87      -0.000058  -0.003928   0.001528
     88      -0.000045   0.005878  -0.001616
     89       0.000028   0.001597  -0.001323
     90      -0.000014  -0.001661  -0.000234
     91       0.000011  -0.000485   0.000119
     92      -0.000027  -0.000104  -0.000833
     93       0.000068   0.001141   0.000174
     94       0.000004   0.000902  -0.000498
     95       0.000027  -0.000588   0.000700
     96      -0.000112  -0.000289   0.000013
     97       0.000198  -0.000239   0.000242
     98       0.000006   0.001659  -0.000065


-----------
IR SPECTRUM
-----------

 Mode   freq       eps      Int      T**2         TX        TY        TZ
       cm**-1   L/(mol*cm) km/mol    a.u.
----------------------------------------------------------------------------
  8:     24.20   0.000692    3.50  0.008917  (-0.035208 -0.016391  0.086076)
  9:     33.73   0.001995   10.08  0.018462  ( 0.115150  0.065961  0.029173)
 10:     56.59   0.000400    2.02  0.002205  (-0.021834 -0.030483  0.028262)
 11:     72.21   0.001123    5.67  0.004852  (-0.028166  0.053392  0.034763)
 12:     79.05   0.000449    2.27  0.001774  (-0.024470  0.030434 -0.015779)
 13:     98.11   0.000454    2.29  0.001444  (-0.015074 -0.004555  0.034579)
 14:    117.14   0.003142   15.88  0.008371  ( 0.028086 -0.083877  0.023377)
 15:    138.24   0.003798   19.19  0.008574  (-0.044238 -0.074667 -0.032271)
 16:    174.47   0.004457   22.52  0.007972  (-0.050343 -0.068047 -0.028408)
 17:    203.48   0.000596    3.01  0.000914  ( 0.027849  0.003359  0.011273)
 18:    216.86   0.001448    7.32  0.002083  (-0.026697 -0.035099  0.011780)
 19:    229.05   0.000485    2.45  0.000660  (-0.013073 -0.022094 -0.001202)
 20:    257.19   0.002124   10.73  0.002577  (-0.045634  0.009630 -0.020051)
 21:    285.42   0.000466    2.36  0.000510  ( 0.000633 -0.012606  0.018719)
 22:    298.01   0.000014    0.07  0.000014  (-0.003606  0.001158 -0.000112)
 23:    349.79   0.000993    5.02  0.000886  (-0.020970  0.009891 -0.018662)
 24:    362.24   0.000216    1.09  0.000186  (-0.009943 -0.009190 -0.001622)
 25:    392.75   0.006413   32.41  0.005095  ( 0.052463 -0.016955  0.045335)
 26:    455.34   0.005799   29.30  0.003974  (-0.057793 -0.021686 -0.012792)
 27:    491.00   0.004685   23.68  0.002978  (-0.032443 -0.037728  0.022404)
 28:    525.22   0.007506   37.93  0.004460  (-0.023482 -0.061545  0.010989)
 29:    563.14   0.012675   64.06  0.007024  ( 0.059045  0.056786  0.017691)
 30:    588.96   0.005829   29.46  0.003089  (-0.004586  0.055138 -0.005235)
 31:    662.24   0.002794   14.12  0.001317  (-0.021267 -0.027727 -0.009773)
 32:    681.54   0.001304    6.59  0.000597  ( 0.009315  0.014818  0.017050)
 33:    701.00   0.000195    0.98  0.000087  ( 0.004947 -0.007885 -0.000077)
 34:    772.62   0.001283    6.48  0.000518  (-0.014797  0.008806  0.014893)
 35:    809.16   0.000055    0.28  0.000021  (-0.004015  0.002041 -0.001041)
 36:    861.72   0.004240   21.43  0.001536  ( 0.010379 -0.019269  0.032504)
 37:    873.73   0.003557   17.98  0.001271  ( 0.020496 -0.022832  0.018142)
 38:    880.35   0.000758    3.83  0.000269  (-0.001356 -0.010336  0.012651)
 39:    923.08   0.000588    2.97  0.000199  ( 0.003970  0.002113 -0.013364)
 40:    949.53   0.002812   14.21  0.000924  (-0.009024  0.028897 -0.002770)
 41:    960.69   0.002848   14.39  0.000925  ( 0.026320  0.011249 -0.010281)
 42:   1006.18   0.000594    3.00  0.000184  ( 0.001329  0.011866 -0.006450)
 43:   1026.71   0.001220    6.16  0.000371  (-0.005631 -0.002343 -0.018264)
 44:   1042.03   0.002023   10.22  0.000606  (-0.021905  0.000111 -0.011224)
 45:   1060.72   0.001284    6.49  0.000378  ( 0.009377  0.016629  0.003638)
 46:   1077.05   0.001378    6.96  0.000399  ( 0.014942 -0.013253 -0.000628)
 47:   1115.83   0.001300    6.57  0.000364  (-0.017043  0.003065 -0.007983)
 48:   1133.75   0.001300    6.57  0.000358  (-0.006095 -0.005091 -0.017166)
 49:   1145.79   0.001872    9.46  0.000510  (-0.019462  0.008480 -0.007693)
 50:   1150.61   0.000183    0.93  0.000050  ( 0.002458  0.004576  0.004763)
 51:   1180.42   0.004433   22.40  0.001172  ( 0.020787 -0.025165  0.010325)
 52:   1195.47   0.003394   17.15  0.000886  ( 0.022823 -0.015167  0.011626)
 53:   1232.02   0.001801    9.10  0.000456  ( 0.015590 -0.008997  0.011496)
 54:   1258.09   0.004541   22.95  0.001126  (-0.018655  0.016856 -0.022230)
 55:   1273.06   0.010489   53.01  0.002571  ( 0.024188 -0.028558  0.034214)
 56:   1304.37   0.002801   14.16  0.000670  ( 0.004174 -0.013544  0.021665)
 57:   1319.30   0.002342   11.83  0.000554  (-0.020578 -0.004697 -0.010412)
 58:   1329.13   0.001255    6.34  0.000295  (-0.011480 -0.011688  0.005123)
 59:   1359.70   0.003109   15.71  0.000714  ( 0.019115 -0.007297  0.017174)
 60:   1366.18   0.001919    9.70  0.000438  ( 0.001392 -0.020881 -0.000701)
 61:   1388.53   0.000618    3.12  0.000139  ( 0.006942  0.005313 -0.007902)
 62:   1412.78   0.005848   29.55  0.001292  ( 0.033654 -0.004041  0.011952)
 63:   1423.94   0.002508   12.67  0.000550  (-0.002410  0.009650 -0.021228)
 64:   1435.66   0.001260    6.37  0.000274  ( 0.008510  0.009346 -0.010681)
 65:   1452.31   0.003950   19.96  0.000849  (-0.018756  0.019101  0.011489)
 66:   1469.96   0.003642   18.40  0.000773  (-0.001177  0.023179 -0.015314)
 67:   1481.78   0.001136    5.74  0.000239  ( 0.009903 -0.011296  0.003669)
 68:   1483.68   0.003420   17.28  0.000719  (-0.016215 -0.010258  0.018740)
 69:   1487.70   0.006383   32.26  0.001339  (-0.006128  0.008443 -0.035072)
 70:   1496.37   0.018313   92.55  0.003819  ( 0.015545 -0.037429  0.046655)
 71:   1496.53   0.014902   75.31  0.003107  (-0.018146 -0.044983  0.027470)
 72:   1503.55   0.010300   52.05  0.002138  (-0.015406 -0.041888  0.012077)
 73:   1506.13   0.003791   19.16  0.000785  (-0.009471  0.013169 -0.022855)
 74:   1573.55   0.120431  608.61  0.023884  (-0.118879  0.062570 -0.076397)
 75:   1596.20   0.016024   80.98  0.003133  (-0.028706  0.043634 -0.020118)
 76:   1655.94   0.007785   39.34  0.001467  ( 0.037290 -0.008290 -0.002814)
 77:   1660.09   0.008651   43.72  0.001626  ( 0.000056  0.020839  0.034524)
 78:   1747.41   0.067022  338.70  0.011969  ( 0.039383  0.030940 -0.097267)
 79:   1792.10   0.041435  209.39  0.007215  ( 0.066331 -0.044661 -0.028648)
 80:   3019.70   0.003579   18.09  0.000370  ( 0.008136  0.015188 -0.008545)
 81:   3020.92   0.002648   13.38  0.000273  (-0.015854  0.001125  0.004569)
 82:   3073.47   0.003380   17.08  0.000343  ( 0.011726 -0.014238  0.001712)
 83:   3087.53   0.005173   26.14  0.000523  ( 0.011973 -0.013802  0.013747)
 84:   3089.65   0.000279    1.41  0.000028  ( 0.000965 -0.004577 -0.002510)
 85:   3106.34   0.003358   16.97  0.000337  ( 0.002313  0.017866  0.003580)
 86:   3114.98   0.002031   10.26  0.000203  ( 0.003733  0.013757 -0.000510)
 87:   3126.32   0.000980    4.95  0.000098  (-0.001917 -0.006659  0.007055)
 88:   3160.62   0.001465    7.40  0.000145  (-0.009546 -0.007303 -0.000398)
 89:   3168.04   0.000381    1.93  0.000038  (-0.005164  0.003302 -0.000028)
 90:   3180.71   0.004138   20.91  0.000406  ( 0.010641  0.017083 -0.000948)
 91:   3187.16   0.000922    4.66  0.000090  ( 0.001636  0.004929 -0.007960)
 92:   3199.05   0.000007    0.03  0.000001  ( 0.000309 -0.000086  0.000738)
 93:   3222.27   0.000023    0.12  0.000002  (-0.000127 -0.001312  0.000700)
 94:   3414.66   0.012640   63.88  0.001155  (-0.000749 -0.026587  0.021159)
 95:   3502.43   0.019569   98.89  0.001744  ( 0.033781 -0.019231 -0.015249)
 96:   3506.03   0.021264  107.46  0.001893  ( 0.025282  0.016939  0.031090)
 97:   3591.91   0.026184  132.32  0.002275  (-0.000253 -0.015927  0.044957)
 98:   3647.86   0.009814   49.60  0.000840  ( 0.019650 -0.015574 -0.014522)

* The epsilon (eps) is given for a Dirac delta lineshape.
** The dipole moment derivative (T) already includes vibrational overlap.

The first frequency considered to be a vibration is 8
The total number of vibrations considered is 91


--------------------------
THERMOCHEMISTRY AT 298.15K
--------------------------

Temperature         ... 298.15 K
Pressure            ... 1.00 atm
Total Mass          ... 201.27 AMU

Throughout the following assumptions are being made:
  (1) The electronic state is orbitally nondegenerate
      but the spin degeneracy is treated
  (2) There are no thermally accessible electronically excited states
  (3) Hindered rotations indicated by low frequency modes are not
      treated as such but are treated as vibrations and this may
      cause some error
  (4) All equations used are the standard statistical mechanics
      equations for an ideal gas
  (5) All vibrations are strictly harmonic

freq.      24.20  E(vib)   ...       0.56 
freq.      33.73  E(vib)   ...       0.55 
freq.      56.59  E(vib)   ...       0.52 
freq.      72.21  E(vib)   ...       0.50 
freq.      79.05  E(vib)   ...       0.49 
freq.      98.11  E(vib)   ...       0.46 
freq.     117.14  E(vib)   ...       0.44 
freq.     138.24  E(vib)   ...       0.42 
freq.     174.47  E(vib)   ...       0.38 
freq.     203.48  E(vib)   ...       0.35 
freq.     216.86  E(vib)   ...       0.34 
freq.     229.05  E(vib)   ...       0.32 
freq.     257.19  E(vib)   ...       0.30 
freq.     285.42  E(vib)   ...       0.28 
freq.     298.01  E(vib)   ...       0.27 
freq.     349.79  E(vib)   ...       0.23 
freq.     362.24  E(vib)   ...       0.22 
freq.     392.75  E(vib)   ...       0.20 
freq.     455.34  E(vib)   ...       0.16 
freq.     491.00  E(vib)   ...       0.14 
freq.     525.22  E(vib)   ...       0.13 
freq.     563.14  E(vib)   ...       0.11 
freq.     588.96  E(vib)   ...       0.10 
freq.     662.24  E(vib)   ...       0.08 
freq.     681.54  E(vib)   ...       0.08 
freq.     701.00  E(vib)   ...       0.07 
freq.     772.62  E(vib)   ...       0.05 
freq.     809.16  E(vib)   ...       0.05 
freq.     861.72  E(vib)   ...       0.04 
freq.     873.73  E(vib)   ...       0.04 
freq.     880.35  E(vib)   ...       0.04 
freq.     923.08  E(vib)   ...       0.03 
freq.     949.53  E(vib)   ...       0.03 
freq.     960.69  E(vib)   ...       0.03 
freq.    1006.18  E(vib)   ...       0.02 
freq.    1026.71  E(vib)   ...       0.02 
freq.    1042.03  E(vib)   ...       0.02 
freq.    1060.72  E(vib)   ...       0.02 
freq.    1077.05  E(vib)   ...       0.02 
freq.    1115.83  E(vib)   ...       0.01 
freq.    1133.75  E(vib)   ...       0.01 
freq.    1145.79  E(vib)   ...       0.01 
freq.    1150.61  E(vib)   ...       0.01 
freq.    1180.42  E(vib)   ...       0.01 
freq.    1195.47  E(vib)   ...       0.01 
freq.    1232.02  E(vib)   ...       0.01 
freq.    1258.09  E(vib)   ...       0.01 
freq.    1273.06  E(vib)   ...       0.01 
freq.    1304.37  E(vib)   ...       0.01 
freq.    1319.30  E(vib)   ...       0.01 
freq.    1329.13  E(vib)   ...       0.01 
freq.    1359.70  E(vib)   ...       0.01 
freq.    1366.18  E(vib)   ...       0.01 
freq.    1388.53  E(vib)   ...       0.00 
freq.    1412.78  E(vib)   ...       0.00 
freq.    1423.94  E(vib)   ...       0.00 
freq.    1435.66  E(vib)   ...       0.00 
freq.    1452.31  E(vib)   ...       0.00 
freq.    1469.96  E(vib)   ...       0.00 
freq.    1481.78  E(vib)   ...       0.00 
freq.    1483.68  E(vib)   ...       0.00 
freq.    1487.70  E(vib)   ...       0.00 
freq.    1496.37  E(vib)   ...       0.00 
freq.    1496.53  E(vib)   ...       0.00 
freq.    1503.55  E(vib)   ...       0.00 
freq.    1506.13  E(vib)   ...       0.00 
freq.    1573.55  E(vib)   ...       0.00 
freq.    1596.20  E(vib)   ...       0.00 
freq.    1655.94  E(vib)   ...       0.00 
freq.    1660.09  E(vib)   ...       0.00 
freq.    1747.41  E(vib)   ...       0.00 
freq.    1792.10  E(vib)   ...       0.00 
freq.    3019.70  E(vib)   ...       0.00 
freq.    3020.92  E(vib)   ...       0.00 
freq.    3073.47  E(vib)   ...       0.00 
freq.    3087.53  E(vib)   ...       0.00 
freq.    3089.65  E(vib)   ...       0.00 
freq.    3106.34  E(vib)   ...       0.00 
freq.    3114.98  E(vib)   ...       0.00 
freq.    3126.32  E(vib)   ...       0.00 
freq.    3160.62  E(vib)   ...       0.00 
freq.    3168.04  E(vib)   ...       0.00 
freq.    3180.71  E(vib)   ...       0.00 
freq.    3187.16  E(vib)   ...       0.00 
freq.    3199.05  E(vib)   ...       0.00 
freq.    3222.27  E(vib)   ...       0.00 
freq.    3414.66  E(vib)   ...       0.00 
freq.    3502.43  E(vib)   ...       0.00 
freq.    3506.03  E(vib)   ...       0.00 
freq.    3591.91  E(vib)   ...       0.00 
freq.    3647.86  E(vib)   ...       0.00 

------------
INNER ENERGY
------------

The inner energy is: U= E(el) + E(ZPE) + E(vib) + E(rot) + E(trans)
    E(el)   - is the total energy from the electronic structure calculation
              = E(kin-el) + E(nuc-el) + E(el-el) + E(nuc-nuc)
    E(ZPE)  - the the zero temperature vibrational energy from the frequency calculation
    E(vib)  - the the finite temperature correction to E(ZPE) due to population
              of excited vibrational states
    E(rot)  - is the rotational thermal energy
    E(trans)- is the translational thermal energy

Summary of contributions to the inner energy U:
Electronic energy                ...   -668.81725371 Eh
Zero point energy                ...      0.29194291 Eh     183.20 kcal/mol
Thermal vibrational correction   ...      0.01316537 Eh       8.26 kcal/mol
Thermal rotational correction    ...      0.00141627 Eh       0.89 kcal/mol
Thermal translational correction ...      0.00141627 Eh       0.89 kcal/mol
-----------------------------------------------------------------------
Total thermal energy                   -668.50931288 Eh


Summary of corrections to the electronic energy:
(perhaps to be used in another calculation)
Total thermal correction                  0.01599791 Eh      10.04 kcal/mol
Non-thermal (ZPE) correction              0.29194291 Eh     183.20 kcal/mol
-----------------------------------------------------------------------
Total correction                          0.30794083 Eh     193.24 kcal/mol


--------
ENTHALPY
--------

The enthalpy is H = U + kB*T
                kB is Boltzmann's constant
Total free energy                 ...   -668.50931288 Eh 
Thermal Enthalpy correction       ...      0.00094421 Eh       0.59 kcal/mol
-----------------------------------------------------------------------
Total Enthalpy                    ...   -668.50836867 Eh


Note: Only C1 symmetry has been detected, increase convergence thresholds 
      if your molecule has a higher symmetry. Symmetry factor of 1.0 is   
      used for the rotational entropy correction. 
 

Note: Rotational entropy computed according to Herzberg 
Infrared and Raman Spectra, Chapter V,1, Van Nostrand Reinhold, 1945 
Point Group:  C1, Symmetry Number:   1  
Rotational constants in cm-1:     0.031350     0.013021     0.010286 

Vibrational entropy computed according to the QRRHO of S. Grimme
Chem.Eur.J. 2012 18 9955


-------
ENTROPY
-------

The entropy contributions are T*S = T*(S(el)+S(vib)+S(rot)+S(trans))
     S(el)   - electronic entropy
     S(vib)  - vibrational entropy
     S(rot)  - rotational entropy
     S(trans)- translational entropy
The entropies will be listed as multiplied by the temperature to get
units of energy

Electronic entropy                ...      0.00065446 Eh      0.41 kcal/mol
Vibrational entropy               ...      0.02378736 Eh     14.93 kcal/mol
Rotational entropy                ...      0.01535562 Eh      9.64 kcal/mol
Translational entropy             ...      0.01986189 Eh     12.46 kcal/mol
-----------------------------------------------------------------------
Final entropy term                ...      0.05965932 Eh     37.44 kcal/mol

In case the symmetry of your molecule has not been determined correctly
or in case you have a reason to use a different symmetry number we print 
out the resulting rotational entropy values for sn=1,12 :
 --------------------------------------------------------
|  sn= 1 | S(rot)=       0.01535562 Eh      9.64 kcal/mol|
|  sn= 2 | S(rot)=       0.01470116 Eh      9.23 kcal/mol|
|  sn= 3 | S(rot)=       0.01431833 Eh      8.98 kcal/mol|
|  sn= 4 | S(rot)=       0.01404671 Eh      8.81 kcal/mol|
|  sn= 5 | S(rot)=       0.01383602 Eh      8.68 kcal/mol|
|  sn= 6 | S(rot)=       0.01366387 Eh      8.57 kcal/mol|
|  sn= 7 | S(rot)=       0.01351833 Eh      8.48 kcal/mol|
|  sn= 8 | S(rot)=       0.01339225 Eh      8.40 kcal/mol|
|  sn= 9 | S(rot)=       0.01328104 Eh      8.33 kcal/mol|
|  sn=10 | S(rot)=       0.01318156 Eh      8.27 kcal/mol|
|  sn=11 | S(rot)=       0.01309157 Eh      8.22 kcal/mol|
|  sn=12 | S(rot)=       0.01300942 Eh      8.16 kcal/mol|
 --------------------------------------------------------


-------------------
GIBBS FREE ENERGY
-------------------

The Gibbs free energy is G = H - T*S

Total enthalpy                    ...   -668.50836867 Eh 
Total entropy correction          ...     -0.05965932 Eh    -37.44 kcal/mol
-----------------------------------------------------------------------
Final Gibbs free energy         ...   -668.56802799 Eh

For completeness - the Gibbs free energy minus the electronic energy
G-E(el)                           ...      0.24922571 Eh    156.39 kcal/mol


Timings for individual modules:

Sum of individual times         ...     1497.500 sec (=  24.958 min)
GTO integral calculation        ...       28.678 sec (=   0.478 min)   1.9 %
SCF iterations                  ...      465.115 sec (=   7.752 min)  31.1 %
SCF Gradient evaluation         ...      124.480 sec (=   2.075 min)   8.3 %
Geometry relaxation             ...        0.448 sec (=   0.007 min)   0.0 %
Analytical frequency calculation...      878.778 sec (=  14.646 min)  58.7 %
                             ****ORCA TERMINATED NORMALLY****
TOTAL RUN TIME: 0 days 0 hours 25 minutes 20 seconds 819 msec
