
                                 *****************
                                 * O   R   C   A *
                                 *****************

                                            #,                                       
                                            ###                                      
                                            ####                                     
                                            #####                                    
                                            ######                                   
                                           ########,                                 
                                     ,,################,,,,,                         
                               ,,#################################,,                 
                          ,,##########################################,,             
                       ,#########################################, ''#####,          
                    ,#############################################,,   '####,        
                  ,##################################################,,,,####,       
                ,###########''''           ''''###############################       
              ,#####''   ,,,,##########,,,,          '''####'''          '####       
            ,##' ,,,,###########################,,,                        '##       
           ' ,,###''''                  '''############,,,                           
         ,,##''                                '''############,,,,        ,,,,,,###''
      ,#''                                            '''#######################'''  
     '                                                          ''''####''''         
             ,#######,   #######,   ,#######,      ##                                
            ,#'     '#,  ##    ##  ,#'     '#,    #''#        ######   ,####,        
            ##       ##  ##   ,#'  ##            #'  '#       #        #'  '#        
            ##       ##  #######   ##           ,######,      #####,   #    #        
            '#,     ,#'  ##    ##  '#,     ,#' ,#      #,         ##   #,  ,#        
             '#######'   ##     ##  '#######'  #'      '#     #####' # '####'        



                  #######################################################
                  #                        -***-                        #
                  #          Department of theory and spectroscopy      #
                  #    Directorship and core code : Frank Neese         #
                  #        Max Planck Institute fuer Kohlenforschung    #
                  #                Kaiser Wilhelm Platz 1               #
                  #                 D-45470 Muelheim/Ruhr               #
                  #                      Germany                        #
                  #                                                     #
                  #                  All rights reserved                #
                  #                        -***-                        #
                  #######################################################


                         Program Version 5.0.4 -  RELEASE  -


 With contributions from (in alphabetic order):
   Daniel Aravena         : Magnetic Suceptibility
   Michael Atanasov       : Ab Initio Ligand Field Theory (pilot matlab implementation)
   Alexander A. Auer      : GIAO ZORA, VPT2 properties, NMR spectrum
   Ute Becker             : Parallelization
   Giovanni Bistoni       : ED, misc. LED, open-shell LED, HFLD
   Martin Brehm           : Molecular dynamics
   Dmytro Bykov           : SCF Hessian
   Vijay G. Chilkuri      : MRCI spin determinant printing, contributions to CSF-ICE
   Dipayan Datta          : RHF DLPNO-CCSD density
   Achintya Kumar Dutta   : EOM-CC, STEOM-CC
   Dmitry Ganyushin       : Spin-Orbit,Spin-Spin,Magnetic field MRCI
   Miquel Garcia          : C-PCM and meta-GGA Hessian, CC/C-PCM, Gaussian charge scheme
   Yang Guo               : DLPNO-NEVPT2, F12-NEVPT2, CIM, IAO-localization
   Andreas Hansen         : Spin unrestricted coupled pair/coupled cluster methods
   Benjamin Helmich-Paris : MC-RPA, TRAH-SCF, COSX integrals
   Lee Huntington         : MR-EOM, pCC
   Robert Izsak           : Overlap fitted RIJCOSX, COSX-SCS-MP3, EOM
   Marcus Kettner         : VPT2
   Christian Kollmar      : KDIIS, OOCD, Brueckner-CCSD(T), CCSD density, CASPT2, CASPT2-K
   Simone Kossmann        : Meta GGA functionals, TD-DFT gradient, OOMP2, MP2 Hessian
   Martin Krupicka        : Initial AUTO-CI
   Lucas Lang             : DCDCAS
   Marvin Lechner         : AUTO-CI (C++ implementation), FIC-MRCC
   Dagmar Lenk            : GEPOL surface, SMD
   Dimitrios Liakos       : Extrapolation schemes; Compound Job, initial MDCI parallelization
   Dimitrios Manganas     : Further ROCIS development; embedding schemes
   Dimitrios Pantazis     : SARC Basis sets
   Anastasios Papadopoulos: AUTO-CI, single reference methods and gradients
   Taras Petrenko         : DFT Hessian,TD-DFT gradient, ASA, ECA, R-Raman, ABS, FL, XAS/XES, NRVS
   Peter Pinski           : DLPNO-MP2, DLPNO-MP2 Gradient
   Christoph Reimann      : Effective Core Potentials
   Marius Retegan         : Local ZFS, SOC
   Christoph Riplinger    : Optimizer, TS searches, QM/MM, DLPNO-CCSD(T), (RO)-DLPNO pert. Triples
   Tobias Risthaus        : Range-separated hybrids, TD-DFT gradient, RPA, STAB
   Michael Roemelt        : Original ROCIS implementation
   Masaaki Saitow         : Open-shell DLPNO-CCSD energy and density
   Barbara Sandhoefer     : DKH picture change effects
   Avijit Sen             : IP-ROCIS
   Kantharuban Sivalingam : CASSCF convergence, NEVPT2, FIC-MRCI
   Bernardo de Souza      : ESD, SOC TD-DFT
   Georgi Stoychev        : AutoAux, RI-MP2 NMR, DLPNO-MP2 response
   Willem Van den Heuvel  : Paramagnetic NMR
   Boris Wezisla          : Elementary symmetry handling
   Frank Wennmohs         : Technical directorship


 We gratefully acknowledge several colleagues who have allowed us to
 interface, adapt or use parts of their codes:
   Stefan Grimme, W. Hujo, H. Kruse, P. Pracht,  : VdW corrections, initial TS optimization,
                  C. Bannwarth, S. Ehlert          DFT functionals, gCP, sTDA/sTD-DF
   Ed Valeev, F. Pavosevic, A. Kumar             : LibInt (2-el integral package), F12 methods
   Garnet Chan, S. Sharma, J. Yang, R. Olivares  : DMRG
   Ulf Ekstrom                                   : XCFun DFT Library
   Mihaly Kallay                                 : mrcc  (arbitrary order and MRCC methods)
   Jiri Pittner, Ondrej Demel                    : Mk-CCSD
   Frank Weinhold                                : gennbo (NPA and NBO analysis)
   Christopher J. Cramer and Donald G. Truhlar   : smd solvation model
   Lars Goerigk                                  : TD-DFT with DH, B97 family of functionals
   V. Asgeirsson, H. Jonsson                     : NEB implementation
   FAccTs GmbH                                   : IRC, NEB, NEB-TS, DLPNO-Multilevel, CI-OPT
                                                   MM, QMMM, 2- and 3-layer-ONIOM, Crystal-QMMM,
                                                   LR-CPCM, SF, NACMEs, symmetry and pop. for TD-DFT,
                                                   nearIR, NL-DFT gradient (VV10), updates on ESD,
                                                   ML-optimized integration grids
   S Lehtola, MJT Oliveira, MAL Marques          : LibXC Library
   Liviu Ungur et al                             : ANISO software


 Your calculation uses the libint2 library for the computation of 2-el integrals
 For citations please refer to: http://libint.valeyev.net

 Your ORCA version has been built with support for libXC version: 5.1.0
 For citations please refer to: https://tddft.org/programs/libxc/

 This ORCA versions uses:
   CBLAS   interface :  Fast vector & matrix operations
   LAPACKE interface :  Fast linear algebra routines
   SCALAPACK package :  Parallel linear algebra routines
   Shared memory     :  Shared parallel matrices
   BLAS/LAPACK       :  OpenBLAS 0.3.15  USE64BITINT DYNAMIC_ARCH NO_AFFINITY Zen SINGLE_THREADED
        Core in use  :  Zen
   Copyright (c) 2011-2014, The OpenBLAS Project




***************************************
The coordinates will be read from file: model.xyz
***************************************


================================================================================

----- Orbital basis set information -----
Your calculation utilizes the basis: EPR-II
   V. Barone, in Recent Advances in Density Functional Methods, Part 1 (ed. D. P. Chong), World Scientific, Singapore, 1995, p. 287.

----- AuxJ basis set information -----
Your calculation utilizes the auxiliary basis: def2/J
   F. Weigend, Phys. Chem. Chem. Phys. 8, 1057 (2006).

================================================================================
                                        WARNINGS
                       Please study these warnings very carefully!
================================================================================


WARNING: your system is open-shell and RHF/RKS was chosen
  ===> : WILL SWITCH to UHF/UKS


WARNING: Geometry Optimization
  ===> : Switching off AutoStart
         For restart on a previous wavefunction, please use MOREAD

INFO   : the flag for use of the SHARK integral package has been found!

================================================================================
                                       INPUT FILE
================================================================================
NAME = opt.inp
|  1> ! B3LYP EPR-II OPT
|  2> %pal nprocs 16 end
|  3> *XYZFile 1 2 model.xyz
|  4> 
|  5>                          ****END OF INPUT****
================================================================================

                       *****************************
                       * Geometry Optimization Run *
                       *****************************

Geometry optimization settings:
Update method            Update   .... BFGS
Choice of coordinates    CoordSys .... Z-matrix Internals
Initial Hessian          InHess   .... Almoef's Model

Convergence Tolerances:
Energy Change            TolE     ....  5.0000e-06 Eh
Max. Gradient            TolMAXG  ....  3.0000e-04 Eh/bohr
RMS Gradient             TolRMSG  ....  1.0000e-04 Eh/bohr
Max. Displacement        TolMAXD  ....  4.0000e-03 bohr
RMS Displacement         TolRMSD  ....  2.0000e-03 bohr
Strict Convergence                ....  False
------------------------------------------------------------------------------
                        ORCA OPTIMIZATION COORDINATE SETUP
------------------------------------------------------------------------------

The optimization will be done in new redundant internal coordinates
Making redundant internal coordinates   ...  (new redundants) done
Evaluating the initial hessian          ...  (Almloef) done
Evaluating the coordinates              ...  done
Calculating the B-matrix                .... done
Calculating the G-matrix                .... done
Diagonalizing the G-matrix              .... done
Small eigenvalue found = 4.045e-03
Small eigenvalue found = 8.335e-03
Small eigenvalue found = 9.948e-03
Small eigenvalue found = 1.731e-02
Small eigenvalue found = 1.920e-02
The first mode is                       ....   67
The number of degrees of freedom        ....   93

    -----------------------------------------------------------------
                    Redundant Internal Coordinates


    -----------------------------------------------------------------
         Definition                    Initial Value    Approx d2E/dq
    -----------------------------------------------------------------
      1. B(C   1,N   0)                  1.4473         0.453387   
      2. B(C   2,C   1)                  1.5437         0.355198   
      3. B(O   3,C   2)                  1.2168         1.057402   
      4. B(C   4,C   1)                  1.5574         0.337745   
      5. B(C   5,C   4)                  1.4988         0.418873   
      6. B(C   6,C   5)                  1.5058         0.408330   
      7. B(C   7,C   6)                  1.5410         0.358720   
      8. B(N   8,C   7)                  1.5193         0.347954   
      9. B(H   9,C   6)                  1.1038         0.342237   
     10. B(H  10,C   6)                  1.0981         0.349509   
     11. B(H  11,C   7)                  1.0947         0.353970   
     12. B(H  12,C   7)                  1.0967         0.351315   
     13. B(H  13,N   8)                  1.0244         0.410416   
     14. B(H  14,N   8)                  1.0244         0.410426   
     15. B(H  15,N   0)                  1.0122         0.429223   
     16. B(C  16,N   0)                  1.3499         0.648461   
     17. B(N  17,C   2)                  1.3459         0.658124   
     18. B(H  18,N  17)                  1.0080         0.435877   
     19. B(O  19,C  16)                  1.2249         1.026180   
     20. B(H  20,N   8)                  1.0243         0.410501   
     21. B(C  21,N  17)                  1.4553         0.440241   
     22. B(H  22,C  21)                  1.0967         0.351343   
     23. B(H  23,C  21)                  1.0932         0.355930   
     24. B(H  24,C  21)                  1.0949         0.353704   
     25. B(C  25,C  16)                  1.5207         0.386546   
     26. B(H  26,C  25)                  1.0938         0.355148   
     27. B(H  27,C  25)                  1.0977         0.350058   
     28. B(H  28,C  25)                  1.0951         0.353446   
     29. B(H  29,C   1)                  1.0991         0.348244   
     30. B(H  30,C   4)                  1.1044         0.341512   
     31. B(H  31,C   4)                  1.0962         0.352035   
     32. B(H  32,C   5)                  1.0881         0.362621   
     33. A(C   1,N   0,H  15)          114.9983         0.339767   
     34. A(C   1,N   0,C  16)          124.8431         0.408428   
     35. A(H  15,N   0,C  16)          120.1554         0.360924   
     36. A(N   0,C   1,C   2)          106.3554         0.370056   
     37. A(N   0,C   1,H  29)          109.5311         0.330997   
     38. A(N   0,C   1,C   4)          113.9869         0.366870   
     39. A(C   2,C   1,C   4)          110.0560         0.354117   
     40. A(C   4,C   1,H  29)          107.2030         0.317273   
     41. A(C   2,C   1,H  29)          109.6842         0.319891   
     42. A(O   3,C   2,N  17)          123.3997         0.477210   
     43. A(C   1,C   2,N  17)          115.7647         0.394790   
     44. A(C   1,C   2,O   3)          120.7994         0.429435   
     45. A(C   1,C   4,H  30)          107.1925         0.316267   
     46. A(H  30,C   4,H  31)          106.7807         0.287413   
     47. A(C   5,C   4,H  31)          110.4425         0.329259   
     48. A(C   1,C   4,C   5)          114.2548         0.364199   
     49. A(C   1,C   4,H  31)          107.6943         0.317833   
     50. A(C   5,C   4,H  30)          110.1510         0.327615   
     51. A(C   4,C   5,C   6)          119.6701         0.376277   
     52. A(C   4,C   5,H  32)          120.3976         0.330876   
     53. A(C   6,C   5,H  32)          119.9323         0.329484   
     54. A(C   5,C   6,C   7)          109.5252         0.366372   
     55. A(H   9,C   6,H  10)          107.8543         0.287185   
     56. A(C   7,C   6,H  10)          110.1166         0.320597   
     57. A(C   5,C   6,H  10)          111.0072         0.327488   
     58. A(C   7,C   6,H   9)          108.6584         0.319498   
     59. A(C   5,C   6,H   9)          109.6312         0.326356   
     60. A(N   8,C   7,H  11)          106.3369         0.317769   
     61. A(C   6,C   7,H  11)          111.7201         0.321263   
     62. A(H  11,C   7,H  12)          108.9704         0.288936   
     63. A(C   6,C   7,N   8)          110.7685         0.354306   
     64. A(N   8,C   7,H  12)          106.7296         0.317379   
     65. A(C   6,C   7,H  12)          112.0337         0.320868   
     66. A(H  14,N   8,H  20)          107.6630         0.298199   
     67. A(H  13,N   8,H  20)          108.1378         0.298198   
     68. A(C   7,N   8,H  20)          111.4733         0.322814   
     69. A(H  13,N   8,H  14)          107.6936         0.298189   
     70. A(C   7,N   8,H  14)          110.4601         0.322804   
     71. A(C   7,N   8,H  13)          111.2557         0.322803   
     72. A(N   0,C  16,O  19)          122.5659         0.473297   
     73. A(O  19,C  16,C  25)          121.8602         0.433668   
     74. A(N   0,C  16,C  25)          115.5690         0.399659   
     75. A(C   2,N  17,H  18)          119.3636         0.362787   
     76. A(H  18,N  17,C  21)          118.8179         0.338972   
     77. A(C   2,N  17,C  21)          121.3447         0.407372   
     78. A(H  23,C  21,H  24)          109.4124         0.289493   
     79. A(H  22,C  21,H  24)          108.3649         0.288905   
     80. A(N  17,C  21,H  24)          109.9235         0.330239   
     81. A(H  22,C  21,H  23)          109.4232         0.289189   
     82. A(N  17,C  21,H  23)          108.7414         0.330582   
     83. A(N  17,C  21,H  22)          110.9575         0.329874   
     84. A(H  27,C  25,H  28)          108.4337         0.288707   
     85. A(H  26,C  25,H  28)          110.2513         0.289360   
     86. A(C  16,C  25,H  28)          113.0460         0.325145   
     87. A(H  26,C  25,H  27)          107.6855         0.288924   
     88. A(C  16,C  25,H  27)          108.1200         0.324631   
     89. A(C  16,C  25,H  26)          109.1408         0.325402   
     90. D(H  29,C   1,N   0,H  15)    118.6960         0.017539   
     91. D(C   4,C   1,N   0,C  16)     58.1216         0.017539   
     92. D(H  29,C   1,N   0,C  16)    -61.9655         0.017539   
     93. D(C   4,C   1,N   0,H  15)   -121.2168         0.017539   
     94. D(C   2,C   1,N   0,H  15)      0.2340         0.017539   
     95. D(C   2,C   1,N   0,C  16)    179.5725         0.017539   
     96. D(O   3,C   2,C   1,N   0)    -25.4556         0.009508   
     97. D(N  17,C   2,C   1,C   4)    -79.4109         0.009508   
     98. D(N  17,C   2,C   1,H  29)     38.2990         0.009508   
     99. D(O   3,C   2,C   1,H  29)   -143.8168         0.009508   
    100. D(O   3,C   2,C   1,C   4)     98.4733         0.009508   
    101. D(N  17,C   2,C   1,N   0)    156.6602         0.009508   
    102. D(C   5,C   4,C   1,H  29)    170.2786         0.009247   
    103. D(C   5,C   4,C   1,C   2)    -70.4855         0.009247   
    104. D(H  31,C   4,C   1,C   2)    166.4317         0.009247   
    105. D(H  31,C   4,C   1,N   0)    -74.1914         0.009247   
    106. D(H  30,C   4,C   1,H  29)    -67.3821         0.009247   
    107. D(H  31,C   4,C   1,H  29)     47.1958         0.009247   
    108. D(H  30,C   4,C   1,C   2)     51.8538         0.009247   
    109. D(H  30,C   4,C   1,N   0)    171.2307         0.009247   
    110. D(C   5,C   4,C   1,N   0)     48.8914         0.009247   
    111. D(H  32,C   5,C   4,H  31)    160.5279         0.012976   
    112. D(H  32,C   5,C   4,H  30)    -81.7630         0.012976   
    113. D(C   6,C   5,C   4,H  31)    -19.5103         0.012976   
    114. D(C   6,C   5,C   4,H  30)     98.1988         0.012976   
    115. D(C   6,C   5,C   4,C   1)   -141.0921         0.012976   
    116. D(H  32,C   5,C   4,C   1)     38.9461         0.012976   
    117. D(H   9,C   6,C   5,H  32)    138.2103         0.012353   
    118. D(H   9,C   6,C   5,C   4)    -41.7517         0.012353   
    119. D(C   7,C   6,C   5,H  32)   -102.6538         0.012353   
    120. D(C   7,C   6,C   5,C   4)     77.3843         0.012353   
    121. D(H  10,C   6,C   5,H  32)     19.1540         0.012353   
    122. D(H  10,C   6,C   5,C   4)   -160.8079         0.012353   
    123. D(H  12,C   7,C   6,H  10)   -173.9343         0.010329   
    124. D(H  12,C   7,C   6,H   9)     68.1410         0.010329   
    125. D(H  12,C   7,C   6,C   5)    -51.5934         0.010329   
    126. D(H  11,C   7,C   6,H  10)    -51.3383         0.010329   
    127. D(H  11,C   7,C   6,H   9)   -169.2630         0.010329   
    128. D(H  11,C   7,C   6,C   5)     71.0026         0.010329   
    129. D(N   8,C   7,C   6,H  10)     67.0141         0.010329   
    130. D(N   8,C   7,C   6,H   9)    -50.9106         0.010329   
    131. D(N   8,C   7,C   6,C   5)   -170.6450         0.010329   
    132. D(H  20,N   8,C   7,H  12)    178.7154         0.011168   
    133. D(H  20,N   8,C   7,H  11)     62.4945         0.011168   
    134. D(H  20,N   8,C   7,C   6)    -59.0799         0.011168   
    135. D(H  14,N   8,C   7,H  12)    -61.6302         0.011168   
    136. D(H  14,N   8,C   7,H  11)   -177.8511         0.011168   
    137. D(H  14,N   8,C   7,C   6)     60.5745         0.011168   
    138. D(H  13,N   8,C   7,H  12)     57.9209         0.011168   
    139. D(H  13,N   8,C   7,H  11)    -58.3000         0.011168   
    140. D(H  13,N   8,C   7,C   6)   -179.8744         0.011168   
    141. D(C  25,C  16,N   0,H  15)     -7.8231         0.034303   
    142. D(C  25,C  16,N   0,C   1)    172.8703         0.034303   
    143. D(O  19,C  16,N   0,H  15)    172.9675         0.034303   
    144. D(O  19,C  16,N   0,C   1)     -6.3391         0.034303   
    145. D(C  21,N  17,C   2,O   3)      0.9591         0.035425   
    146. D(C  21,N  17,C   2,C   1)    178.7821         0.035425   
    147. D(H  18,N  17,C   2,O   3)    172.9672         0.035425   
    148. D(H  18,N  17,C   2,C   1)     -9.2097         0.035425   
    149. D(H  23,C  21,N  17,H  18)     14.4939         0.016527   
    150. D(H  23,C  21,N  17,C   2)   -173.4554         0.016527   
    151. D(H  22,C  21,N  17,H  18)   -105.9033         0.016527   
    152. D(H  22,C  21,N  17,C   2)     66.1474         0.016527   
    153. D(H  24,C  21,N  17,H  18)    134.2492         0.016527   
    154. D(H  24,C  21,N  17,C   2)    -53.7002         0.016527   
    155. D(H  28,C  25,C  16,O  19)   -156.6929         0.011127   
    156. D(H  28,C  25,C  16,N   0)     24.0916         0.011127   
    157. D(H  27,C  25,C  16,O  19)     83.2557         0.011127   
    158. D(H  27,C  25,C  16,N   0)    -95.9599         0.011127   
    159. D(H  26,C  25,C  16,O  19)    -33.6116         0.011127   
    160. D(H  26,C  25,C  16,N   0)    147.1728         0.011127   
    -----------------------------------------------------------------

Number of atoms                         .... 33
Number of degrees of freedom            .... 160

         *************************************************************
         *                GEOMETRY OPTIMIZATION CYCLE   1            *
         *************************************************************
---------------------------------
CARTESIAN COORDINATES (ANGSTROEM)
---------------------------------
  N     -7.595004    1.422317    0.288299
  C     -6.194929    1.056702    0.316057
  C     -5.887597    0.622828    1.765335
  O     -6.551332    1.041736    2.695131
  C     -5.232491    2.203289   -0.113698
  C     -5.493635    3.513511    0.565758
  C     -5.371710    4.795333   -0.214918
  C     -6.620530    4.980999   -1.098545
  N     -6.429593    6.137745   -2.064917
  H     -4.481773    4.749571   -0.866379
  H     -5.253185    5.655746    0.457036
  H     -7.506651    5.220957   -0.502290
  H     -6.829918    4.092753   -1.706803
  H     -7.256663    6.269170   -2.654895
  H     -5.631667    5.960508   -2.682394
  H     -8.077993    1.333211    1.173360
  C     -8.254417    1.867301   -0.802270
  N     -4.830169   -0.195382    1.919286
  H     -4.388751   -0.591313    1.104129
  O     -7.688577    2.111531   -1.860876
  H     -6.249395    7.015367   -1.568345
  C     -4.416114   -0.657819    3.235574
  H     -5.176949   -1.311508    3.678942
  H     -3.477320   -1.208797    3.135023
  H     -4.266156    0.198136    3.901616
  C     -9.757585    2.030085   -0.639353
  H    -10.096014    2.869706   -1.253221
  H    -10.242572    1.121882   -1.020008
  H    -10.062691    2.174929    0.402340
  H     -6.021709    0.213565   -0.367437
  H     -4.203614    1.862808    0.099008
  H     -5.310745    2.313816   -1.201466
  H     -5.769574    3.542740    1.617883

----------------------------
CARTESIAN COORDINATES (A.U.)
----------------------------
  NO LB      ZA    FRAG     MASS         X           Y           Z
   0 N     7.0000    0    14.007  -14.352478    2.687790    0.544806
   1 C     6.0000    0    12.011  -11.706719    1.996877    0.597261
   2 C     6.0000    0    12.011  -11.125946    1.176974    3.336000
   3 O     8.0000    0    15.999  -12.380223    1.968596    5.093059
   4 C     6.0000    0    12.011   -9.887975    4.163613   -0.214858
   5 C     6.0000    0    12.011  -10.381466    6.639574    1.069128
   6 C     6.0000    0    12.011  -10.151061    9.061866   -0.406136
   7 C     6.0000    0    12.011  -12.510989    9.412724   -2.075949
   8 N     7.0000    0    14.007  -12.150170   11.598657   -3.902128
   9 H     1.0000    0     1.008   -8.469324    8.975388   -1.637219
  10 H     1.0000    0     1.008   -9.927081   10.687811    0.863673
  11 H     1.0000    0     1.008  -14.185515    9.866179   -0.949191
  12 H     1.0000    0     1.008  -12.906675    7.734182   -3.225390
  13 H     1.0000    0     1.008  -13.713106   11.847014   -5.017024
  14 H     1.0000    0     1.008  -10.642308   11.263728   -5.068990
  15 H     1.0000    0     1.008  -15.265194    2.519404    2.217329
  16 C     6.0000    0    12.011  -15.598588    3.528687   -1.516071
  17 N     7.0000    0    14.007   -9.127697   -0.369218    3.626925
  18 H     1.0000    0     1.008   -8.293537   -1.117420    2.086501
  19 O     8.0000    0    15.999  -14.529305    3.990215   -3.516546
  20 H     1.0000    0     1.008  -11.809645   13.257122   -2.963743
  21 C     6.0000    0    12.011   -8.345246   -1.243098    6.114349
  22 H     1.0000    0     1.008   -9.783016   -2.478391    6.952193
  23 H     1.0000    0     1.008   -6.571182   -2.284295    5.924335
  24 H     1.0000    0     1.008   -8.061866    0.374423    7.372986
  25 C     6.0000    0    12.011  -18.439163    3.836305   -1.208202
  26 H     1.0000    0     1.008  -19.078702    5.422958   -2.368244
  27 H     1.0000    0     1.008  -19.355656    2.120050   -1.927536
  28 H     1.0000    0     1.008  -19.015730    4.110020    0.760312
  29 H     1.0000    0     1.008  -11.379381    0.403579   -0.694355
  30 H     1.0000    0     1.008   -7.943679    3.520197    0.187098
  31 H     1.0000    0     1.008  -10.035854    4.372479   -2.270442
  32 H     1.0000    0     1.008  -10.902915    6.694808    3.057356

--------------------------------
INTERNAL COORDINATES (ANGSTROEM)
--------------------------------
 N      0   0   0     0.000000000000     0.00000000     0.00000000
 C      1   0   0     1.447292244301     0.00000000     0.00000000
 C      2   1   0     1.543731300254   106.35541327     0.00000000
 O      3   2   1     1.216777984805   120.79937524   334.54437384
 C      2   1   3     1.557445990215   113.98692626   238.54917371
 C      5   2   1     1.498845667157   114.25481172    48.89143328
 C      6   5   2     1.505784965486   119.67008548   218.90787249
 C      7   6   5     1.541045077564   109.52519508    77.38425036
 N      8   7   6     1.519339688440   110.76853118   189.35501794
 H      7   6   5     1.103849382449   109.63120340   318.24833115
 H      7   6   5     1.098126078513   111.00715418   199.19208746
 H      8   7   6     1.094673601321   111.72009023    71.00261804
 H      8   7   6     1.096723340512   112.03369295   308.40660723
 H      9   8   7     1.024398045688   111.25567270   180.12561547
 H      9   8   7     1.024390892762   110.46014954    60.57451003
 H      1   2   3     1.012201179153   114.99826525     0.23402002
 C      1   2   3     1.349880368250   124.84307366   179.57246431
 N      3   2   1     1.345853814381   115.76469475   156.66020227
 H     18   3   2     1.008013959295   119.36359232   350.79025709
 O     17   1   2     1.224936676623   122.56594602   353.66087870
 H      9   8   7     1.024341469078   111.47328477   300.92012313
 C     18   3   2     1.455301900273   121.34470141   178.78207648
 H     22  18   3     1.096701595408   110.95754390    66.14740192
 H     22  18   3     1.093170359332   108.74144748   186.54458211
 H     22  18   3     1.094878216768   109.92353154   306.29984384
 C     17   1   2     1.520708590023   115.56898893   172.87033553
 H     26  17   1     1.093769414962   109.14083168   147.17281741
 H     26  17   1     1.097699097386   108.12003390   264.04014144
 H     26  17   1     1.095077057481   113.04603825    24.09156797
 H      2   1   3     1.099112922863   109.53106676   118.46201420
 H      5   2   1     1.104427016568   107.19249136   171.23073010
 H      5   2   1     1.096165648097   107.69425712   285.80862868
 H      6   5   2     1.088100952020   120.39758873    38.94610845

---------------------------
INTERNAL COORDINATES (A.U.)
---------------------------
 N      0   0   0     0.000000000000     0.00000000     0.00000000
 C      1   0   0     2.734985977477     0.00000000     0.00000000
 C      2   1   0     2.917229381842   106.35541327     0.00000000
 O      3   2   1     2.299377157065   120.79937524   334.54437384
 C      2   1   3     2.943146389881   113.98692626   238.54917371
 C      5   2   1     2.832407827942   114.25481172    48.89143328
 C      6   5   2     2.845521201345   119.67008548   218.90787249
 C      7   6   5     2.912153156624   109.52519508    77.38425036
 N      8   7   6     2.871135915549   110.76853118   189.35501794
 H      7   6   5     2.085973025928   109.63120340   318.24833115
 H      7   6   5     2.075157548906   111.00715418   199.19208746
 H      8   7   6     2.068633312531   111.72009023    71.00261804
 H      8   7   6     2.072506758247   112.03369295   308.40660723
 H      9   8   7     1.935831758474   111.25567270   180.12561547
 H      9   8   7     1.935818241404   110.46014954    60.57451003
 H      1   2   3     1.912783021031   114.99826525     0.23402002
 C      1   2   3     2.550904209549   124.84307366   179.57246431
 N      3   2   1     2.543295125474   115.76469475   156.66020227
 H     18   3   2     1.904870322238   119.36359232   350.79025709
 O     17   1   2     2.314794850213   122.56594602   353.66087870
 H      9   8   7     1.935724844175   111.47328477   300.92012313
 C     18   3   2     2.750122033691   121.34470141   178.78207648
 H     22  18   3     2.072465665955   110.95754390    66.14740192
 H     22  18   3     2.065792596857   108.74144748   186.54458211
 H     22  18   3     2.069019979688   109.92353154   306.29984384
 C     17   1   2     2.873722764645   115.56898893   172.87033553
 H     26  17   1     2.066924647937   109.14083168   147.17281741
 H     26  17   1     2.074350671513   108.12003390   264.04014144
 H     26  17   1     2.069395734179   113.04603825    24.09156797
 H      2   1   3     2.077022414465   109.53106676   118.46201420
 H      5   2   1     2.087064596218   107.19249136   171.23073010
 H      5   2   1     2.071452872317   107.69425712   285.80862868
 H      6   5   2     2.056212805377   120.39758873    38.94610845

---------------------
BASIS SET INFORMATION
---------------------
There are 4 groups of distinct atoms

 Group   1 Type N   : 10s5p1d contracted to 6s2p1d pattern {511111/41/1}
 Group   2 Type C   : 10s5p1d contracted to 6s2p1d pattern {511111/41/1}
 Group   3 Type O   : 10s5p1d contracted to 6s2p1d pattern {511111/41/1}
 Group   4 Type H   : 6s1p contracted to 4s1p pattern {3111/1}

Atom   0N    basis set group =>   1
Atom   1C    basis set group =>   2
Atom   2C    basis set group =>   2
Atom   3O    basis set group =>   3
Atom   4C    basis set group =>   2
Atom   5C    basis set group =>   2
Atom   6C    basis set group =>   2
Atom   7C    basis set group =>   2
Atom   8N    basis set group =>   1
Atom   9H    basis set group =>   4
Atom  10H    basis set group =>   4
Atom  11H    basis set group =>   4
Atom  12H    basis set group =>   4
Atom  13H    basis set group =>   4
Atom  14H    basis set group =>   4
Atom  15H    basis set group =>   4
Atom  16C    basis set group =>   2
Atom  17N    basis set group =>   1
Atom  18H    basis set group =>   4
Atom  19O    basis set group =>   3
Atom  20H    basis set group =>   4
Atom  21C    basis set group =>   2
Atom  22H    basis set group =>   4
Atom  23H    basis set group =>   4
Atom  24H    basis set group =>   4
Atom  25C    basis set group =>   2
Atom  26H    basis set group =>   4
Atom  27H    basis set group =>   4
Atom  28H    basis set group =>   4
Atom  29H    basis set group =>   4
Atom  30H    basis set group =>   4
Atom  31H    basis set group =>   4
Atom  32H    basis set group =>   4
---------------------------------
AUXILIARY/J BASIS SET INFORMATION
---------------------------------
There are 4 groups of distinct atoms

 Group   1 Type N   : 12s5p4d2f1g contracted to 6s4p3d1f1g pattern {711111/2111/211/2/1}
 Group   2 Type C   : 12s5p4d2f1g contracted to 6s4p3d1f1g pattern {711111/2111/211/2/1}
 Group   3 Type O   : 12s5p4d2f1g contracted to 6s4p3d1f1g pattern {711111/2111/211/2/1}
 Group   4 Type H   : 5s2p1d contracted to 3s1p1d pattern {311/2/1}

Atom   0N    basis set group =>   1
Atom   1C    basis set group =>   2
Atom   2C    basis set group =>   2
Atom   3O    basis set group =>   3
Atom   4C    basis set group =>   2
Atom   5C    basis set group =>   2
Atom   6C    basis set group =>   2
Atom   7C    basis set group =>   2
Atom   8N    basis set group =>   1
Atom   9H    basis set group =>   4
Atom  10H    basis set group =>   4
Atom  11H    basis set group =>   4
Atom  12H    basis set group =>   4
Atom  13H    basis set group =>   4
Atom  14H    basis set group =>   4
Atom  15H    basis set group =>   4
Atom  16C    basis set group =>   2
Atom  17N    basis set group =>   1
Atom  18H    basis set group =>   4
Atom  19O    basis set group =>   3
Atom  20H    basis set group =>   4
Atom  21C    basis set group =>   2
Atom  22H    basis set group =>   4
Atom  23H    basis set group =>   4
Atom  24H    basis set group =>   4
Atom  25C    basis set group =>   2
Atom  26H    basis set group =>   4
Atom  27H    basis set group =>   4
Atom  28H    basis set group =>   4
Atom  29H    basis set group =>   4
Atom  30H    basis set group =>   4
Atom  31H    basis set group =>   4
Atom  32H    basis set group =>   4


           ************************************************************
           *        Program running with 16 parallel MPI-processes    *
           *              working on a common directory               *
           ************************************************************
------------------------------------------------------------------------------
                           ORCA GTO INTEGRAL CALCULATION
                           -- RI-GTO INTEGRALS CHOSEN --
------------------------------------------------------------------------------
------------------------------------------------------------------------------
                   ___                                                        
                  /   \      - P O W E R E D   B Y -                         
                 /     \                                                     
                 |  |  |   _    _      __       _____    __    __             
                 |  |  |  | |  | |    /  \     |  _  \  |  |  /  |          
                  \  \/   | |  | |   /    \    | | | |  |  | /  /          
                 / \  \   | |__| |  /  /\  \   | |_| |  |  |/  /          
                |  |  |   |  __  | /  /__\  \  |    /   |      \           
                |  |  |   | |  | | |   __   |  |    \   |  |\   \          
                \     /   | |  | | |  |  |  |  | |\  \  |  | \   \       
                 \___/    |_|  |_| |__|  |__|  |_| \__\ |__|  \__/        
                                                                              
                      - O R C A' S   B I G   F R I E N D -                    
                                      &                                       
                       - I N T E G R A L  F E E D E R -                       
                                                                              
 v1 FN, 2020, v2 2021                                                         
------------------------------------------------------------------------------


Reading SHARK input file opt.SHARKINP.tmp ... ok
----------------------
SHARK INTEGRAL PACKAGE
----------------------

Number of atoms                             ...     33
Number of basis functions                   ...    371
Number of shells                            ...    221
Maximum angular momentum                    ...      2
Integral batch strategy                     ... SHARK/LIBINT Hybrid
RI-J (if used) integral strategy            ... SPLIT-RIJ (Revised 2003 algorithm where possible)
Printlevel                                  ...      1
Contraction scheme used                     ... SEGMENTED contraction
Coulomb Range Separation                    ... NOT USED
Exchange Range Separation                   ... NOT USED
Finite Nucleus Model                        ... NOT USED
Auxiliary Coulomb fitting basis             ... AVAILABLE
   # of basis functions in Aux-J            ...    895
   # of shells in Aux-J                     ...    305
   Maximum angular momentum in Aux-J        ...      4
Auxiliary J/K fitting basis                 ... NOT available
Auxiliary Correlation fitting basis         ... NOT available
Auxiliary 'external' fitting basis          ... NOT available
Integral threshold                          ...     2.500000e-11
Primitive cut-off                           ...     2.500000e-12
Primitive pair pre-selection threshold      ...     2.500000e-12

Calculating pre-screening integrals         ... done (  0.0 sec) Dimension = 221
Organizing shell pair data                  ... done (  0.1 sec)
Shell pair information
Total number of shell pairs                 ...     24531
Shell pairs after pre-screening             ...     16384
Total number of primitive shell pairs       ...     64184
Primitive shell pairs kept                  ...     31227
          la=0 lb=0:   7708 shell pairs
          la=1 lb=0:   5581 shell pairs
          la=1 lb=1:    950 shell pairs
          la=2 lb=0:   1516 shell pairs
          la=2 lb=1:    542 shell pairs
          la=2 lb=2:     87 shell pairs

Calculating one electron integrals          ... done (  0.0 sec)
Calculating RI/J V-Matrix + Cholesky decomp.... done (  0.0 sec)
Calculating Nuclear repulsion               ... done (  0.0 sec) ENN=    963.417208068216 Eh

SHARK setup successfully completed in   0.2 seconds

Maximum memory used throughout the entire GTOINT-calculation: 23.4 MB


           ************************************************************
           *        Program running with 16 parallel MPI-processes    *
           *              working on a common directory               *
           ************************************************************
-------------------------------------------------------------------------------
                                 ORCA SCF
-------------------------------------------------------------------------------

------------
SCF SETTINGS
------------
Hamiltonian:
 Density Functional     Method          .... DFT(GTOs)
 Exchange Functional    Exchange        .... B88
   X-Alpha parameter    XAlpha          ....  0.666667
   Becke's b parameter  XBeta           ....  0.004200
 Correlation Functional Correlation     .... LYP
 LDA part of GGA corr.  LDAOpt          .... VWN-5
 Gradients option       PostSCFGGA      .... off
 Hybrid DFT is turned on
   Fraction HF Exchange ScalHFX         ....  0.200000
   Scaling of DF-GGA-X  ScalDFX         ....  0.720000
   Scaling of DF-GGA-C  ScalDFC         ....  0.810000
   Scaling of DF-LDA-C  ScalLDAC        ....  1.000000
   Perturbative correction              ....  0.000000
   Density functional embedding theory  .... OFF
   NL short-range parameter             ....  4.800000
 RI-approximation to the Coulomb term is turned on
   Number of AuxJ basis functions       .... 895
   RIJ-COSX (HFX calculated with COS-X)).... on


General Settings:
 Integral files         IntName         .... opt
 Hartree-Fock type      HFTyp           .... UHF
 Total Charge           Charge          ....    1
 Multiplicity           Mult            ....    2
 Number of Electrons    NEL             ....  109
 Basis Dimension        Dim             ....  371
 Nuclear Repulsion      ENuc            ....    963.4172080682 Eh

Convergence Acceleration:
 DIIS                   CNVDIIS         .... on
   Start iteration      DIISMaxIt       ....    12
   Startup error        DIISStart       ....  0.200000
   # of expansion vecs  DIISMaxEq       ....     5
   Bias factor          DIISBfac        ....   1.050
   Max. coefficient     DIISMaxC        ....  10.000
 Trust-Rad. Augm. Hess. CNVTRAH         .... auto
   Auto Start mean grad. ratio tolernc. ....  1.125000
   Auto Start start iteration           ....    20
   Auto Start num. interpolation iter.  ....    10
   Max. Number of Micro iterations      ....    16
   Max. Number of Macro iterations      .... Maxiter - #DIIS iter
   Number of Davidson start vectors     ....     2
   Converg. threshold I  (grad. norm)   ....   1.000e-05
   Converg. threshold II (energy diff.) ....   1.000e-08
   Grad. Scal. Fac. for Micro threshold ....   0.100
   Minimum threshold for Micro iter.    ....   0.010
   NR start threshold (gradient norm)   ....   0.001
   Initial trust radius                 ....   0.400
   Minimum AH scaling param. (alpha)    ....   1.000
   Maximum AH scaling param. (alpha)    .... 1000.000
   Orbital update algorithm             .... Taylor
   White noise on init. David. guess    .... on
   Maximum white noise                  ....   0.010
   Quad. conv. algorithm                .... NR
 SOSCF                  CNVSOSCF        .... off
 Level Shifting         CNVShift        .... on
   Level shift para.    LevelShift      ....    0.2500
   Turn off err/grad.   ShiftErr        ....    0.0010
 Zerner damping         CNVZerner       .... off
 Static damping         CNVDamp         .... on
   Fraction old density DampFac         ....    0.7000
   Max. Damping (<1)    DampMax         ....    0.9800
   Min. Damping (>=0)   DampMin         ....    0.0000
   Turn off err/grad.   DampErr         ....    0.1000
 Fernandez-Rico         CNVRico         .... off

SCF Procedure:
 Maximum # iterations   MaxIter         ....   125
 SCF integral mode      SCFMode         .... Direct
   Integral package                     .... SHARK and LIBINT hybrid scheme
 Reset frequency        DirectResetFreq ....    20
 Integral Threshold     Thresh          ....  2.500e-11 Eh
 Primitive CutOff       TCut            ....  2.500e-12 Eh

Convergence Tolerance:
 Convergence Check Mode ConvCheckMode   .... Total+1el-Energy
 Convergence forced     ConvForced      .... 0
 Energy Change          TolE            ....  1.000e-08 Eh
 1-El. energy change                    ....  1.000e-05 Eh
 DIIS Error             TolErr          ....  5.000e-07


Diagonalization of the overlap matrix:
Smallest eigenvalue                        ... 1.079e-03
Time for diagonalization                   ...    0.015 sec
Threshold for overlap eigenvalues          ... 1.000e-08
Number of eigenvalues below threshold      ... 0
Time for construction of square roots      ...    0.013 sec
Total time needed                          ...    0.029 sec

Time for model grid setup =    0.125 sec

------------------------------
INITIAL GUESS: MODEL POTENTIAL
------------------------------
Loading Hartree-Fock densities                     ... done
Calculating cut-offs                               ... done
Initializing the effective Hamiltonian             ... done
Setting up the integral package (SHARK)            ... done
Starting the Coulomb interaction                   ... done (   0.1 sec)
Reading the grid                                   ... done
Mapping shells                                     ... done
Starting the XC term evaluation                    ... done (   0.0 sec)
  promolecular density results
     # of electrons  =    109.990344734
     EX              =    -88.082128914
     EC              =     -3.692650430
     EX+EC           =    -91.774779344
Transforming the Hamiltonian                       ... done (   0.0 sec)
Diagonalizing the Hamiltonian                      ... done (   0.0 sec)
Back transforming the eigenvectors                 ... done (   0.0 sec)
Now organizing SCF variables                       ... done
                      ------------------
                      INITIAL GUESS DONE (   0.3 sec)
                      ------------------
-------------------
DFT GRID GENERATION
-------------------

General Integration Accuracy     IntAcc      ... 4.388
Radial Grid Type                 RadialGrid  ... OptM3 with GC (2021)
Angular Grid (max. ang.)         AngularGrid ... 4 (Lebedev-302)
Angular grid pruning method      GridPruning ... 4 (adaptive)
Weight generation scheme         WeightScheme... Becke
Basis function cutoff            BFCut       ... 1.0000e-11
Integration weight cutoff        WCut        ... 1.0000e-14
Angular grids for H and He will be reduced by one unit
Partially contracted basis set               ... off
Rotationally invariant grid construction     ... off

Total number of grid points                  ...   144620
Total number of batches                      ...     2279
Average number of points per batch           ...       63
Average number of grid points per atom       ...     4382
Time for grid setup =    0.618 sec

--------------------
COSX GRID GENERATION
--------------------

GRIDX 1
-------
General Integration Accuracy     IntAcc      ... 3.816
Radial Grid Type                 RadialGrid  ... OptM3 with GC (2021)
Angular Grid (max. ang.)         AngularGrid ... 1 (Lebedev-50)
Angular grid pruning method      GridPruning ... 4 (adaptive)
Weight generation scheme         WeightScheme... Becke
Basis function cutoff            BFCut       ... 1.0000e-11
Integration weight cutoff        WCut        ... 1.0000e-14
Angular grids for H and He will be reduced by one unit
Partially contracted basis set               ... on
Rotationally invariant grid construction     ... off

Total number of grid points                  ...    18456
Total number of batches                      ...      307
Average number of points per batch           ...       60
Average number of grid points per atom       ...      559
UseSFitting                                  ... on

GRIDX 2
-------
General Integration Accuracy     IntAcc      ... 4.020
Radial Grid Type                 RadialGrid  ... OptM3 with GC (2021)
Angular Grid (max. ang.)         AngularGrid ... 2 (Lebedev-110)
Angular grid pruning method      GridPruning ... 4 (adaptive)
Weight generation scheme         WeightScheme... Becke
Basis function cutoff            BFCut       ... 1.0000e-11
Integration weight cutoff        WCut        ... 1.0000e-14
Angular grids for H and He will be reduced by one unit
Partially contracted basis set               ... on
Rotationally invariant grid construction     ... off

Total number of grid points                  ...    38907
Total number of batches                      ...      624
Average number of points per batch           ...       62
Average number of grid points per atom       ...     1179
UseSFitting                                  ... on

GRIDX 3
-------
General Integration Accuracy     IntAcc      ... 4.338
Radial Grid Type                 RadialGrid  ... OptM3 with GC (2021)
Angular Grid (max. ang.)         AngularGrid ... 3 (Lebedev-194)
Angular grid pruning method      GridPruning ... 4 (adaptive)
Weight generation scheme         WeightScheme... Becke
Basis function cutoff            BFCut       ... 1.0000e-11
Integration weight cutoff        WCut        ... 1.0000e-14
Angular grids for H and He will be reduced by one unit
Partially contracted basis set               ... on
Rotationally invariant grid construction     ... off

Total number of grid points                  ...    84763
Total number of batches                      ...     1340
Average number of points per batch           ...       63
Average number of grid points per atom       ...     2569
UseSFitting                                  ... on

Time for X-Grid setup             =    0.770 sec

--------------
SCF ITERATIONS
--------------
ITER       Energy         Delta-E        Max-DP      RMS-DP      [F,P]     Damp
               ***  Starting incremental Fock matrix formation  ***
  0   -668.1458366050   0.000000000000 0.06058048  0.00085924  0.1290777 0.7000
  1   -668.3571596726  -0.211323067557 0.03479746  0.00058852  0.0518121 0.7000
                               ***Turning on DIIS***
  2   -668.4352375505  -0.078077877930 0.04427629  0.00092405  0.0180545 0.0000
  3   -668.5640472533  -0.128809702735 0.02417204  0.00043122  0.0245357 0.0000
  4   -668.5909626070  -0.026915353734 0.00826782  0.00014548  0.0063006 0.0000
  5   -668.5924724188  -0.001509811796 0.00366014  0.00005664  0.0045572 0.0000
  6   -668.5928104979  -0.000338079095 0.00251116  0.00003491  0.0005203 0.0000
               *** Restarting incremental Fock matrix formation ***
                                   *** Resetting DIIS ***
  7   -668.5928280354  -0.000017537501 0.00164237  0.00001621  0.0005613 0.0000
  8   -668.5928175569   0.000010478444 0.00107737  0.00000952  0.0009257 0.0000
  9   -668.5928367493  -0.000019192316 0.00029224  0.00000267  0.0001528 0.0000
 10   -668.5928367676  -0.000000018385 0.00019042  0.00000162  0.0001904 0.0000
 11   -668.5928371626  -0.000000394964 0.00004489  0.00000051  0.0000390 0.0000
 12   -668.5928371786  -0.000000015975 0.00001711  0.00000024  0.0000172 0.0000
 13   -668.5928371845  -0.000000005924 0.00001373  0.00000011  0.0000087 0.0000
 14   -668.5928371772   0.000000007339 0.00000681  0.00000005  0.0000066 0.0000
 15   -668.5928371779  -0.000000000783 0.00000137  0.00000002  0.0000011 0.0000
                            ***DIIS convergence achieved***

               *****************************************************
               *                     SUCCESS                       *
               *           SCF CONVERGED AFTER  16 CYCLES          *
               *****************************************************

Old exchange energy                            =    -17.891045401 Eh
New exchange energy                            =    -17.891107876 Eh
Exchange energy change after final integration =     -0.000062474 Eh
Total energy after final integration           =   -668.592899670 Eh
Final COS-X integration done in                =     3.131 sec

----------------
TOTAL SCF ENERGY
----------------

Total Energy       :         -668.59289967 Eh          -18193.33773 eV

Components:
Nuclear Repulsion  :          963.41720807 Eh           26215.91502 eV
Electronic Energy  :        -1632.01010774 Eh          -44409.25275 eV
One Electron Energy:        -2806.67600361 Eh          -76373.53681 eV
Two Electron Energy:         1174.66589588 Eh           31964.28406 eV
Max COSX asymmetry :            0.00000109 Eh               0.00003 eV

Virial components:
Potential Energy   :        -1332.82508118 Eh          -36268.01429 eV
Kinetic Energy     :          664.23218151 Eh           18074.67656 eV
Virial Ratio       :            2.00656505


DFT components:
N(Alpha)           :       55.000011227402 electrons
N(Beta)            :       54.000005528397 electrons
N(Total)           :      109.000016755799 electrons
E(X)               :      -71.051935074219 Eh       
E(C)               :       -4.318155660209 Eh       
E(XC)              :      -75.370090734428 Eh       
DFET-embed. en.    :        0.000000000000 Eh       

---------------
SCF CONVERGENCE
---------------

  Last Energy change         ...   -1.7130e-08  Tolerance :   1.0000e-08
  Last MAX-Density change    ...    0.0000e+00  Tolerance :   1.0000e-07
  Last RMS-Density change    ...    0.0000e+00  Tolerance :   5.0000e-09
  Last DIIS Error            ...    5.2272e-07  Tolerance :   5.0000e-07

             **** THE GBW FILE WAS UPDATED (opt.gbw) ****
             **** DENSITY opt.scfp WAS UPDATED ****
             **** ENERGY FILE WAS UPDATED (opt.en.tmp) ****
----------------------
UHF SPIN CONTAMINATION
----------------------

Warning: in a DFT calculation there is little theoretical justification to 
         calculate <S**2> as in Hartree-Fock theory. We will do it anyways
         but you should keep in mind that the values have only limited relevance

Expectation value of <S**2>     :     0.754144
Ideal value S*(S+1) for S=0.5   :     0.750000
Deviation                       :     0.004144

             **** THE GBW FILE WAS UPDATED (opt.gbw) ****
             **** DENSITY opt.scfp WAS UPDATED ****
----------------
ORBITAL ENERGIES
----------------
                 SPIN UP ORBITALS
  NO   OCC          E(Eh)            E(eV) 
   0   1.0000     -19.213338      -522.8215 
   1   1.0000     -19.211634      -522.7752 
   2   1.0000     -14.634274      -398.2188 
   3   1.0000     -14.460079      -393.4787 
   4   1.0000     -14.457151      -393.3991 
   5   1.0000     -10.405087      -283.1368 
   6   1.0000     -10.395701      -282.8814 
   7   1.0000     -10.392758      -282.8013 
   8   1.0000     -10.350959      -281.6639 
   9   1.0000     -10.346639      -281.5464 
  10   1.0000     -10.326690      -281.0035 
  11   1.0000     -10.310099      -280.5521 
  12   1.0000     -10.302913      -280.3565 
  13   1.0000     -10.285005      -279.8692 
  14   1.0000      -1.183424       -32.2026 
  15   1.0000      -1.148528       -31.2530 
  16   1.0000      -1.139370       -31.0038 
  17   1.0000      -1.029189       -28.0057 
  18   1.0000      -1.024059       -27.8661 
  19   1.0000      -0.954434       -25.9715 
  20   1.0000      -0.898248       -24.4426 
  21   1.0000      -0.851882       -23.1809 
  22   1.0000      -0.823923       -22.4201 
  23   1.0000      -0.805234       -21.9115 
  24   1.0000      -0.774107       -21.0645 
  25   1.0000      -0.769225       -20.9317 
  26   1.0000      -0.754371       -20.5275 
  27   1.0000      -0.707690       -19.2572 
  28   1.0000      -0.689919       -18.7736 
  29   1.0000      -0.671178       -18.2637 
  30   1.0000      -0.662874       -18.0377 
  31   1.0000      -0.638286       -17.3687 
  32   1.0000      -0.616903       -16.7868 
  33   1.0000      -0.591814       -16.1041 
  34   1.0000      -0.577707       -15.7202 
  35   1.0000      -0.568647       -15.4737 
  36   1.0000      -0.557146       -15.1607 
  37   1.0000      -0.550835       -14.9890 
  38   1.0000      -0.547556       -14.8997 
  39   1.0000      -0.538050       -14.6411 
  40   1.0000      -0.530831       -14.4446 
  41   1.0000      -0.524657       -14.2766 
  42   1.0000      -0.508402       -13.8343 
  43   1.0000      -0.499729       -13.5983 
  44   1.0000      -0.496189       -13.5020 
  45   1.0000      -0.487706       -13.2711 
  46   1.0000      -0.483940       -13.1687 
  47   1.0000      -0.473768       -12.8919 
  48   1.0000      -0.466298       -12.6886 
  49   1.0000      -0.452213       -12.3054 
  50   1.0000      -0.367431        -9.9983 
  51   1.0000      -0.363316        -9.8863 
  52   1.0000      -0.358476        -9.7546 
  53   1.0000      -0.352448        -9.5906 
  54   1.0000      -0.323359        -8.7990 
  55   0.0000      -0.174308        -4.7432 
  56   0.0000      -0.103168        -2.8073 
  57   0.0000      -0.098997        -2.6938 
  58   0.0000      -0.091422        -2.4877 
  59   0.0000      -0.074898        -2.0381 
  60   0.0000      -0.073957        -2.0125 
  61   0.0000      -0.070251        -1.9116 
  62   0.0000      -0.062424        -1.6986 
  63   0.0000      -0.055716        -1.5161 
  64   0.0000      -0.049729        -1.3532 
  65   0.0000      -0.034852        -0.9484 
  66   0.0000      -0.028339        -0.7711 
  67   0.0000      -0.022591        -0.6147 
  68   0.0000      -0.014565        -0.3963 
  69   0.0000      -0.006392        -0.1739 
  70   0.0000       0.012641         0.3440 
  71   0.0000       0.015628         0.4253 
  72   0.0000       0.031298         0.8517 
  73   0.0000       0.034032         0.9261 
  74   0.0000       0.045774         1.2456 
  75   0.0000       0.050298         1.3687 
  76   0.0000       0.064382         1.7519 
  77   0.0000       0.068512         1.8643 
  78   0.0000       0.073710         2.0058 
  79   0.0000       0.076965         2.0943 
  80   0.0000       0.084603         2.3022 
  81   0.0000       0.087620         2.3843 
  82   0.0000       0.094444         2.5700 
  83   0.0000       0.103952         2.8287 
  84   0.0000       0.113306         3.0832 
  85   0.0000       0.115560         3.1445 
  86   0.0000       0.120263         3.2725 
  87   0.0000       0.128201         3.4885 
  88   0.0000       0.133041         3.6202 
  89   0.0000       0.142995         3.8911 
  90   0.0000       0.151855         4.1322 
  91   0.0000       0.155386         4.2283 
  92   0.0000       0.163531         4.4499 
  93   0.0000       0.166190         4.5223 
  94   0.0000       0.181729         4.9451 
  95   0.0000       0.183374         4.9899 
  96   0.0000       0.191561         5.2126 
  97   0.0000       0.195317         5.3148 
  98   0.0000       0.196775         5.3545 
  99   0.0000       0.205659         5.5963 
 100   0.0000       0.212235         5.7752 
 101   0.0000       0.218051         5.9335 
 102   0.0000       0.221537         6.0283 
 103   0.0000       0.229811         6.2535 
 104   0.0000       0.234360         6.3772 
 105   0.0000       0.250679         6.8213 
 106   0.0000       0.253353         6.8941 
 107   0.0000       0.259529         7.0622 
 108   0.0000       0.274776         7.4770 
 109   0.0000       0.284558         7.7432 
 110   0.0000       0.292030         7.9465 
 111   0.0000       0.303282         8.2527 
 112   0.0000       0.314771         8.5653 
 113   0.0000       0.319217         8.6863 
 114   0.0000       0.331210         9.0127 
 115   0.0000       0.335965         9.1421 
 116   0.0000       0.341702         9.2982 
 117   0.0000       0.356794         9.7089 
 118   0.0000       0.358737         9.7617 
 119   0.0000       0.368163        10.0182 
 120   0.0000       0.379910        10.3379 
 121   0.0000       0.394360        10.7311 
 122   0.0000       0.404431        11.0051 
 123   0.0000       0.410647        11.1743 
 124   0.0000       0.415213        11.2985 
 125   0.0000       0.439307        11.9542 
 126   0.0000       0.445602        12.1255 
 127   0.0000       0.455740        12.4013 
 128   0.0000       0.460921        12.5423 
 129   0.0000       0.469198        12.7675 
 130   0.0000       0.495665        13.4877 
 131   0.0000       0.506354        13.7786 
 132   0.0000       0.531113        14.4523 
 133   0.0000       0.553391        15.0585 
 134   0.0000       0.556845        15.1525 
 135   0.0000       0.565727        15.3942 
 136   0.0000       0.587908        15.9978 
 137   0.0000       0.605290        16.4708 
 138   0.0000       0.617738        16.8095 
 139   0.0000       0.643525        17.5112 
 140   0.0000       0.649738        17.6803 
 141   0.0000       0.663698        18.0602 
 142   0.0000       0.682807        18.5801 
 143   0.0000       0.694646        18.9023 
 144   0.0000       0.703863        19.1531 
 145   0.0000       0.721533        19.6339 
 146   0.0000       0.724954        19.7270 
 147   0.0000       0.732344        19.9281 
 148   0.0000       0.741323        20.1724 
 149   0.0000       0.749750        20.4017 
 150   0.0000       0.760883        20.7047 
 151   0.0000       0.761632        20.7251 
 152   0.0000       0.768628        20.9154 
 153   0.0000       0.778115        21.1736 
 154   0.0000       0.787210        21.4211 
 155   0.0000       0.794456        21.6182 
 156   0.0000       0.799569        21.7574 
 157   0.0000       0.804650        21.8956 
 158   0.0000       0.812288        22.1035 
 159   0.0000       0.814937        22.1756 
 160   0.0000       0.823736        22.4150 
 161   0.0000       0.837332        22.7850 
 162   0.0000       0.843418        22.9506 
 163   0.0000       0.850459        23.1422 
 164   0.0000       0.859270        23.3819 
 165   0.0000       0.883580        24.0434 
 166   0.0000       0.886307        24.1176 
 167   0.0000       0.902501        24.5583 
 168   0.0000       0.910606        24.7789 
 169   0.0000       0.914461        24.8837 
 170   0.0000       0.928301        25.2604 
 171   0.0000       0.934997        25.4426 
 172   0.0000       0.955215        25.9927 
 173   0.0000       0.965430        26.2707 
 174   0.0000       0.980456        26.6796 
 175   0.0000       0.981891        26.7186 
 176   0.0000       1.003035        27.2940 
 177   0.0000       1.035405        28.1748 
 178   0.0000       1.037456        28.2306 
 179   0.0000       1.042773        28.3753 
 180   0.0000       1.060702        28.8632 
 181   0.0000       1.075533        29.2667 
 182   0.0000       1.093045        29.7433 
 183   0.0000       1.103155        30.0184 
 184   0.0000       1.115022        30.3413 
 185   0.0000       1.137346        30.9488 
 186   0.0000       1.142904        31.1000 
 187   0.0000       1.170177        31.8421 
 188   0.0000       1.198272        32.6066 
 189   0.0000       1.209682        32.9171 
 190   0.0000       1.221483        33.2382 
 191   0.0000       1.231547        33.5121 
 192   0.0000       1.245556        33.8933 
 193   0.0000       1.263935        34.3934 
 194   0.0000       1.273452        34.6524 
 195   0.0000       1.298850        35.3435 
 196   0.0000       1.302808        35.4512 
 197   0.0000       1.320129        35.9225 
 198   0.0000       1.323453        36.0130 
 199   0.0000       1.328813        36.1588 
 200   0.0000       1.333807        36.2947 
 201   0.0000       1.360597        37.0237 
 202   0.0000       1.380720        37.5713 
 203   0.0000       1.383377        37.6436 
 204   0.0000       1.404499        38.2184 
 205   0.0000       1.410838        38.3909 
 206   0.0000       1.414731        38.4968 
 207   0.0000       1.417028        38.5593 
 208   0.0000       1.435211        39.0541 
 209   0.0000       1.443345        39.2754 
 210   0.0000       1.452420        39.5224 
 211   0.0000       1.469580        39.9893 
 212   0.0000       1.485378        40.4192 
 213   0.0000       1.492589        40.6154 
 214   0.0000       1.495057        40.6826 
 215   0.0000       1.509852        41.0852 
 216   0.0000       1.513028        41.1716 
 217   0.0000       1.524832        41.4928 
 218   0.0000       1.531582        41.6765 
 219   0.0000       1.537736        41.8439 
 220   0.0000       1.555773        42.3347 
 221   0.0000       1.565880        42.6098 
 222   0.0000       1.572875        42.8001 
 223   0.0000       1.585471        43.1429 
 224   0.0000       1.591730        43.3132 
 225   0.0000       1.610837        43.8331 
 226   0.0000       1.614001        43.9192 
 227   0.0000       1.624323        44.2001 
 228   0.0000       1.633658        44.4541 
 229   0.0000       1.640775        44.6478 
 230   0.0000       1.642165        44.6856 
 231   0.0000       1.664376        45.2900 
 232   0.0000       1.678788        45.6821 
 233   0.0000       1.696240        46.1570 
 234   0.0000       1.722692        46.8768 
 235   0.0000       1.741180        47.3799 
 236   0.0000       1.754348        47.7382 
 237   0.0000       1.760828        47.9146 
 238   0.0000       1.766752        48.0758 
 239   0.0000       1.773584        48.2617 
 240   0.0000       1.790704        48.7275 
 241   0.0000       1.802472        49.0478 
 242   0.0000       1.818815        49.4925 
 243   0.0000       1.854472        50.4627 
 244   0.0000       1.870608        50.9018 
 245   0.0000       1.887416        51.3592 
 246   0.0000       1.902881        51.7800 
 247   0.0000       1.918553        52.2065 
 248   0.0000       1.935759        52.6747 
 249   0.0000       1.948812        53.0299 
 250   0.0000       1.956137        53.2292 
 251   0.0000       1.967671        53.5431 
 252   0.0000       1.979498        53.8649 
 253   0.0000       2.001990        54.4769 
 254   0.0000       2.025534        55.1176 
 255   0.0000       2.040723        55.5309 
 256   0.0000       2.075848        56.4867 
 257   0.0000       2.082014        56.6545 
 258   0.0000       2.098534        57.1040 
 259   0.0000       2.119288        57.6688 
 260   0.0000       2.128418        57.9172 
 261   0.0000       2.150928        58.5297 
 262   0.0000       2.162401        58.8419 
 263   0.0000       2.177363        59.2491 
 264   0.0000       2.188258        59.5455 
 265   0.0000       2.199532        59.8523 
 266   0.0000       2.224621        60.5350 
 267   0.0000       2.243599        61.0514 
 268   0.0000       2.264943        61.6322 
 269   0.0000       2.284147        62.1548 
 270   0.0000       2.291321        62.3500 
 271   0.0000       2.293466        62.4084 
 272   0.0000       2.301695        62.6323 
 273   0.0000       2.310031        62.8591 
 274   0.0000       2.336436        63.5777 
 275   0.0000       2.348307        63.9007 
 276   0.0000       2.353937        64.0539 
 277   0.0000       2.368083        64.4388 
 278   0.0000       2.391135        65.0661 
 279   0.0000       2.396372        65.2086 
 280   0.0000       2.404266        65.4234 
 281   0.0000       2.413552        65.6761 
 282   0.0000       2.419127        65.8278 
 283   0.0000       2.431726        66.1706 
 284   0.0000       2.434305        66.2408 
 285   0.0000       2.457595        66.8745 
 286   0.0000       2.527097        68.7658 
 287   0.0000       2.552444        69.4555 
 288   0.0000       2.577248        70.1305 
 289   0.0000       2.588498        70.4366 
 290   0.0000       2.597087        70.6703 
 291   0.0000       2.634483        71.6879 
 292   0.0000       2.646917        72.0263 
 293   0.0000       2.649385        72.0934 
 294   0.0000       2.681845        72.9767 
 295   0.0000       2.695052        73.3361 
 296   0.0000       2.731646        74.3319 
 297   0.0000       2.886069        78.5339 
 298   0.0000       2.939854        79.9975 
 299   0.0000       3.011491        81.9468 
 300   0.0000       3.027204        82.3744 
 301   0.0000       3.288876        89.4949 
 302   0.0000       3.325181        90.4828 
 303   0.0000       3.353287        91.2476 
 304   0.0000       3.362127        91.4881 
 305   0.0000       4.651635       126.5774 
 306   0.0000       4.686111       127.5156 
 307   0.0000       4.866575       132.4262 
 308   0.0000       4.886366       132.9648 
 309   0.0000       4.901277       133.3705 
 310   0.0000       4.911410       133.6463 
 311   0.0000       4.914546       133.7316 
 312   0.0000       4.924162       133.9933 
 313   0.0000       4.942839       134.5015 
 314   0.0000       4.951935       134.7490 
 315   0.0000       4.986849       135.6990 
 316   0.0000       5.021275       136.6358 
 317   0.0000       5.028273       136.8263 
 318   0.0000       5.079512       138.2206 
 319   0.0000       5.113705       139.1510 
 320   0.0000       5.141924       139.9189 
 321   0.0000       5.166646       140.5916 
 322   0.0000       5.174833       140.8144 
 323   0.0000       5.188566       141.1881 
 324   0.0000       5.233711       142.4165 
 325   0.0000       5.239428       142.5721 
 326   0.0000       5.268905       143.3742 
 327   0.0000       5.332599       145.1074 
 328   0.0000       5.498975       149.6347 
 329   0.0000       5.563991       151.4039 
 330   0.0000       5.614995       152.7918 
 331   0.0000       5.625671       153.0823 
 332   0.0000       5.695661       154.9868 
 333   0.0000       7.019196       191.0020 
 334   0.0000       7.225346       196.6116 
 335   0.0000       7.245873       197.1702 
 336   0.0000       8.991547       244.6724 
 337   0.0000       9.029918       245.7166 
 338   0.0000      29.476950       802.1086 
 339   0.0000      29.529095       803.5275 
 340   0.0000      29.601881       805.5081 
 341   0.0000      29.751750       809.5863 
 342   0.0000      29.831389       811.7534 
 343   0.0000      29.976734       815.7084 
 344   0.0000      29.986513       815.9745 
 345   0.0000      30.025736       817.0418 
 346   0.0000      30.100455       819.0750 
 347   0.0000      36.250976       986.4392 
 348   0.0000      36.277956       987.1734 
 349   0.0000      36.486212       992.8403 
 350   0.0000      36.518166       993.7098 
 351   0.0000      36.526039       993.9241 
 352   0.0000      36.528780       993.9986 
 353   0.0000      36.533560       994.1287 
 354   0.0000      36.538832       994.2722 
 355   0.0000      36.556593       994.7555 
 356   0.0000      36.600681       995.9552 
 357   0.0000      36.632991       996.8344 
 358   0.0000      36.643774       997.1278 
 359   0.0000      36.658537       997.5295 
 360   0.0000      36.686365       998.2867 
 361   0.0000      36.700779       998.6790 
 362   0.0000      36.773171      1000.6489 
 363   0.0000      36.779732      1000.8274 
 364   0.0000      36.818791      1001.8902 
 365   0.0000      36.824369      1002.0420 
 366   0.0000      40.949449      1114.2912 
 367   0.0000      41.162708      1120.0942 
 368   0.0000      41.194503      1120.9594 
 369   0.0000      53.531340      1456.6618 
 370   0.0000      53.564091      1457.5530 

                 SPIN DOWN ORBITALS
  NO   OCC          E(Eh)            E(eV) 
   0   1.0000     -19.213304      -522.8206 
   1   1.0000     -19.211629      -522.7750 
   2   1.0000     -14.634026      -398.2121 
   3   1.0000     -14.460075      -393.4786 
   4   1.0000     -14.457087      -393.3973 
   5   1.0000     -10.403640      -283.0974 
   6   1.0000     -10.395695      -282.8812 
   7   1.0000     -10.392778      -282.8019 
   8   1.0000     -10.351923      -281.6901 
   9   1.0000     -10.346088      -281.5314 
  10   1.0000     -10.312761      -280.6245 
  11   1.0000     -10.310953      -280.5753 
  12   1.0000     -10.302913      -280.3565 
  13   1.0000     -10.285007      -279.8693 
  14   1.0000      -1.182705       -32.1830 
  15   1.0000      -1.148451       -31.2509 
  16   1.0000      -1.139334       -31.0029 
  17   1.0000      -1.028765       -27.9941 
  18   1.0000      -1.024022       -27.8650 
  19   1.0000      -0.945791       -25.7363 
  20   1.0000      -0.894587       -24.3429 
  21   1.0000      -0.844347       -22.9759 
  22   1.0000      -0.822869       -22.3914 
  23   1.0000      -0.804502       -21.8916 
  24   1.0000      -0.770846       -20.9758 
  25   1.0000      -0.768812       -20.9204 
  26   1.0000      -0.753567       -20.5056 
  27   1.0000      -0.697990       -18.9933 
  28   1.0000      -0.688434       -18.7332 
  29   1.0000      -0.666135       -18.1264 
  30   1.0000      -0.659055       -17.9338 
  31   1.0000      -0.637511       -17.3476 
  32   1.0000      -0.615184       -16.7400 
  33   1.0000      -0.589478       -16.0405 
  34   1.0000      -0.577082       -15.7032 
  35   1.0000      -0.567124       -15.4322 
  36   1.0000      -0.550326       -14.9751 
  37   1.0000      -0.549191       -14.9442 
  38   1.0000      -0.545101       -14.8330 
  39   1.0000      -0.535170       -14.5627 
  40   1.0000      -0.528816       -14.3898 
  41   1.0000      -0.521072       -14.1791 
  42   1.0000      -0.506499       -13.7825 
  43   1.0000      -0.497480       -13.5371 
  44   1.0000      -0.495003       -13.4697 
  45   1.0000      -0.486177       -13.2296 
  46   1.0000      -0.483119       -13.1463 
  47   1.0000      -0.470327       -12.7982 
  48   1.0000      -0.465403       -12.6643 
  49   1.0000      -0.451303       -12.2806 
  50   1.0000      -0.366878        -9.9833 
  51   1.0000      -0.363158        -9.8820 
  52   1.0000      -0.358155        -9.7459 
  53   1.0000      -0.352227        -9.5846 
  54   0.0000      -0.182134        -4.9561 
  55   0.0000      -0.174048        -4.7361 
  56   0.0000      -0.102635        -2.7928 
  57   0.0000      -0.097965        -2.6658 
  58   0.0000      -0.090247        -2.4557 
  59   0.0000      -0.074488        -2.0269 
  60   0.0000      -0.073613        -2.0031 
  61   0.0000      -0.069947        -1.9033 
  62   0.0000      -0.061650        -1.6776 
  63   0.0000      -0.055359        -1.5064 
  64   0.0000      -0.048469        -1.3189 
  65   0.0000      -0.033716        -0.9175 
  66   0.0000      -0.025127        -0.6838 
  67   0.0000      -0.021832        -0.5941 
  68   0.0000      -0.010799        -0.2939 
  69   0.0000      -0.005270        -0.1434 
  70   0.0000       0.014150         0.3850 
  71   0.0000       0.017049         0.4639 
  72   0.0000       0.032330         0.8797 
  73   0.0000       0.038786         1.0554 
  74   0.0000       0.046484         1.2649 
  75   0.0000       0.053767         1.4631 
  76   0.0000       0.065950         1.7946 
  77   0.0000       0.069385         1.8881 
  78   0.0000       0.074426         2.0252 
  79   0.0000       0.077778         2.1164 
  80   0.0000       0.085228         2.3192 
  81   0.0000       0.088424         2.4061 
  82   0.0000       0.097166         2.6440 
  83   0.0000       0.104363         2.8399 
  84   0.0000       0.114045         3.1033 
  85   0.0000       0.116841         3.1794 
  86   0.0000       0.122137         3.3235 
  87   0.0000       0.128931         3.5084 
  88   0.0000       0.137345         3.7373 
  89   0.0000       0.146130         3.9764 
  90   0.0000       0.153038         4.1644 
  91   0.0000       0.158585         4.3153 
  92   0.0000       0.165533         4.5044 
  93   0.0000       0.167876         4.5681 
  94   0.0000       0.183661         4.9977 
  95   0.0000       0.187095         5.0911 
  96   0.0000       0.196134         5.3371 
  97   0.0000       0.196250         5.3402 
  98   0.0000       0.198219         5.3938 
  99   0.0000       0.210682         5.7330 
 100   0.0000       0.213628         5.8131 
 101   0.0000       0.218385         5.9426 
 102   0.0000       0.223202         6.0736 
 103   0.0000       0.232655         6.3309 
 104   0.0000       0.235069         6.3966 
 105   0.0000       0.251576         6.8457 
 106   0.0000       0.254013         6.9120 
 107   0.0000       0.261061         7.1038 
 108   0.0000       0.276455         7.5227 
 109   0.0000       0.286203         7.7880 
 110   0.0000       0.292371         7.9558 
 111   0.0000       0.305153         8.3036 
 112   0.0000       0.315689         8.5903 
 113   0.0000       0.327684         8.9167 
 114   0.0000       0.333544         9.0762 
 115   0.0000       0.341570         9.2946 
 116   0.0000       0.349116         9.4999 
 117   0.0000       0.357593         9.7306 
 118   0.0000       0.361874         9.8471 
 119   0.0000       0.373551        10.1648 
 120   0.0000       0.382434        10.4066 
 121   0.0000       0.398319        10.8388 
 122   0.0000       0.408711        11.1216 
 123   0.0000       0.412589        11.2271 
 124   0.0000       0.419059        11.4032 
 125   0.0000       0.442188        12.0325 
 126   0.0000       0.448808        12.2127 
 127   0.0000       0.457992        12.4626 
 128   0.0000       0.462215        12.5775 
 129   0.0000       0.470538        12.8040 
 130   0.0000       0.496497        13.5104 
 131   0.0000       0.507698        13.8152 
 132   0.0000       0.534978        14.5575 
 133   0.0000       0.553731        15.0678 
 134   0.0000       0.557647        15.1743 
 135   0.0000       0.566159        15.4060 
 136   0.0000       0.589712        16.0469 
 137   0.0000       0.606433        16.5019 
 138   0.0000       0.621235        16.9047 
 139   0.0000       0.645285        17.5591 
 140   0.0000       0.654440        17.8082 
 141   0.0000       0.665398        18.1064 
 142   0.0000       0.686457        18.6794 
 143   0.0000       0.696366        18.9491 
 144   0.0000       0.706238        19.2177 
 145   0.0000       0.722973        19.6731 
 146   0.0000       0.726322        19.7642 
 147   0.0000       0.733379        19.9563 
 148   0.0000       0.741539        20.1783 
 149   0.0000       0.751005        20.4359 
 150   0.0000       0.761801        20.7297 
 151   0.0000       0.763010        20.7626 
 152   0.0000       0.769780        20.9468 
 153   0.0000       0.779163        21.2021 
 154   0.0000       0.789704        21.4889 
 155   0.0000       0.795182        21.6380 
 156   0.0000       0.801982        21.8230 
 157   0.0000       0.806548        21.9473 
 158   0.0000       0.812722        22.1153 
 159   0.0000       0.818469        22.2717 
 160   0.0000       0.824797        22.4439 
 161   0.0000       0.838606        22.8196 
 162   0.0000       0.846069        23.0227 
 163   0.0000       0.851180        23.1618 
 164   0.0000       0.859682        23.3931 
 165   0.0000       0.885131        24.0856 
 166   0.0000       0.890729        24.2380 
 167   0.0000       0.906511        24.6674 
 168   0.0000       0.913830        24.8666 
 169   0.0000       0.915783        24.9197 
 170   0.0000       0.929799        25.3011 
 171   0.0000       0.935515        25.4567 
 172   0.0000       0.958908        26.0932 
 173   0.0000       0.970055        26.3965 
 174   0.0000       0.982794        26.7432 
 175   0.0000       0.985172        26.8079 
 176   0.0000       1.005346        27.3569 
 177   0.0000       1.036352        28.2006 
 178   0.0000       1.038218        28.2513 
 179   0.0000       1.045029        28.4367 
 180   0.0000       1.061862        28.8947 
 181   0.0000       1.077610        29.3233 
 182   0.0000       1.095475        29.8094 
 183   0.0000       1.104160        30.0457 
 184   0.0000       1.116471        30.3807 
 185   0.0000       1.140175        31.0257 
 186   0.0000       1.148385        31.2492 
 187   0.0000       1.171474        31.8774 
 188   0.0000       1.202511        32.7220 
 189   0.0000       1.213313        33.0159 
 190   0.0000       1.223577        33.2952 
 191   0.0000       1.235314        33.6146 
 192   0.0000       1.247743        33.9528 
 193   0.0000       1.265243        34.4290 
 194   0.0000       1.275373        34.7047 
 195   0.0000       1.301992        35.4290 
 196   0.0000       1.305336        35.5200 
 197   0.0000       1.320716        35.9385 
 198   0.0000       1.326788        36.1037 
 199   0.0000       1.331798        36.2401 
 200   0.0000       1.340505        36.4770 
 201   0.0000       1.366120        37.1740 
 202   0.0000       1.381738        37.5990 
 203   0.0000       1.386868        37.7386 
 204   0.0000       1.405498        38.2455 
 205   0.0000       1.412311        38.4309 
 206   0.0000       1.415694        38.5230 
 207   0.0000       1.418116        38.5889 
 208   0.0000       1.439262        39.1643 
 209   0.0000       1.444108        39.2962 
 210   0.0000       1.454902        39.5899 
[...]
      px      :     1.054703
      py      :     0.911555
      dz2     :     0.018619  d :     0.182782
      dxz     :     0.039273
      dyz     :     0.063241
      dx2y2   :     0.037683
      dxy     :     0.023966
  8 N s       :     3.029799  s :     3.029799
      pz      :     1.200037  p :     3.578098
      px      :     1.175108
      py      :     1.202954
      dz2     :     0.006130  d :     0.052248
      dxz     :     0.015786
      dyz     :     0.011968
      dx2y2   :     0.012316
      dxy     :     0.006048
  9 H s       :     0.862525  s :     0.862525
      pz      :     0.028277  p :     0.080019
      px      :     0.035157
      py      :     0.016584
 10 H s       :     0.864468  s :     0.864468
      pz      :     0.028814  p :     0.080997
      px      :     0.017001
      py      :     0.035182
 11 H s       :     0.857703  s :     0.857703
      pz      :     0.028826  p :     0.082694
      px      :     0.037919
      py      :     0.015950
 12 H s       :     0.826938  s :     0.826938
      pz      :     0.022499  p :     0.098861
      px      :     0.022494
      py      :     0.053868
 13 H s       :     0.745865  s :     0.745865
      pz      :     0.040439  p :     0.129685
      px      :     0.063991
      py      :     0.025255
 14 H s       :     0.745988  s :     0.745988
      pz      :     0.048041  p :     0.129033
      px      :     0.053544
      py      :     0.027448
 15 H s       :     0.746840  s :     0.746840
      pz      :     0.078966  p :     0.154473
      px      :     0.033162
      py      :     0.042345
 16 C s       :     2.846911  s :     2.846911
      pz      :     0.942366  p :     2.766119
      px      :     1.017448
      py      :     0.806305
      dz2     :     0.138104  d :     0.485953
      dxz     :     0.138126
      dyz     :     0.101592
      dx2y2   :     0.063472
      dxy     :     0.044659
 17 N s       :     3.064357  s :     3.064357
      pz      :     1.136861  p :     3.804840
      px      :     1.282488
      py      :     1.385491
      dz2     :     0.020243  d :     0.080955
      dxz     :     0.021433
      dyz     :     0.015362
      dx2y2   :     0.010993
      dxy     :     0.012924
 18 H s       :     0.772700  s :     0.772700
      pz      :     0.058666  p :     0.145176
      px      :     0.042976
      py      :     0.043534
 19 O s       :     3.590384  s :     3.590384
      pz      :     1.472041  p :     4.616508
      px      :     1.673682
      py      :     1.470785
      dz2     :     0.010395  d :     0.030319
      dxz     :     0.010124
      dyz     :     0.006195
      dx2y2   :     0.001804
      dxy     :     0.001801
 20 H s       :     0.748717  s :     0.748717
      pz      :     0.034813  p :     0.129216
      px      :     0.026720
      py      :     0.067683
 21 C s       :     2.856084  s :     2.856084
      pz      :     0.899927  p :     2.963818
      px      :     1.032396
      py      :     1.031496
      dz2     :     0.042800  d :     0.155195
      dxz     :     0.031578
      dyz     :     0.038744
      dx2y2   :     0.033607
      dxy     :     0.008466
 22 H s       :     0.881258  s :     0.881258
      pz      :     0.013882  p :     0.079979
      px      :     0.018076
      py      :     0.048020
 23 H s       :     0.883701  s :     0.883701
      pz      :     0.014344  p :     0.079751
      px      :     0.048223
      py      :     0.017185
 24 H s       :     0.860345  s :     0.860345
      pz      :     0.030678  p :     0.083958
      px      :     0.026811
      py      :     0.026468
 25 C s       :     2.868986  s :     2.868986
      pz      :     1.032944  p :     3.058173
      px      :     0.983119
      py      :     1.042109
      dz2     :     0.023795  d :     0.105343
      dxz     :     0.017874
      dyz     :     0.012434
      dx2y2   :     0.033216
      dxy     :     0.018025
 26 H s       :     0.869929  s :     0.869929
      pz      :     0.020933  p :     0.081013
      px      :     0.018975
      py      :     0.041104
 27 H s       :     0.853081  s :     0.853081
      pz      :     0.026826  p :     0.082279
      px      :     0.022836
      py      :     0.032617
 28 H s       :     0.877063  s :     0.877063
      pz      :     0.044712  p :     0.081964
      px      :     0.019819
      py      :     0.017433
 29 H s       :     0.853587  s :     0.853587
      pz      :     0.030350  p :     0.081309
      px      :     0.013840
      py      :     0.037119
 30 H s       :     0.854311  s :     0.854311
      pz      :     0.018353  p :     0.081783
      px      :     0.044143
      py      :     0.019287
 31 H s       :     0.856175  s :     0.856175
      pz      :     0.050385  p :     0.084553
      px      :     0.018335
      py      :     0.015833
 32 H s       :     0.852613  s :     0.852613
      pz      :     0.052654  p :     0.093034
      px      :     0.025152
      py      :     0.015228

SPIN
  0 N s       :     0.001072  s :     0.001072
      pz      :     0.000099  p :     0.001281
      px      :    -0.000517
      py      :     0.001698
      dz2     :     0.000011  d :     0.000323
      dxz     :     0.000062
      dyz     :     0.000014
      dx2y2   :     0.000251
      dxy     :    -0.000015
  1 C s       :     0.006342  s :     0.006342
      pz      :     0.002273  p :     0.015433
      px      :     0.002860
      py      :     0.010301
      dz2     :     0.000340  d :    -0.000355
      dxz     :    -0.000044
      dyz     :     0.000017
      dx2y2   :    -0.000625
      dxy     :    -0.000042
  2 C s       :     0.000006  s :     0.000006
      pz      :    -0.000352  p :    -0.000152
      px      :    -0.000012
      py      :     0.000212
      dz2     :     0.000053  d :     0.000407
      dxz     :     0.000117
      dyz     :     0.000239
      dx2y2   :     0.000011
      dxy     :    -0.000015
  3 O s       :    -0.000027  s :    -0.000027
      pz      :    -0.000027  p :     0.001004
      px      :     0.000441
      py      :     0.000590
      dz2     :    -0.000003  d :    -0.000004
      dxz     :    -0.000001
      dyz     :    -0.000001
      dx2y2   :     0.000001
      dxy     :    -0.000000
  4 C s       :    -0.003388  s :    -0.003388
      pz      :    -0.004944  p :    -0.022715
      px      :    -0.005669
      py      :    -0.012102
      dz2     :     0.002388  d :     0.034152
      dxz     :     0.001282
      dyz     :     0.001362
      dx2y2   :     0.003420
      dxy     :     0.025700
  5 C s       :     0.026227  s :     0.026227
      pz      :     0.044201  p :     0.795480
      px      :     0.733239
      py      :     0.018040
      dz2     :    -0.001106  d :    -0.004476
      dxz     :    -0.000083
      dyz     :    -0.001206
      dx2y2   :    -0.002227
      dxy     :     0.000146
  6 C s       :    -0.003028  s :    -0.003028
      pz      :    -0.006366  p :    -0.021601
      px      :    -0.004814
      py      :    -0.010421
      dz2     :     0.000518  d :     0.038756
      dxz     :     0.018287
      dyz     :     0.002766
      dx2y2   :     0.001051
      dxy     :     0.016134
  7 C s       :     0.019411  s :     0.019411
      pz      :     0.005269  p :     0.028339
      px      :     0.019968
      py      :     0.003102
      dz2     :    -0.000072  d :     0.001475
      dxz     :    -0.000289
      dyz     :     0.002043
      dx2y2   :     0.000053
      dxy     :    -0.000260
  8 N s       :     0.000828  s :     0.000828
      pz      :     0.002613  p :     0.005439
      px      :     0.000221
      py      :     0.002605
      dz2     :     0.000112  d :     0.000765
      dxz     :     0.000074
      dyz     :     0.000465
      dx2y2   :     0.000061
      dxy     :     0.000052
  9 H s       :     0.018953  s :     0.018953
      pz      :    -0.000497  p :    -0.000587
      px      :    -0.000177
      py      :     0.000087
 10 H s       :     0.003897  s :     0.003897
      pz      :    -0.000248  p :    -0.000733
      px      :    -0.000124
      py      :    -0.000361
 11 H s       :    -0.001120  s :    -0.001120
      pz      :    -0.000037  p :     0.001101
      px      :     0.001126
      py      :     0.000012
 12 H s       :    -0.000517  s :    -0.000517
      pz      :     0.000003  p :     0.000801
      px      :     0.000707
      py      :     0.000092
 13 H s       :     0.000203  s :     0.000203
      pz      :     0.000396  p :     0.000822
      px      :     0.000056
      py      :     0.000370
 14 H s       :    -0.000114  s :    -0.000114
      pz      :     0.000096  p :     0.000403
      px      :     0.000074
      py      :     0.000233
 15 H s       :     0.000637  s :     0.000637
      pz      :     0.000001  p :     0.000038
      px      :    -0.000013
      py      :     0.000050
 16 C s       :     0.000799  s :     0.000799
      pz      :     0.000198  p :     0.000489
      px      :     0.000110
      py      :     0.000181
      dz2     :     0.000069  d :     0.000104
      dxz     :     0.000003
      dyz     :     0.000032
      dx2y2   :     0.000009
      dxy     :    -0.000009
 17 N s       :     0.000280  s :     0.000280
      pz      :     0.000274  p :     0.000463
      px      :     0.000003
      py      :     0.000186
      dz2     :     0.000002  d :    -0.000007
      dxz     :    -0.000007
      dyz     :    -0.000003
      dx2y2   :    -0.000001
      dxy     :     0.000002
 18 H s       :     0.000141  s :     0.000141
      pz      :     0.000094  p :     0.000140
      px      :     0.000031
      py      :     0.000015
 19 O s       :     0.000020  s :     0.000020
      pz      :     0.000195  p :     0.000619
      px      :     0.000073
      py      :     0.000351
      dz2     :    -0.000000  d :     0.000004
      dxz     :     0.000000
      dyz     :    -0.000002
      dx2y2   :     0.000004
      dxy     :     0.000002
 20 H s       :    -0.000225  s :    -0.000225
      pz      :     0.000238  p :     0.000319
      px      :     0.000002
      py      :     0.000079
 21 C s       :     0.000002  s :     0.000002
      pz      :     0.000011  p :     0.000008
      px      :     0.000005
      py      :    -0.000008
      dz2     :     0.000010  d :     0.000010
      dxz     :    -0.000003
      dyz     :     0.000005
      dx2y2   :    -0.000001
      dxy     :     0.000000
 22 H s       :     0.000007  s :     0.000007
      pz      :    -0.000001  p :    -0.000001
      px      :    -0.000000
      py      :    -0.000000
 23 H s       :    -0.000000  s :    -0.000000
      pz      :    -0.000000  p :    -0.000000
      px      :     0.000000
      py      :    -0.000000
 24 H s       :     0.000020  s :     0.000020
      pz      :     0.000002  p :     0.000002
      px      :     0.000001
      py      :    -0.000001
 25 C s       :     0.000085  s :     0.000085
      pz      :     0.000004  p :    -0.000017
      px      :    -0.000027
      py      :     0.000006
      dz2     :    -0.000000  d :     0.000001
      dxz     :     0.000001
      dyz     :     0.000001
      dx2y2   :     0.000005
      dxy     :    -0.000005
 26 H s       :    -0.000006  s :    -0.000006
      pz      :     0.000001  p :     0.000002
      px      :    -0.000002
      py      :     0.000003
 27 H s       :    -0.000008  s :    -0.000008
      pz      :    -0.000000  p :     0.000002
      px      :     0.000000
      py      :     0.000002
 28 H s       :     0.000022  s :     0.000022
      pz      :     0.000000  p :    -0.000000
      px      :    -0.000000
      py      :     0.000000
 29 H s       :    -0.000609  s :    -0.000609
      pz      :     0.000099  p :     0.000689
      px      :     0.000056
      py      :     0.000535
 30 H s       :     0.040381  s :     0.040381
      pz      :    -0.000030  p :    -0.000982
      px      :    -0.000704
      py      :    -0.000247
 31 H s       :     0.006905  s :     0.006905
      pz      :    -0.000272  p :    -0.000656
      px      :     0.000009
      py      :    -0.000393
 32 H s       :    -0.020613  s :    -0.020613
      pz      :     0.004261  p :     0.026830
      px      :     0.022293
      py      :     0.000276


                      *****************************
                      * MAYER POPULATION ANALYSIS *
                      *****************************

  NA   - Mulliken gross atomic population
  ZA   - Total nuclear charge
  QA   - Mulliken gross atomic charge
  VA   - Mayer's total valence
  BVA  - Mayer's bonded valence
  FA   - Mayer's free valence

  ATOM       NA         ZA         QA         VA         BVA        FA
  0 N      7.0863     7.0000    -0.0863     3.3285     3.3284     0.0000
  1 C      6.0842     6.0000    -0.0842     3.9899     3.9893     0.0006
  2 C      5.9316     6.0000     0.0684     4.0662     4.0662     0.0000
  3 O      8.3202     8.0000    -0.3202     2.1308     2.1308     0.0000
  4 C      6.2845     6.0000    -0.2845     4.0095     4.0071     0.0024
  5 C      6.0838     6.0000    -0.0838     3.8539     3.1040     0.7498
  6 C      6.3164     6.0000    -0.3164     3.9673     3.9647     0.0026
  7 C      6.2405     6.0000    -0.2405     3.7032     3.7004     0.0029
  8 N      7.3850     7.0000    -0.3850     3.5591     3.5590     0.0001
  9 H      0.8426     1.0000     0.1574     0.9629     0.9624     0.0006
 10 H      0.8372     1.0000     0.1628     0.9617     0.9617     0.0000
 11 H      0.7942     1.0000     0.2058     0.9454     0.9454     0.0000
 12 H      0.7489     1.0000     0.2511     0.9530     0.9530     0.0000
 13 H      0.6653     1.0000     0.3347     0.8903     0.8903     0.0000
 14 H      0.6679     1.0000     0.3321     0.8933     0.8933     0.0000
 15 H      0.7388     1.0000     0.2612     0.9668     0.9668     0.0000
 16 C      5.8381     6.0000     0.1619     3.9756     3.9756     0.0000
 17 N      7.0964     7.0000    -0.0964     3.2120     3.2120     0.0000
 18 H      0.7642     1.0000     0.2358     0.9586     0.9586     0.0000
 19 O      8.3718     8.0000    -0.3718     2.0438     2.0438    -0.0000
 20 H      0.6705     1.0000     0.3295     0.8926     0.8926     0.0000
 21 C      6.4432     6.0000    -0.4432     3.8775     3.8775     0.0000
 22 H      0.8186     1.0000     0.1814     0.9515     0.9515     0.0000
 23 H      0.8328     1.0000     0.1672     0.9579     0.9579     0.0000
 24 H      0.7987     1.0000     0.2013     0.9622     0.9622     0.0000
 25 C      6.5304     6.0000    -0.5304     3.8574     3.8574     0.0000
 26 H      0.8337     1.0000     0.1663     0.9659     0.9659     0.0000
 27 H      0.7964     1.0000     0.2036     0.9535     0.9535     0.0000
 28 H      0.8385     1.0000     0.1615     0.9681     0.9681     0.0000
 29 H      0.8331     1.0000     0.1669     0.9474     0.9474     0.0000
 30 H      0.8443     1.0000     0.1557     0.9663     0.9640     0.0024
 31 H      0.8290     1.0000     0.1710     0.9666     0.9665     0.0001
 32 H      0.8331     1.0000     0.1669     0.9712     0.9683     0.0029

  Mayer bond orders larger than 0.100000
B(  0-N ,  1-C ) :   1.0215 B(  0-N , 15-H ) :   0.8846 B(  0-N , 16-C ) :   1.2575 
B(  1-C ,  2-C ) :   0.9067 B(  1-C ,  4-C ) :   0.9299 B(  1-C , 29-H ) :   0.9623 
B(  2-C ,  3-O ) :   1.8698 B(  2-C , 17-N ) :   1.2140 B(  4-C ,  5-C ) :   1.0151 
B(  4-C , 30-H ) :   0.9433 B(  4-C , 31-H ) :   0.9618 B(  5-C ,  6-C ) :   0.9971 
B(  5-C , 32-H ) :   0.9687 B(  6-C ,  7-C ) :   0.9520 B(  6-C ,  9-H ) :   0.9681 
B(  6-C , 10-H ) :   0.9573 B(  7-C ,  8-N ) :   0.8612 B(  7-C , 11-H ) :   0.9444 
B(  7-C , 12-H ) :   0.8958 B(  8-N , 13-H ) :   0.8862 B(  8-N , 14-H ) :   0.8867 
B(  8-N , 20-H ) :   0.8868 B( 16-C , 19-O ) :   1.7617 B( 16-C , 25-C ) :   0.9121 
B( 17-N , 18-H ) :   0.9272 B( 17-N , 21-C ) :   0.9597 B( 21-C , 22-H ) :   0.9544 
B( 21-C , 23-H ) :   0.9579 B( 21-C , 24-H ) :   0.9441 B( 25-C , 26-H ) :   0.9656 
B( 25-C , 27-H ) :   0.9462 B( 25-C , 28-H ) :   0.9699 

-------
TIMINGS
-------

Total SCF time: 0 days 0 hours 0 min 18 sec 

Total time                  ....      18.809 sec
Sum of individual times     ....      18.127 sec  ( 96.4%)

Fock matrix formation       ....      15.925 sec  ( 84.7%)
  Split-RI-J                ....       1.099 sec  (  6.9% of F)
  Chain of spheres X        ....      12.016 sec  ( 75.5% of F)
  XC integration            ....       2.514 sec  ( 15.8% of F)
    Basis function eval.    ....       0.271 sec  ( 10.8% of XC)
    Density eval.           ....       0.396 sec  ( 15.7% of XC)
    XC-Functional eval.     ....       0.062 sec  (  2.5% of XC)
    XC-Potential eval.      ....       0.278 sec  ( 11.1% of XC)
Diagonalization             ....       0.425 sec  (  2.3%)
Density matrix formation    ....       0.077 sec  (  0.4%)
Population analysis         ....       0.074 sec  (  0.4%)
Initial guess               ....       0.061 sec  (  0.3%)
Orbital Transformation      ....       0.000 sec  (  0.0%)
Orbital Orthonormalization  ....       0.044 sec  (  0.2%)
DIIS solution               ....       0.201 sec  (  1.1%)
Grid generation             ....       1.363 sec  (  7.2%)

Maximum memory used throughout the entire SCF-calculation: 85.8 MB

-------------------------   --------------------
FINAL SINGLE POINT ENERGY      -668.594919408273
-------------------------   --------------------

                                *** OPTIMIZATION RUN DONE ***

                            ***************************************
                            *     ORCA property calculations      *
                            ***************************************

                                    ---------------------
                                    Active property flags
                                    ---------------------
   (+) Dipole Moment


------------------------------------------------------------------------------
                       ORCA ELECTRIC PROPERTIES CALCULATION
------------------------------------------------------------------------------

Dipole Moment Calculation                       ... on
Quadrupole Moment Calculation                   ... off
Polarizability Calculation                      ... off
GBWName                                         ... opt.gbw
Electron density                                ... opt.scfp
The origin for moment calculation is the CENTER OF MASS  = (-12.235252,  4.233162  0.502042)

-------------
DIPOLE MOMENT
-------------
                                X             Y             Z
Electronic contribution:     -1.65597      -3.70783       0.47054
Nuclear contribution   :      2.69094       8.34783      -3.11176
                        -----------------------------------------
Total Dipole Moment    :      1.03497       4.64000      -2.64122
                        -----------------------------------------
Magnitude (a.u.)       :      5.43845
Magnitude (Debye)      :     13.82345



--------------------
Rotational spectrum 
--------------------
 
Rotational constants in cm-1:     0.030764     0.012645     0.010010 
Rotational constants in MHz :   922.283276   379.090471   300.102318 

 Dipole components along the rotational axes: 
x,y,z [a.u.] :    -4.823231     2.505624    -0.187235 
x,y,z [Debye]:   -12.259679     6.368790    -0.475914 

 

Timings for individual modules:

Sum of individual times         ...      836.274 sec (=  13.938 min)
GTO integral calculation        ...       68.090 sec (=   1.135 min)   8.1 %
SCF iterations                  ...      557.333 sec (=   9.289 min)  66.6 %
SCF Gradient evaluation         ...      209.632 sec (=   3.494 min)  25.1 %
Geometry relaxation             ...        1.219 sec (=   0.020 min)   0.1 %
                             ****ORCA TERMINATED NORMALLY****
TOTAL RUN TIME: 0 days 0 hours 14 minutes 57 seconds 531 msec
