
                                 *****************
                                 * O   R   C   A *
                                 *****************

                                            #,                                       
                                            ###                                      
                                            ####                                     
                                            #####                                    
                                            ######                                   
                                           ########,                                 
                                     ,,################,,,,,                         
                               ,,#################################,,                 
                          ,,##########################################,,             
                       ,#########################################, ''#####,          
                    ,#############################################,,   '####,        
                  ,##################################################,,,,####,       
                ,###########''''           ''''###############################       
              ,#####''   ,,,,##########,,,,          '''####'''          '####       
            ,##' ,,,,###########################,,,                        '##       
           ' ,,###''''                  '''############,,,                           
         ,,##''                                '''############,,,,        ,,,,,,###''
      ,#''                                            '''#######################'''  
     '                                                          ''''####''''         
             ,#######,   #######,   ,#######,      ##                                
            ,#'     '#,  ##    ##  ,#'     '#,    #''#        ######   ,####,        
            ##       ##  ##   ,#'  ##            #'  '#       #        #'  '#        
            ##       ##  #######   ##           ,######,      #####,   #    #        
            '#,     ,#'  ##    ##  '#,     ,#' ,#      #,         ##   #,  ,#        
             '#######'   ##     ##  '#######'  #'      '#     #####' # '####'        



                  #######################################################
                  #                        -***-                        #
                  #          Department of theory and spectroscopy      #
                  #    Directorship and core code : Frank Neese         #
                  #        Max Planck Institute fuer Kohlenforschung    #
                  #                Kaiser Wilhelm Platz 1               #
                  #                 D-45470 Muelheim/Ruhr               #
                  #                      Germany                        #
                  #                                                     #
                  #                  All rights reserved                #
                  #                        -***-                        #
                  #######################################################


                         Program Version 5.0.4 -  RELEASE  -


 With contributions from (in alphabetic order):
   Daniel Aravena         : Magnetic Suceptibility
   Michael Atanasov       : Ab Initio Ligand Field Theory (pilot matlab implementation)
   Alexander A. Auer      : GIAO ZORA, VPT2 properties, NMR spectrum
   Ute Becker             : Parallelization
   Giovanni Bistoni       : ED, misc. LED, open-shell LED, HFLD
   Martin Brehm           : Molecular dynamics
   Dmytro Bykov           : SCF Hessian
   Vijay G. Chilkuri      : MRCI spin determinant printing, contributions to CSF-ICE
   Dipayan Datta          : RHF DLPNO-CCSD density
   Achintya Kumar Dutta   : EOM-CC, STEOM-CC
   Dmitry Ganyushin       : Spin-Orbit,Spin-Spin,Magnetic field MRCI
   Miquel Garcia          : C-PCM and meta-GGA Hessian, CC/C-PCM, Gaussian charge scheme
   Yang Guo               : DLPNO-NEVPT2, F12-NEVPT2, CIM, IAO-localization
   Andreas Hansen         : Spin unrestricted coupled pair/coupled cluster methods
   Benjamin Helmich-Paris : MC-RPA, TRAH-SCF, COSX integrals
   Lee Huntington         : MR-EOM, pCC
   Robert Izsak           : Overlap fitted RIJCOSX, COSX-SCS-MP3, EOM
   Marcus Kettner         : VPT2
   Christian Kollmar      : KDIIS, OOCD, Brueckner-CCSD(T), CCSD density, CASPT2, CASPT2-K
   Simone Kossmann        : Meta GGA functionals, TD-DFT gradient, OOMP2, MP2 Hessian
   Martin Krupicka        : Initial AUTO-CI
   Lucas Lang             : DCDCAS
   Marvin Lechner         : AUTO-CI (C++ implementation), FIC-MRCC
   Dagmar Lenk            : GEPOL surface, SMD
   Dimitrios Liakos       : Extrapolation schemes; Compound Job, initial MDCI parallelization
   Dimitrios Manganas     : Further ROCIS development; embedding schemes
   Dimitrios Pantazis     : SARC Basis sets
   Anastasios Papadopoulos: AUTO-CI, single reference methods and gradients
   Taras Petrenko         : DFT Hessian,TD-DFT gradient, ASA, ECA, R-Raman, ABS, FL, XAS/XES, NRVS
   Peter Pinski           : DLPNO-MP2, DLPNO-MP2 Gradient
   Christoph Reimann      : Effective Core Potentials
   Marius Retegan         : Local ZFS, SOC
   Christoph Riplinger    : Optimizer, TS searches, QM/MM, DLPNO-CCSD(T), (RO)-DLPNO pert. Triples
   Tobias Risthaus        : Range-separated hybrids, TD-DFT gradient, RPA, STAB
   Michael Roemelt        : Original ROCIS implementation
   Masaaki Saitow         : Open-shell DLPNO-CCSD energy and density
   Barbara Sandhoefer     : DKH picture change effects
   Avijit Sen             : IP-ROCIS
   Kantharuban Sivalingam : CASSCF convergence, NEVPT2, FIC-MRCI
   Bernardo de Souza      : ESD, SOC TD-DFT
   Georgi Stoychev        : AutoAux, RI-MP2 NMR, DLPNO-MP2 response
   Willem Van den Heuvel  : Paramagnetic NMR
   Boris Wezisla          : Elementary symmetry handling
   Frank Wennmohs         : Technical directorship


 We gratefully acknowledge several colleagues who have allowed us to
 interface, adapt or use parts of their codes:
   Stefan Grimme, W. Hujo, H. Kruse, P. Pracht,  : VdW corrections, initial TS optimization,
                  C. Bannwarth, S. Ehlert          DFT functionals, gCP, sTDA/sTD-DF
   Ed Valeev, F. Pavosevic, A. Kumar             : LibInt (2-el integral package), F12 methods
   Garnet Chan, S. Sharma, J. Yang, R. Olivares  : DMRG
   Ulf Ekstrom                                   : XCFun DFT Library
   Mihaly Kallay                                 : mrcc  (arbitrary order and MRCC methods)
   Jiri Pittner, Ondrej Demel                    : Mk-CCSD
   Frank Weinhold                                : gennbo (NPA and NBO analysis)
   Christopher J. Cramer and Donald G. Truhlar   : smd solvation model
   Lars Goerigk                                  : TD-DFT with DH, B97 family of functionals
   V. Asgeirsson, H. Jonsson                     : NEB implementation
   FAccTs GmbH                                   : IRC, NEB, NEB-TS, DLPNO-Multilevel, CI-OPT
                                                   MM, QMMM, 2- and 3-layer-ONIOM, Crystal-QMMM,
                                                   LR-CPCM, SF, NACMEs, symmetry and pop. for TD-DFT,
                                                   nearIR, NL-DFT gradient (VV10), updates on ESD,
                                                   ML-optimized integration grids
   S Lehtola, MJT Oliveira, MAL Marques          : LibXC Library
   Liviu Ungur et al                             : ANISO software


 Your calculation uses the libint2 library for the computation of 2-el integrals
 For citations please refer to: http://libint.valeyev.net

 Your ORCA version has been built with support for libXC version: 5.1.0
 For citations please refer to: https://tddft.org/programs/libxc/

 This ORCA versions uses:
   CBLAS   interface :  Fast vector & matrix operations
   LAPACKE interface :  Fast linear algebra routines
   SCALAPACK package :  Parallel linear algebra routines
   Shared memory     :  Shared parallel matrices
   BLAS/LAPACK       :  OpenBLAS 0.3.15  USE64BITINT DYNAMIC_ARCH NO_AFFINITY Zen SINGLE_THREADED
        Core in use  :  Zen
   Copyright (c) 2011-2014, The OpenBLAS Project




***************************************
The coordinates will be read from file: opt.xyz
***************************************


================================================================================

----- Orbital basis set information -----
Your calculation utilizes the basis: EPR-II
   V. Barone, in Recent Advances in Density Functional Methods, Part 1 (ed. D. P. Chong), World Scientific, Singapore, 1995, p. 287.

----- AuxJ basis set information -----
Your calculation utilizes the AutoAux generation procedure.
  G. L. Stoychev, A. A. Auer, F. Neese, J. Chem. Theory Comput. 13, 554 (2017)

----- AuxC basis set information -----
Your calculation utilizes the AutoAux generation procedure.
  G. L. Stoychev, A. A. Auer, F. Neese, J. Chem. Theory Comput. 13, 554 (2017)

----- AuxJK basis set information -----
Your calculation utilizes the AutoAux generation procedure.
  G. L. Stoychev, A. A. Auer, F. Neese, J. Chem. Theory Comput. 13, 554 (2017)

================================================================================
                                        WARNINGS
                       Please study these warnings very carefully!
================================================================================


WARNING: your system is open-shell and RHF/RKS was chosen
  ===> : WILL SWITCH to UHF/UKS


INFO   : the flag for use of the SHARK integral package has been found!

================================================================================
                                       INPUT FILE
================================================================================
NAME = epr_info.inp
|  1> ! B3LYP EPR-II AUTOAUX
|  2> %pal nprocs 16 end
|  3> *XYZFile 0 2 opt.xyz
|  4> %EPRNMR
|  5>         GTENSOR   TRUE
|  6>         NUCLEI    = 1,4,6,8,9,11,12,13,14,16,17,18 {SHIFT, AISO, ADIP, AORB}
|  7>         ORI       GIAO
|  8> END
|  9> 
| 10>                          ****END OF INPUT****
================================================================================

                       ****************************
                       * Single Point Calculation *
                       ****************************

---------------------------------
CARTESIAN COORDINATES (ANGSTROEM)
---------------------------------
  N     -4.538675   -4.774875   -0.641114
  C     -3.085752   -4.922337   -0.762098
  C     -2.552771   -4.915971    0.711314
  O     -3.240825   -5.402085    1.612675
  C     -2.456502   -3.922880   -1.684807
  H     -1.770801   -4.282302   -2.444856
  C     -2.776896   -2.459424   -1.650964
  H     -3.180384   -2.113085   -2.611887
  H     -3.549367   -2.236415   -0.904059
  C     -1.567601   -1.591287   -1.316090
  O     -1.760962   -0.293154   -1.645775
  O     -0.532802   -1.980280   -0.800198
  H     -4.891316   -4.998504    0.283202
  H     -2.847527   -5.926304   -1.144587
  C     -5.364044   -4.903203   -1.729843
  N     -1.308824   -4.415216    0.893987
  H     -0.958398    0.185720   -1.380562
  H     -0.903978   -3.848059    0.154954
  O     -4.939820   -4.932549   -2.884179
  C     -6.856478   -4.981038   -1.419967
  H     -7.373008   -4.214045   -2.002594
  H     -7.226665   -5.954728   -1.754142
  H     -7.089486   -4.851137   -0.360093
  C     -0.696475   -4.376656    2.219299
  H     -0.797823   -5.350914    2.701649
  H      0.362118   -4.135245    2.107799
  H     -1.171090   -3.626761    2.862375

----------------------------
CARTESIAN COORDINATES (A.U.)
----------------------------
  NO LB      ZA    FRAG     MASS         X           Y           Z
   0 N     7.0000    0    14.007   -8.576852   -9.023206   -1.211530
   1 C     6.0000    0    12.011   -5.831227   -9.301869   -1.440156
   2 C     6.0000    0    12.011   -4.824038   -9.289839    1.344188
   3 O     8.0000    0    15.999   -6.124271  -10.208462    3.047514
   4 C     6.0000    0    12.011   -4.642116   -7.413168   -3.183823
   5 H     1.0000    0     1.008   -3.346328   -8.092378   -4.620108
   6 C     6.0000    0    12.011   -5.247573   -4.647638   -3.119871
   7 H     1.0000    0     1.008   -6.010055   -3.993152   -4.935751
   8 H     1.0000    0     1.008   -6.707332   -4.226211   -1.708424
   9 C     6.0000    0    12.011   -2.962337   -3.007096   -2.487050
  10 O     8.0000    0    15.999   -3.327737   -0.553981   -3.110064
  11 O     8.0000    0    15.999   -1.006849   -3.742186   -1.512156
  12 H     1.0000    0     1.008   -9.243247   -9.445803    0.535174
  13 H     1.0000    0     1.008   -5.381046  -11.199091   -2.162956
  14 C     6.0000    0    12.011  -10.136574   -9.265711   -3.268929
  15 N     7.0000    0    14.007   -2.473318   -8.343549    1.689390
  16 H     1.0000    0     1.008   -1.811110    0.350961   -2.608884
  17 H     1.0000    0     1.008   -1.708270   -7.271778    0.292821
  18 O     8.0000    0    15.999   -9.334906   -9.321167   -5.450308
  19 C     6.0000    0    12.011  -12.956866   -9.412797   -2.683350
  20 H     1.0000    0     1.008  -13.932966   -7.963391   -3.784353
  21 H     1.0000    0     1.008  -13.656417  -11.252805   -3.314847
  22 H     1.0000    0     1.008  -13.397188   -9.167321   -0.680478
  23 C     6.0000    0    12.011   -1.316146   -8.270681    4.193866
  24 H     1.0000    0     1.008   -1.507667  -10.111762    5.105376
  25 H     1.0000    0     1.008    0.684304   -7.814481    3.983164
  26 H     1.0000    0     1.008   -2.213040   -6.853586    5.409105

--------------------------------
INTERNAL COORDINATES (ANGSTROEM)
--------------------------------
 N      0   0   0     0.000000000000     0.00000000     0.00000000
 C      1   0   0     1.465389388189     0.00000000     0.00000000
 C      2   1   0     1.566860285210   105.02373864     0.00000000
 O      3   2   1     1.233765476833   119.71609022    33.17227748
 C      2   1   3     1.498753741108   113.57814372   232.64446660
 H      5   2   1     1.084917452272   118.40713027   229.12696352
 C      5   2   1     1.498499171678   123.20198678    46.16153655
 H      7   5   2     1.098237552811   111.51695570   239.60280833
 H      7   5   2     1.097411753820   111.36660924   357.58085145
 C      7   5   2     1.525843145759   113.02628307   118.11155496
 O     10   7   5     1.353228888380   112.27651616   162.81653174
 O     10   7   5     1.219946793514   125.70781413   342.19444322
 H      1   2   3     1.014261572872   113.43925034   341.61979893
 H      2   1   3     1.100453617523   109.58108067   112.19778501
 C      1   2   3     1.372236244889   121.42931197   188.10421582
 N      3   2   1     1.353340352987   116.17380251   210.26694941
 H     11  10   7     0.971477183287   106.75682126   178.64005002
 H     16   3   2     1.015744220424   118.34300276    16.90353696
 O     15   1   2     1.230170421322   122.63595289   348.05508336
 C     15   1   2     1.526250773690   115.58414780   169.19455604
 H     20  15   1     1.092947459592   108.54880605   126.13165610
 H     20  15   1     1.093975554687   108.31611871   242.64775579
 H     20  15   1     1.092931883171   113.53441308     4.19318383
 C     16   3   2     1.460448406246   121.17511818   180.98669842
 H     24  16   3     1.091838772604   109.78066947    48.73115478
 H     24  16   3     1.091480696442   108.65039177   168.35701893
 H     24  16   3     1.095970006905   111.65158290   288.83022379

---------------------------
INTERNAL COORDINATES (A.U.)
---------------------------
 N      0   0   0     0.000000000000     0.00000000     0.00000000
 C      1   0   0     2.769184623232     0.00000000     0.00000000
 C      2   1   0     2.960936829164   105.02373864     0.00000000
 O      3   2   1     2.331478864701   119.71609022    33.17227748
 C      2   1   3     2.832234112885   113.57814372   232.64446660
 H      5   2   1     2.050196862705   118.40713027   229.12696352
 C      5   2   1     2.831753046380   123.20198678    46.16153655
 H      7   5   2     2.075368204800   111.51695570   239.60280833
 H      7   5   2     2.073807670866   111.36660924   357.58085145
 C      7   5   2     2.883425668806   113.02628307   118.11155496
 O     10   7   5     2.557231995548   112.27651616   162.81653174
 O     10   7   5     2.305365337696   125.70781413   342.19444322
 H      1   2   3     1.916676600889   113.43925034   341.61979893
 H      2   1   3     2.079555960201   109.58108067   112.19778501
 C      1   2   3     2.593150693881   121.42931197   188.10421582
 N      3   2   1     2.557442633129   116.17380251   210.26694941
 H     11  10   7     1.835825821765   106.75682126   178.64005002
 H     16   3   2     1.919478398715   118.34300276    16.90353696
 O     15   1   2     2.324685194349   122.63595289   348.05508336
 C     15   1   2     2.884195973960   115.58414780   169.19455604
 H     20  15   1     2.065371377395   108.54880605   126.13165610
 H     20  15   1     2.067314195563   108.31611871   242.64775579
 H     20  15   1     2.065341942224   113.53441308     4.19318383
 C     16   3   2     2.759847520527   121.17511818   180.98669842
 H     24  16   3     2.063276262619   109.78066947    48.73115478
 H     24  16   3     2.062599596736   108.65039177   168.35701893
 H     24  16   3     2.071083164043   111.65158290   288.83022379

---------------------
BASIS SET INFORMATION
---------------------
There are 4 groups of distinct atoms

 Group   1 Type N   : 10s5p1d contracted to 6s2p1d pattern {511111/41/1}
 Group   2 Type C   : 10s5p1d contracted to 6s2p1d pattern {511111/41/1}
 Group   3 Type O   : 10s5p1d contracted to 6s2p1d pattern {511111/41/1}
 Group   4 Type H   : 6s1p contracted to 4s1p pattern {3111/1}

Atom   0N    basis set group =>   1
Atom   1C    basis set group =>   2
Atom   2C    basis set group =>   2
Atom   3O    basis set group =>   3
Atom   4C    basis set group =>   2
Atom   5H    basis set group =>   4
Atom   6C    basis set group =>   2
Atom   7H    basis set group =>   4
Atom   8H    basis set group =>   4
Atom   9C    basis set group =>   2
Atom  10O    basis set group =>   3
Atom  11O    basis set group =>   3
Atom  12H    basis set group =>   4
Atom  13H    basis set group =>   4
Atom  14C    basis set group =>   2
Atom  15N    basis set group =>   1
Atom  16H    basis set group =>   4
Atom  17H    basis set group =>   4
Atom  18O    basis set group =>   3
Atom  19C    basis set group =>   2
Atom  20H    basis set group =>   4
Atom  21H    basis set group =>   4
Atom  22H    basis set group =>   4
Atom  23C    basis set group =>   2
Atom  24H    basis set group =>   4
Atom  25H    basis set group =>   4
Atom  26H    basis set group =>   4
---------------------------------
AUXILIARY/J BASIS SET INFORMATION
---------------------------------
There are 4 groups of distinct atoms

 Group   1 Type N   : 17s13p12d2f contracted to 17s13p12d2f pattern {11111111111111111/1111111111111/111111111111/11}
 Group   2 Type C   : 17s13p12d2f contracted to 17s13p12d2f pattern {11111111111111111/1111111111111/111111111111/11}
 Group   3 Type O   : 17s13p12d2f contracted to 17s13p12d2f pattern {11111111111111111/1111111111111/111111111111/11}
 Group   4 Type H   : 15s6p1d contracted to 15s6p1d pattern {111111111111111/111111/1}

Atom   0N    basis set group =>   1
Atom   1C    basis set group =>   2
Atom   2C    basis set group =>   2
Atom   3O    basis set group =>   3
Atom   4C    basis set group =>   2
Atom   5H    basis set group =>   4
Atom   6C    basis set group =>   2
Atom   7H    basis set group =>   4
Atom   8H    basis set group =>   4
Atom   9C    basis set group =>   2
Atom  10O    basis set group =>   3
Atom  11O    basis set group =>   3
Atom  12H    basis set group =>   4
Atom  13H    basis set group =>   4
Atom  14C    basis set group =>   2
Atom  15N    basis set group =>   1
Atom  16H    basis set group =>   4
Atom  17H    basis set group =>   4
Atom  18O    basis set group =>   3
Atom  19C    basis set group =>   2
Atom  20H    basis set group =>   4
Atom  21H    basis set group =>   4
Atom  22H    basis set group =>   4
Atom  23C    basis set group =>   2
Atom  24H    basis set group =>   4
Atom  25H    basis set group =>   4
Atom  26H    basis set group =>   4
---------------------------------
AUXILIARY/C BASIS SET INFORMATION
---------------------------------
There are 4 groups of distinct atoms

 Group   1 Type N   : 17s13p12d2f contracted to 17s13p12d2f pattern {11111111111111111/1111111111111/111111111111/11}
 Group   2 Type C   : 17s13p12d2f contracted to 17s13p12d2f pattern {11111111111111111/1111111111111/111111111111/11}
 Group   3 Type O   : 17s13p12d2f contracted to 17s13p12d2f pattern {11111111111111111/1111111111111/111111111111/11}
 Group   4 Type H   : 15s6p1d contracted to 15s6p1d pattern {111111111111111/111111/1}

Atom   0N    basis set group =>   1
Atom   1C    basis set group =>   2
Atom   2C    basis set group =>   2
Atom   3O    basis set group =>   3
Atom   4C    basis set group =>   2
Atom   5H    basis set group =>   4
Atom   6C    basis set group =>   2
Atom   7H    basis set group =>   4
Atom   8H    basis set group =>   4
Atom   9C    basis set group =>   2
Atom  10O    basis set group =>   3
Atom  11O    basis set group =>   3
Atom  12H    basis set group =>   4
Atom  13H    basis set group =>   4
Atom  14C    basis set group =>   2
Atom  15N    basis set group =>   1
Atom  16H    basis set group =>   4
Atom  17H    basis set group =>   4
Atom  18O    basis set group =>   3
Atom  19C    basis set group =>   2
Atom  20H    basis set group =>   4
Atom  21H    basis set group =>   4
Atom  22H    basis set group =>   4
Atom  23C    basis set group =>   2
Atom  24H    basis set group =>   4
Atom  25H    basis set group =>   4
Atom  26H    basis set group =>   4
----------------------------------
AUXILIARY/JK BASIS SET INFORMATION
----------------------------------
There are 4 groups of distinct atoms

 Group   1 Type N   : 17s13p12d2f contracted to 17s13p12d2f pattern {11111111111111111/1111111111111/111111111111/11}
 Group   2 Type C   : 17s13p12d2f contracted to 17s13p12d2f pattern {11111111111111111/1111111111111/111111111111/11}
 Group   3 Type O   : 17s13p12d2f contracted to 17s13p12d2f pattern {11111111111111111/1111111111111/111111111111/11}
 Group   4 Type H   : 15s6p1d contracted to 15s6p1d pattern {111111111111111/111111/1}

Atom   0N    basis set group =>   1
Atom   1C    basis set group =>   2
Atom   2C    basis set group =>   2
Atom   3O    basis set group =>   3
Atom   4C    basis set group =>   2
Atom   5H    basis set group =>   4
Atom   6C    basis set group =>   2
Atom   7H    basis set group =>   4
Atom   8H    basis set group =>   4
Atom   9C    basis set group =>   2
Atom  10O    basis set group =>   3
Atom  11O    basis set group =>   3
Atom  12H    basis set group =>   4
Atom  13H    basis set group =>   4
Atom  14C    basis set group =>   2
Atom  15N    basis set group =>   1
Atom  16H    basis set group =>   4
Atom  17H    basis set group =>   4
Atom  18O    basis set group =>   3
Atom  19C    basis set group =>   2
Atom  20H    basis set group =>   4
Atom  21H    basis set group =>   4
Atom  22H    basis set group =>   4
Atom  23C    basis set group =>   2
Atom  24H    basis set group =>   4
Atom  25H    basis set group =>   4
Atom  26H    basis set group =>   4


           ************************************************************
           *        Program running with 16 parallel MPI-processes    *
           *              working on a common directory               *
           ************************************************************
------------------------------------------------------------------------------
                           ORCA GTO INTEGRAL CALCULATION
                           -- RI-GTO INTEGRALS CHOSEN --
------------------------------------------------------------------------------
------------------------------------------------------------------------------
                   ___                                                        
                  /   \      - P O W E R E D   B Y -                         
                 /     \                                                     
                 |  |  |   _    _      __       _____    __    __             
                 |  |  |  | |  | |    /  \     |  _  \  |  |  /  |          
                  \  \/   | |  | |   /    \    | | | |  |  | /  /          
                 / \  \   | |__| |  /  /\  \   | |_| |  |  |/  /          
                |  |  |   |  __  | /  /__\  \  |    /   |      \           
                |  |  |   | |  | | |   __   |  |    \   |  |\   \          
                \     /   | |  | | |  |  |  |  | |\  \  |  | \   \       
                 \___/    |_|  |_| |__|  |__|  |_| \__\ |__|  \__/        
                                                                              
                      - O R C A' S   B I G   F R I E N D -                    
                                      &                                       
                       - I N T E G R A L  F E E D E R -                       
                                                                              
 v1 FN, 2020, v2 2021                                                         
------------------------------------------------------------------------------


Reading SHARK input file epr_info.SHARKINP.tmp ... ok
----------------------
SHARK INTEGRAL PACKAGE
----------------------

Number of atoms                             ...     27
Number of basis functions                   ...    329
Number of shells                            ...    191
Maximum angular momentum                    ...      2
Integral batch strategy                     ... SHARK/LIBINT Hybrid
RI-J (if used) integral strategy            ... SPLIT-RIJ (Revised 2003 algorithm where possible)
Printlevel                                  ...      1
Contraction scheme used                     ... SEGMENTED contraction
Coulomb Range Separation                    ... NOT USED
Exchange Range Separation                   ... NOT USED
Finite Nucleus Model                        ... NOT USED
Auxiliary Coulomb fitting basis             ... AVAILABLE
   # of basis functions in Aux-J            ...   2314
   # of shells in Aux-J                     ...    902
   Maximum angular momentum in Aux-J        ...      3
Auxiliary J/K fitting basis                 ... AVAILABLE
   # of basis functions in Aux-JK           ...   2314
   # of shells in Aux-JK                    ...    902
   Maximum angular momentum in Aux-JK       ...      3
Auxiliary Correlation fitting basis         ... AVAILABLE
   # of basis functions in Aux-C            ...   2314
   # of shells in Aux-C                     ...    902
   Maximum angular momentum in Aux-C        ...      3
Auxiliary 'external' fitting basis          ... NOT available
Integral threshold                          ...     1.000000e-10
Primitive cut-off                           ...     1.000000e-11
Primitive pair pre-selection threshold      ...     1.000000e-11

Calculating pre-screening integrals         ... done (  0.0 sec) Dimension = 191
Organizing shell pair data                  ... done (  0.0 sec)
Shell pair information
Total number of shell pairs                 ...     18336
Shell pairs after pre-screening             ...     12683
Total number of primitive shell pairs       ...     50033
Primitive shell pairs kept                  ...     25030
          la=0 lb=0:   5751 shell pairs
          la=1 lb=0:   4322 shell pairs
          la=1 lb=1:    754 shell pairs
          la=2 lb=0:   1294 shell pairs
          la=2 lb=1:    480 shell pairs
          la=2 lb=2:     82 shell pairs

Calculating one electron integrals          ... done (  0.0 sec)
Calculating RI/J V-Matrix + Cholesky decomp.... done (  0.3 sec)
Calculating RI/JK V-Matrix + Cholesky decomp... done (  0.3 sec)
Calculating RI/C V-Matrix + Cholesky decomp.... done (  0.3 sec)
Calculating Nuclear repulsion               ... done (  0.0 sec) ENN=    925.550149443291 Eh

SHARK setup successfully completed in   1.0 seconds

Maximum memory used throughout the entire GTOINT-calculation: 24.2 MB


           ************************************************************
           *        Program running with 16 parallel MPI-processes    *
           *              working on a common directory               *
           ************************************************************
-------------------------------------------------------------------------------
                                 ORCA SCF
-------------------------------------------------------------------------------

------------
SCF SETTINGS
------------
Hamiltonian:
 Density Functional     Method          .... DFT(GTOs)
 Exchange Functional    Exchange        .... B88
   X-Alpha parameter    XAlpha          ....  0.666667
   Becke's b parameter  XBeta           ....  0.004200
 Correlation Functional Correlation     .... LYP
 LDA part of GGA corr.  LDAOpt          .... VWN-5
 Gradients option       PostSCFGGA      .... off
 Hybrid DFT is turned on
   Fraction HF Exchange ScalHFX         ....  0.200000
   Scaling of DF-GGA-X  ScalDFX         ....  0.720000
   Scaling of DF-GGA-C  ScalDFC         ....  0.810000
   Scaling of DF-LDA-C  ScalLDAC        ....  1.000000
   Perturbative correction              ....  0.000000
   Density functional embedding theory  .... OFF
   NL short-range parameter             ....  4.800000
 RI-approximation to the Coulomb term is turned on
   Number of AuxJ basis functions       .... 2314
   RIJ-COSX (HFX calculated with COS-X)).... on


General Settings:
 Integral files         IntName         .... epr_info
 Hartree-Fock type      HFTyp           .... UHF
 Total Charge           Charge          ....    0
 Multiplicity           Mult            ....    2
 Number of Electrons    NEL             ....  107
 Basis Dimension        Dim             ....  329
 Nuclear Repulsion      ENuc            ....    925.5501494433 Eh

Convergence Acceleration:
 DIIS                   CNVDIIS         .... on
   Start iteration      DIISMaxIt       ....    12
   Startup error        DIISStart       ....  0.200000
   # of expansion vecs  DIISMaxEq       ....     5
   Bias factor          DIISBfac        ....   1.050
   Max. coefficient     DIISMaxC        ....  10.000
 Trust-Rad. Augm. Hess. CNVTRAH         .... auto
   Auto Start mean grad. ratio tolernc. ....  1.125000
   Auto Start start iteration           ....    20
   Auto Start num. interpolation iter.  ....    10
   Max. Number of Micro iterations      ....    16
   Max. Number of Macro iterations      .... Maxiter - #DIIS iter
   Number of Davidson start vectors     ....     2
   Converg. threshold I  (grad. norm)   ....   5.000e-05
   Converg. threshold II (energy diff.) ....   1.000e-06
   Grad. Scal. Fac. for Micro threshold ....   0.100
   Minimum threshold for Micro iter.    ....   0.010
   NR start threshold (gradient norm)   ....   0.001
   Initial trust radius                 ....   0.400
   Minimum AH scaling param. (alpha)    ....   1.000
   Maximum AH scaling param. (alpha)    .... 1000.000
   Orbital update algorithm             .... Taylor
   White noise on init. David. guess    .... on
   Maximum white noise                  ....   0.010
   Quad. conv. algorithm                .... NR
 SOSCF                  CNVSOSCF        .... off
 Level Shifting         CNVShift        .... on
   Level shift para.    LevelShift      ....    0.2500
   Turn off err/grad.   ShiftErr        ....    0.0010
 Zerner damping         CNVZerner       .... off
 Static damping         CNVDamp         .... on
   Fraction old density DampFac         ....    0.7000
   Max. Damping (<1)    DampMax         ....    0.9800
   Min. Damping (>=0)   DampMin         ....    0.0000
   Turn off err/grad.   DampErr         ....    0.1000
 Fernandez-Rico         CNVRico         .... off

SCF Procedure:
 Maximum # iterations   MaxIter         ....   125
 SCF integral mode      SCFMode         .... Direct
   Integral package                     .... SHARK and LIBINT hybrid scheme
 Reset frequency        DirectResetFreq ....    20
 Integral Threshold     Thresh          ....  1.000e-10 Eh
 Primitive CutOff       TCut            ....  1.000e-11 Eh

Convergence Tolerance:
 Convergence Check Mode ConvCheckMode   .... Total+1el-Energy
 Convergence forced     ConvForced      .... 0
 Energy Change          TolE            ....  1.000e-06 Eh
 1-El. energy change                    ....  1.000e-03 Eh
 DIIS Error             TolErr          ....  1.000e-06


Diagonalization of the overlap matrix:
Smallest eigenvalue                        ... 8.431e-04
Time for diagonalization                   ...    0.011 sec
Threshold for overlap eigenvalues          ... 1.000e-08
Number of eigenvalues below threshold      ... 0
Time for construction of square roots      ...    0.009 sec
Total time needed                          ...    0.021 sec

Time for model grid setup =    0.094 sec

------------------------------
INITIAL GUESS: MODEL POTENTIAL
------------------------------
Loading Hartree-Fock densities                     ... done
Calculating cut-offs                               ... done
Initializing the effective Hamiltonian             ... done
Setting up the integral package (SHARK)            ... done
Starting the Coulomb interaction                   ... done (   0.0 sec)
Reading the grid                                   ... done
Mapping shells                                     ... done
Starting the XC term evaluation                    ... done (   0.0 sec)
  promolecular density results
     # of electrons  =    106.993642747
     EX              =    -90.904354721
     EC              =     -3.674318033
     EX+EC           =    -94.578672754
Transforming the Hamiltonian                       ... done (   0.0 sec)
Diagonalizing the Hamiltonian                      ... done (   0.0 sec)
Back transforming the eigenvectors                 ... done (   0.0 sec)
Now organizing SCF variables                       ... done
                      ------------------
                      INITIAL GUESS DONE (   0.3 sec)
                      ------------------
-------------------
DFT GRID GENERATION
-------------------

General Integration Accuracy     IntAcc      ... 4.388
Radial Grid Type                 RadialGrid  ... OptM3 with GC (2021)
Angular Grid (max. ang.)         AngularGrid ... 4 (Lebedev-302)
Angular grid pruning method      GridPruning ... 4 (adaptive)
Weight generation scheme         WeightScheme... Becke
Basis function cutoff            BFCut       ... 1.0000e-10
Integration weight cutoff        WCut        ... 1.0000e-14
Angular grids for H and He will be reduced by one unit
Partially contracted basis set               ... off
Rotationally invariant grid construction     ... off

Total number of grid points                  ...   125909
Total number of batches                      ...     1982
Average number of points per batch           ...       63
Average number of grid points per atom       ...     4663
Time for grid setup =    0.534 sec

--------------------
COSX GRID GENERATION
--------------------

GRIDX 1
-------
General Integration Accuracy     IntAcc      ... 3.816
Radial Grid Type                 RadialGrid  ... OptM3 with GC (2021)
Angular Grid (max. ang.)         AngularGrid ... 1 (Lebedev-50)
Angular grid pruning method      GridPruning ... 4 (adaptive)
Weight generation scheme         WeightScheme... Becke
Basis function cutoff            BFCut       ... 1.0000e-10
Integration weight cutoff        WCut        ... 1.0000e-14
Angular grids for H and He will be reduced by one unit
Partially contracted basis set               ... on
Rotationally invariant grid construction     ... off

Total number of grid points                  ...    16056
Total number of batches                      ...      266
Average number of points per batch           ...       60
Average number of grid points per atom       ...      595
UseSFitting                                  ... on

GRIDX 2
-------
General Integration Accuracy     IntAcc      ... 4.020
Radial Grid Type                 RadialGrid  ... OptM3 with GC (2021)
Angular Grid (max. ang.)         AngularGrid ... 2 (Lebedev-110)
Angular grid pruning method      GridPruning ... 4 (adaptive)
Weight generation scheme         WeightScheme... Becke
Basis function cutoff            BFCut       ... 1.0000e-10
Integration weight cutoff        WCut        ... 1.0000e-14
Angular grids for H and He will be reduced by one unit
Partially contracted basis set               ... on
Rotationally invariant grid construction     ... off

Total number of grid points                  ...    34715
Total number of batches                      ...      557
Average number of points per batch           ...       62
Average number of grid points per atom       ...     1286
UseSFitting                                  ... on

GRIDX 3
-------
General Integration Accuracy     IntAcc      ... 4.338
Radial Grid Type                 RadialGrid  ... OptM3 with GC (2021)
Angular Grid (max. ang.)         AngularGrid ... 3 (Lebedev-194)
Angular grid pruning method      GridPruning ... 4 (adaptive)
Weight generation scheme         WeightScheme... Becke
Basis function cutoff            BFCut       ... 1.0000e-10
Integration weight cutoff        WCut        ... 1.0000e-14
Angular grids for H and He will be reduced by one unit
Partially contracted basis set               ... on
Rotationally invariant grid construction     ... off

Total number of grid points                  ...    76060
Total number of batches                      ...     1200
Average number of points per batch           ...       63
Average number of grid points per atom       ...     2817
UseSFitting                                  ... on

Time for X-Grid setup             =    0.582 sec

--------------
SCF ITERATIONS
--------------
ITER       Energy         Delta-E        Max-DP      RMS-DP      [F,P]     Damp
               ***  Starting incremental Fock matrix formation  ***
  0   -722.3383837965   0.000000000000 0.06558499  0.00102530  0.1313933 0.7000
  1   -722.5843739277  -0.245990131106 0.03783065  0.00065970  0.0503493 0.7000
                               ***Turning on DIIS***
  2   -722.6673888522  -0.083014924562 0.04522893  0.00096518  0.0184189 0.0000
  3   -722.8144534987  -0.147064646497 0.02574605  0.00047401  0.0236833 0.0000
  4   -722.8413805886  -0.026927089920 0.00749056  0.00016363  0.0080519 0.0000
  5   -722.8437852371  -0.002404648426 0.00326503  0.00005439  0.0027945 0.0000
  6   -722.8439787635  -0.000193526430 0.00224861  0.00003880  0.0007346 0.0000
               *** Restarting incremental Fock matrix formation ***
                                   *** Resetting DIIS ***
  7   -722.8440108246  -0.000032061063 0.00164491  0.00002260  0.0006335 0.0000
  8   -722.8439958903   0.000014934232 0.00076143  0.00000875  0.0011382 0.0000
  9   -722.8440223020  -0.000026411708 0.00036061  0.00000505  0.0002458 0.0000
 10   -722.8440242793  -0.000001977307 0.00019715  0.00000203  0.0000820 0.0000
                 **** Energy Check signals convergence ****

               *****************************************************
               *                     SUCCESS                       *
               *           SCF CONVERGED AFTER  11 CYCLES          *
               *****************************************************

Old exchange energy                            =    -18.427913474 Eh
New exchange energy                            =    -18.427900275 Eh
Exchange energy change after final integration =      0.000013198 Eh
Total energy after final integration           =   -722.844011370 Eh
Final COS-X integration done in                =     1.765 sec

----------------
TOTAL SCF ENERGY
----------------

Total Energy       :         -722.84401137 Eh          -19669.58553 eV

Components:
Nuclear Repulsion  :          925.55014944 Eh           25185.49997 eV
Electronic Energy  :        -1648.39416081 Eh          -44855.08550 eV
One Electron Energy:        -2823.25271504 Eh          -76824.61206 eV
Two Electron Energy:         1174.85855422 Eh           31969.52656 eV
Max COSX asymmetry :            0.00000148 Eh               0.00004 eV

Virial components:
Potential Energy   :        -1440.90516833 Eh          -39209.02298 eV
Kinetic Energy     :          718.06115696 Eh           19539.43745 eV
Virial Ratio       :            2.00666079


DFT components:
N(Alpha)           :       53.999986170485 electrons
N(Beta)            :       52.999995509419 electrons
N(Total)           :      106.999981679905 electrons
E(X)               :      -73.289133773845 Eh       
E(C)               :       -4.324777376469 Eh       
E(XC)              :      -77.613911150315 Eh       
DFET-embed. en.    :        0.000000000000 Eh       

---------------
SCF CONVERGENCE
---------------

  Last Energy change         ...   -2.8843e-07  Tolerance :   1.0000e-06
  Last MAX-Density change    ...    0.0000e+00  Tolerance :   1.0000e-05
  Last RMS-Density change    ...    0.0000e+00  Tolerance :   1.0000e-06
  Last DIIS Error            ...    1.0012e-04  Tolerance :   1.0000e-06

             **** THE GBW FILE WAS UPDATED (epr_info.gbw) ****
             **** DENSITY epr_info.scfp WAS UPDATED ****
             **** ENERGY FILE WAS UPDATED (epr_info.en.tmp) ****
----------------------
UHF SPIN CONTAMINATION
----------------------

Warning: in a DFT calculation there is little theoretical justification to 
         calculate <S**2> as in Hartree-Fock theory. We will do it anyways
         but you should keep in mind that the values have only limited relevance

Expectation value of <S**2>     :     0.754251
Ideal value S*(S+1) for S=0.5   :     0.750000
Deviation                       :     0.004251

             **** THE GBW FILE WAS UPDATED (epr_info.gbw) ****
             **** DENSITY epr_info.scfp WAS UPDATED ****
----------------
ORBITAL ENERGIES
----------------
                 SPIN UP ORBITALS
  NO   OCC          E(Eh)            E(eV) 
   0   1.0000     -19.210448      -522.7429 
   1   1.0000     -19.159527      -521.3572 
   2   1.0000     -19.120140      -520.2855 
   3   1.0000     -19.108973      -519.9816 
   4   1.0000     -14.361842      -390.8056 
   5   1.0000     -14.355874      -390.6432 
   6   1.0000     -10.350398      -281.6487 
   7   1.0000     -10.300838      -280.3001 
   8   1.0000     -10.293808      -280.1088 
   9   1.0000     -10.247686      -278.8537 
  10   1.0000     -10.220722      -278.1200 
  11   1.0000     -10.217891      -278.0430 
  12   1.0000     -10.213235      -277.9162 
  13   1.0000     -10.190535      -277.2986 
  14   1.0000      -1.126924       -30.6652 
  15   1.0000      -1.043293       -28.3894 
  16   1.0000      -1.036045       -28.1922 
  17   1.0000      -1.029504       -28.0142 
  18   1.0000      -0.924396       -25.1541 
  19   1.0000      -0.922022       -25.0895 
  20   1.0000      -0.813337       -22.1320 
  21   1.0000      -0.762109       -20.7380 
  22   1.0000      -0.727187       -19.7878 
  23   1.0000      -0.699521       -19.0349 
  24   1.0000      -0.656127       -17.8541 
  25   1.0000      -0.606523       -16.5043 
  26   1.0000      -0.588475       -16.0132 
  27   1.0000      -0.559882       -15.2352 
  28   1.0000      -0.536066       -14.5871 
  29   1.0000      -0.514857       -14.0100 
  30   1.0000      -0.509700       -13.8696 
  31   1.0000      -0.494532       -13.4569 
  32   1.0000      -0.485723       -13.2172 
  33   1.0000      -0.474130       -12.9017 
  34   1.0000      -0.457169       -12.4402 
  35   1.0000      -0.451283       -12.2800 
  36   1.0000      -0.446734       -12.1563 
  37   1.0000      -0.438325       -11.9274 
  38   1.0000      -0.419404       -11.4126 
  39   1.0000      -0.411007       -11.1841 
  40   1.0000      -0.402667       -10.9571 
  41   1.0000      -0.402185       -10.9440 
  42   1.0000      -0.396484       -10.7889 
  43   1.0000      -0.394162       -10.7257 
  44   1.0000      -0.374983       -10.2038 
  45   1.0000      -0.372855       -10.1459 
  46   1.0000      -0.350504        -9.5377 
  47   1.0000      -0.343939        -9.3591 
  48   1.0000      -0.304030        -8.2731 
  49   1.0000      -0.285235        -7.7616 
  50   1.0000      -0.267233        -7.2718 
  51   1.0000      -0.259335        -7.0569 
  52   1.0000      -0.255457        -6.9513 
  53   1.0000      -0.204673        -5.5694 
  54   0.0000      -0.017554        -0.4777 
  55   0.0000       0.000202         0.0055 
  56   0.0000       0.011543         0.3141 
  57   0.0000       0.021428         0.5831 
  58   0.0000       0.022480         0.6117 
  59   0.0000       0.028955         0.7879 
  60   0.0000       0.045110         1.2275 
  61   0.0000       0.054884         1.4935 
  62   0.0000       0.063339         1.7235 
  63   0.0000       0.074285         2.0214 
  64   0.0000       0.094849         2.5810 
  65   0.0000       0.100806         2.7431 
  66   0.0000       0.121306         3.3009 
  67   0.0000       0.133049         3.6205 
  68   0.0000       0.149235         4.0609 
  69   0.0000       0.154944         4.2162 
  70   0.0000       0.163608         4.4520 
  71   0.0000       0.173394         4.7183 
  72   0.0000       0.180652         4.9158 
  73   0.0000       0.185794         5.0557 
  74   0.0000       0.192212         5.2303 
  75   0.0000       0.194703         5.2981 
  76   0.0000       0.197501         5.3743 
  77   0.0000       0.202611         5.5133 
  78   0.0000       0.218077         5.9342 
  79   0.0000       0.231521         6.3000 
  80   0.0000       0.234969         6.3938 
  81   0.0000       0.240242         6.5373 
  82   0.0000       0.242469         6.5979 
  83   0.0000       0.245813         6.6889 
  84   0.0000       0.265823         7.2334 
  85   0.0000       0.267076         7.2675 
  86   0.0000       0.272528         7.4159 
  87   0.0000       0.277383         7.5480 
  88   0.0000       0.287827         7.8322 
  89   0.0000       0.289723         7.8838 
  90   0.0000       0.291783         7.9398 
  91   0.0000       0.298828         8.1315 
  92   0.0000       0.309154         8.4125 
  93   0.0000       0.312379         8.5003 
  94   0.0000       0.325842         8.8666 
  95   0.0000       0.332795         9.0558 
  96   0.0000       0.339078         9.2268 
  97   0.0000       0.359308         9.7773 
  98   0.0000       0.360976         9.8227 
  99   0.0000       0.368780        10.0350 
 100   0.0000       0.378666        10.3040 
 101   0.0000       0.383765        10.4428 
 102   0.0000       0.393780        10.7153 
 103   0.0000       0.399154        10.8615 
 104   0.0000       0.425366        11.5748 
 105   0.0000       0.429891        11.6979 
 106   0.0000       0.440053        11.9744 
 107   0.0000       0.442521        12.0416 
 108   0.0000       0.455619        12.3980 
 109   0.0000       0.463205        12.6045 
 110   0.0000       0.476948        12.9784 
 111   0.0000       0.484058        13.1719 
 112   0.0000       0.505900        13.7663 
 113   0.0000       0.512997        13.9594 
 114   0.0000       0.529877        14.4187 
 115   0.0000       0.535036        14.5591 
 116   0.0000       0.552040        15.0218 
 117   0.0000       0.558260        15.1910 
 118   0.0000       0.581183        15.8148 
 119   0.0000       0.591150        16.0860 
 120   0.0000       0.610455        16.6113 
 121   0.0000       0.635667        17.2974 
 122   0.0000       0.670668        18.2498 
 123   0.0000       0.674508        18.3543 
 124   0.0000       0.691419        18.8145 
 125   0.0000       0.721214        19.6252 
 126   0.0000       0.723716        19.6933 
 127   0.0000       0.742629        20.2079 
 128   0.0000       0.771538        20.9946 
 129   0.0000       0.786526        21.4025 
 130   0.0000       0.795996        21.6602 
 131   0.0000       0.799106        21.7448 
 132   0.0000       0.818199        22.2643 
 133   0.0000       0.820501        22.3270 
 134   0.0000       0.827363        22.5137 
 135   0.0000       0.836032        22.7496 
 136   0.0000       0.843798        22.9609 
 137   0.0000       0.856203        23.2985 
 138   0.0000       0.866930        23.5904 
 139   0.0000       0.868549        23.6344 
 140   0.0000       0.879293        23.9268 
 141   0.0000       0.889050        24.1923 
 142   0.0000       0.894753        24.3475 
 143   0.0000       0.902135        24.5483 
 144   0.0000       0.909246        24.7418 
 145   0.0000       0.914240        24.8777 
 146   0.0000       0.922119        25.0921 
 147   0.0000       0.932824        25.3834 
 148   0.0000       0.938949        25.5501 
 149   0.0000       0.947984        25.7960 
 150   0.0000       0.959556        26.1108 
 151   0.0000       0.972214        26.4553 
 152   0.0000       0.978894        26.6371 
 153   0.0000       0.989389        26.9226 
 154   0.0000       1.009298        27.4644 
 155   0.0000       1.014693        27.6112 
 156   0.0000       1.024098        27.8671 
 157   0.0000       1.034960        28.1627 
 158   0.0000       1.058995        28.8167 
 159   0.0000       1.065649        28.9978 
 160   0.0000       1.076447        29.2916 
 161   0.0000       1.103703        30.0333 
 162   0.0000       1.106102        30.0986 
 163   0.0000       1.142822        31.0978 
 164   0.0000       1.153702        31.3938 
 165   0.0000       1.155687        31.4478 
 166   0.0000       1.185946        32.2712 
 167   0.0000       1.192495        32.4494 
 168   0.0000       1.204725        32.7822 
 169   0.0000       1.223149        33.2836 
 170   0.0000       1.271965        34.6119 
 171   0.0000       1.281957        34.8838 
 172   0.0000       1.310156        35.6512 
 173   0.0000       1.320110        35.9220 
 174   0.0000       1.333605        36.2892 
 175   0.0000       1.367291        37.2059 
 176   0.0000       1.375074        37.4177 
 177   0.0000       1.393075        37.9075 
 178   0.0000       1.408950        38.3395 
 179   0.0000       1.410589        38.3841 
 180   0.0000       1.418872        38.6095 
 181   0.0000       1.423389        38.7324 
 182   0.0000       1.440444        39.1965 
 183   0.0000       1.475089        40.1392 
 184   0.0000       1.482329        40.3362 
 185   0.0000       1.498224        40.7687 
 186   0.0000       1.506262        40.9875 
 187   0.0000       1.509123        41.0653 
 188   0.0000       1.530035        41.6344 
 189   0.0000       1.537371        41.8340 
 190   0.0000       1.559072        42.4245 
 191   0.0000       1.559801        42.4444 
 192   0.0000       1.567183        42.6452 
 193   0.0000       1.578290        42.9475 
 194   0.0000       1.598763        43.5045 
 195   0.0000       1.608969        43.7823 
 196   0.0000       1.611233        43.8439 
 197   0.0000       1.633961        44.4623 
 198   0.0000       1.641437        44.6658 
 199   0.0000       1.662707        45.2446 
 200   0.0000       1.672283        45.5051 
 201   0.0000       1.701533        46.3011 
 202   0.0000       1.710881        46.5554 
 203   0.0000       1.727530        47.0085 
 204   0.0000       1.737566        47.2816 
 205   0.0000       1.750222        47.6260 
 206   0.0000       1.763439        47.9856 
 207   0.0000       1.774033        48.2739 
 208   0.0000       1.799044        48.9545 
 209   0.0000       1.812748        49.3274 
 210   0.0000       1.821358        49.5617 
 211   0.0000       1.835087        49.9353 
 212   0.0000       1.845591        50.2211 
 213   0.0000       1.864871        50.7457 
 214   0.0000       1.878871        51.1267 
 215   0.0000       1.893839        51.5340 
 216   0.0000       1.917101        52.1670 
 217   0.0000       1.944716        52.9184 
 218   0.0000       1.979771        53.8723 
 219   0.0000       2.003299        54.5125 
 220   0.0000       2.018509        54.9264 
 221   0.0000       2.053197        55.8703 
 222   0.0000       2.060052        56.0569 
 223   0.0000       2.066619        56.2356 
 224   0.0000       2.088474        56.8303 
 225   0.0000       2.115732        57.5720 
 226   0.0000       2.125617        57.8410 
 227   0.0000       2.154999        58.6405 
 228   0.0000       2.172293        59.1111 
 229   0.0000       2.196800        59.7780 
 230   0.0000       2.209742        60.1301 
 231   0.0000       2.226038        60.5736 
 232   0.0000       2.267244        61.6948 
 233   0.0000       2.282622        62.1133 
 234   0.0000       2.287731        62.2523 
 235   0.0000       2.298905        62.5564 
 236   0.0000       2.358682        64.1830 
 237   0.0000       2.372450        64.5577 
 238   0.0000       2.383884        64.8688 
 239   0.0000       2.392149        65.0937 
 240   0.0000       2.433788        66.2267 
 241   0.0000       2.448354        66.6231 
 242   0.0000       2.469115        67.1880 
 243   0.0000       2.487574        67.6903 
 244   0.0000       2.492216        67.8166 
 245   0.0000       2.502633        68.1001 
 246   0.0000       2.505609        68.1811 
 247   0.0000       2.517168        68.4956 
 248   0.0000       2.592681        70.5504 
 249   0.0000       2.608352        70.9769 
 250   0.0000       2.631081        71.5954 
 251   0.0000       2.666714        72.5650 
 252   0.0000       2.691660        73.2438 
 253   0.0000       2.695498        73.3482 
 254   0.0000       2.710348        73.7523 
 255   0.0000       2.743236        74.6472 
 256   0.0000       2.762315        75.1664 
 257   0.0000       2.776747        75.5591 
 258   0.0000       2.820809        76.7581 
 259   0.0000       2.837171        77.2033 
 260   0.0000       2.879553        78.3566 
 261   0.0000       2.967967        80.7625 
 262   0.0000       3.014202        82.0206 
 263   0.0000       3.017589        82.1128 
 264   0.0000       3.083073        83.8947 
 265   0.0000       3.090636        84.1005 
 266   0.0000       3.100929        84.3806 
 267   0.0000       3.113839        84.7319 
 268   0.0000       3.339430        90.8705 
 269   0.0000       3.355747        91.3145 
 270   0.0000       3.404354        92.6372 
 271   0.0000       3.419235        93.0421 
 272   0.0000       3.428916        93.3056 
 273   0.0000       3.434009        93.4441 
 274   0.0000       3.578399        97.3732 
 275   0.0000       4.907103       133.5291 
 276   0.0000       4.983508       135.6081 
 277   0.0000       4.985859       135.6721 
 278   0.0000       4.997370       135.9853 
 279   0.0000       5.010714       136.3485 
 280   0.0000       5.017107       136.5224 
 281   0.0000       5.037763       137.0845 
 282   0.0000       5.111385       139.0878 
 283   0.0000       5.123496       139.4174 
 284   0.0000       5.177253       140.8802 
 285   0.0000       5.182956       141.0354 
 286   0.0000       5.251241       142.8935 
 287   0.0000       5.259030       143.1055 
 288   0.0000       5.286723       143.8590 
 289   0.0000       5.342323       145.3720 
 290   0.0000       5.355345       145.7264 
 291   0.0000       5.426216       147.6548 
 292   0.0000       5.609419       152.6401 
 293   0.0000       5.695645       154.9864 
 294   0.0000       5.723986       155.7576 
 295   0.0000       5.779429       157.2663 
 296   0.0000       7.287764       198.3101 
 297   0.0000       7.314105       199.0269 
 298   0.0000       8.875711       241.5204 
 299   0.0000       9.062761       246.6103 
 300   0.0000       9.092218       247.4118 
 301   0.0000       9.111034       247.9238 
 302   0.0000      29.513250       803.0964 
 303   0.0000      29.593445       805.2786 
 304   0.0000      29.630237       806.2797 
 305   0.0000      29.840411       811.9989 
 306   0.0000      29.933225       814.5244 
 307   0.0000      30.070508       818.2601 
 308   0.0000      30.147230       820.3478 
 309   0.0000      30.161235       820.7289 
 310   0.0000      36.526914       993.9479 
 311   0.0000      36.606274       996.1074 
 312   0.0000      36.619895       996.4780 
 313   0.0000      36.621854       996.5313 
 314   0.0000      36.627437       996.6832 
 315   0.0000      36.636111       996.9193 
 316   0.0000      36.718844       999.1705 
 317   0.0000      36.749001       999.9911 
 318   0.0000      36.775277      1000.7062 
 319   0.0000      36.824615      1002.0487 
 320   0.0000      36.889885      1003.8248 
 321   0.0000      36.901920      1004.1523 
 322   0.0000      36.919628      1004.6342 
 323   0.0000      41.224288      1121.7699 
 324   0.0000      41.261612      1122.7855 
 325   0.0000      53.422901      1453.7111 
 326   0.0000      53.600294      1458.5381 
 327   0.0000      53.628401      1459.3030 
 328   0.0000      53.646811      1459.8039 

                 SPIN DOWN ORBITALS
  NO   OCC          E(Eh)            E(eV) 
   0   1.0000     -19.210394      -522.7414 
   1   1.0000     -19.159459      -521.3554 
   2   1.0000     -19.119583      -520.2703 
   3   1.0000     -19.108315      -519.9637 
   4   1.0000     -14.361557      -390.7978 
   5   1.0000     -14.355142      -390.6233 
   6   1.0000     -10.349367      -281.6206 
   7   1.0000     -10.299662      -280.2680 
   8   1.0000     -10.293834      -280.1095 
   9   1.0000     -10.248663      -278.8803 
  10   1.0000     -10.221608      -278.1441 
  11   1.0000     -10.217904      -278.0433 
  12   1.0000     -10.199244      -277.5355 
  13   1.0000     -10.190432      -277.2957 
  14   1.0000      -1.126504       -30.6537 
  15   1.0000      -1.042028       -28.3550 
  16   1.0000      -1.035791       -28.1853 
  17   1.0000      -1.028468       -27.9860 
  18   1.0000      -0.923443       -25.1282 
  19   1.0000      -0.920040       -25.0356 
  20   1.0000      -0.801145       -21.8003 
  21   1.0000      -0.760466       -20.6933 
  22   1.0000      -0.725779       -19.7494 
  23   1.0000      -0.694341       -18.8940 
  24   1.0000      -0.648864       -17.6565 
  25   1.0000      -0.600780       -16.3480 
  26   1.0000      -0.586611       -15.9625 
  27   1.0000      -0.552433       -15.0325 
  28   1.0000      -0.531308       -14.4576 
  29   1.0000      -0.513216       -13.9653 
  30   1.0000      -0.507356       -13.8058 
  31   1.0000      -0.491397       -13.3716 
  32   1.0000      -0.484029       -13.1711 
  33   1.0000      -0.473163       -12.8754 
  34   1.0000      -0.455127       -12.3846 
  35   1.0000      -0.450112       -12.2482 
  36   1.0000      -0.445655       -12.1269 
  37   1.0000      -0.436169       -11.8688 
  38   1.0000      -0.416199       -11.3253 
  39   1.0000      -0.408905       -11.1269 
  40   1.0000      -0.401416       -10.9231 
  41   1.0000      -0.399254       -10.8643 
  42   1.0000      -0.395456       -10.7609 
  43   1.0000      -0.392699       -10.6859 
  44   1.0000      -0.372254       -10.1295 
  45   1.0000      -0.370620       -10.0851 
  46   1.0000      -0.349067        -9.4986 
  47   1.0000      -0.343813        -9.3556 
  48   1.0000      -0.303207        -8.2507 
  49   1.0000      -0.275599        -7.4994 
  50   1.0000      -0.265810        -7.2331 
  51   1.0000      -0.255596        -6.9551 
  52   1.0000      -0.251209        -6.8357 
  53   0.0000      -0.068402        -1.8613 
  54   0.0000      -0.015606        -0.4247 
  55   0.0000       0.001263         0.0344 
  56   0.0000       0.012378         0.3368 
  57   0.0000       0.022042         0.5998 
  58   0.0000       0.023045         0.6271 
  59   0.0000       0.029095         0.7917 
  60   0.0000       0.046072         1.2537 
  61   0.0000       0.055916         1.5216 
  62   0.0000       0.065014         1.7691 
  63   0.0000       0.074630         2.0308 
  64   0.0000       0.096329         2.6213 
  65   0.0000       0.102204         2.7811 
  66   0.0000       0.121620         3.3094 
  67   0.0000       0.134120         3.6496 
  68   0.0000       0.150557         4.0969 
  69   0.0000       0.156059         4.2466 
  70   0.0000       0.164328         4.4716 
  71   0.0000       0.175470         4.7748 
  72   0.0000       0.181595         4.9415 
  73   0.0000       0.186539         5.0760 
  74   0.0000       0.192930         5.2499 
  75   0.0000       0.197994         5.3877 
  76   0.0000       0.199168         5.4196 
  77   0.0000       0.205565         5.5937 
  78   0.0000       0.220058         5.9881 
  79   0.0000       0.233609         6.3568 
  80   0.0000       0.238520         6.4905 
  81   0.0000       0.241458         6.5704 
  82   0.0000       0.246145         6.6979 
  83   0.0000       0.254312         6.9202 
  84   0.0000       0.267220         7.2714 
  85   0.0000       0.268786         7.3140 
  86   0.0000       0.274375         7.4661 
  87   0.0000       0.278221         7.5708 
  88   0.0000       0.290504         7.9050 
  89   0.0000       0.292608         7.9623 
  90   0.0000       0.293005         7.9731 
  91   0.0000       0.300137         8.1672 
  92   0.0000       0.309904         8.4329 
  93   0.0000       0.315734         8.5916 
  94   0.0000       0.327682         8.9167 
  95   0.0000       0.333994         9.0885 
  96   0.0000       0.341157         9.2834 
  97   0.0000       0.360556         9.8112 
  98   0.0000       0.363538         9.8924 
  99   0.0000       0.371247        10.1021 
 100   0.0000       0.381091        10.3700 
 101   0.0000       0.384896        10.4735 
 102   0.0000       0.395635        10.7658 
 103   0.0000       0.404478        11.0064 
 104   0.0000       0.426659        11.6100 
 105   0.0000       0.433862        11.8060 
 106   0.0000       0.441386        12.0107 
 107   0.0000       0.446520        12.1504 
 108   0.0000       0.456809        12.4304 
 109   0.0000       0.468262        12.7420 
 110   0.0000       0.479788        13.0557 
 111   0.0000       0.488894        13.3035 
 112   0.0000       0.509834        13.8733 
 113   0.0000       0.530443        14.4341 
 114   0.0000       0.534750        14.5513 
 115   0.0000       0.536638        14.6026 
 116   0.0000       0.554236        15.0815 
 117   0.0000       0.560712        15.2577 
 118   0.0000       0.584049        15.8928 
 119   0.0000       0.592844        16.1321 
 120   0.0000       0.614507        16.7216 
 121   0.0000       0.636599        17.3227 
 122   0.0000       0.672141        18.2899 
 123   0.0000       0.677085        18.4244 
 124   0.0000       0.692317        18.8389 
 125   0.0000       0.723235        19.6802 
 126   0.0000       0.727181        19.7876 
 127   0.0000       0.745244        20.2791 
 128   0.0000       0.773167        21.0390 
 129   0.0000       0.787888        21.4395 
 130   0.0000       0.796763        21.6810 
 131   0.0000       0.800778        21.7903 
 132   0.0000       0.819799        22.3079 
 133   0.0000       0.821857        22.3639 
 134   0.0000       0.828102        22.5338 
 135   0.0000       0.836614        22.7654 
 136   0.0000       0.844468        22.9791 
 137   0.0000       0.857206        23.3258 
 138   0.0000       0.867907        23.6169 
 139   0.0000       0.869381        23.6571 
 140   0.0000       0.880032        23.9469 
 141   0.0000       0.889575        24.2066 
 142   0.0000       0.896791        24.4029 
 143   0.0000       0.903372        24.5820 
 144   0.0000       0.911595        24.8058 
 145   0.0000       0.917170        24.9575 
 146   0.0000       0.922837        25.1117 
 147   0.0000       0.933487        25.4015 
 148   0.0000       0.940909        25.6034 
 149   0.0000       0.949805        25.8455 
 150   0.0000       0.960676        26.1413 
 151   0.0000       0.973862        26.5001 
 152   0.0000       0.981023        26.6950 
 153   0.0000       0.990805        26.9612 
 154   0.0000       1.010664        27.5016 
 155   0.0000       1.016726        27.6665 
 156   0.0000       1.025735        27.9117 
 157   0.0000       1.040801        28.3216 
 158   0.0000       1.059751        28.8373 
 159   0.0000       1.068527        29.0761 
 160   0.0000       1.084542        29.5119 
 161   0.0000       1.108310        30.1586 
 162   0.0000       1.111437        30.2437 
 163   0.0000       1.145895        31.1814 
 164   0.0000       1.156317        31.4650 
 165   0.0000       1.158829        31.5333 
 166   0.0000       1.187792        32.3215 
 167   0.0000       1.194893        32.5147 
 168   0.0000       1.206127        32.8204 
 169   0.0000       1.224488        33.3200 
 170   0.0000       1.283247        34.9189 
 171   0.0000       1.288147        35.0523 
 172   0.0000       1.311332        35.6831 
 173   0.0000       1.322928        35.9987 
 174   0.0000       1.338489        36.4221 
 175   0.0000       1.368547        37.2401 
 176   0.0000       1.379879        37.5484 
 177   0.0000       1.395319        37.9686 
 178   0.0000       1.410155        38.3723 
 179   0.0000       1.410687        38.3867 
 180   0.0000       1.420961        38.6663 
 181   0.0000       1.427842        38.8536 
 182   0.0000       1.446433        39.3594 
 183   0.0000       1.476744        40.1842 
 184   0.0000       1.483026        40.3552 
 185   0.0000       1.499018        40.7904 
 186   0.0000       1.507509        41.0214 
 187   0.0000       1.510457        41.1016 
 188   0.0000       1.531869        41.6843 
 189   0.0000       1.538893        41.8754 
 190   0.0000       1.560854        42.4730 
 191   0.0000       1.561559        42.4922 
 192   0.0000       1.571102        42.7518 
 193   0.0000       1.582902        43.0729 
 194   0.0000       1.601168        43.5700 
 195   0.0000       1.611036        43.8385 
 196   0.0000       1.613916        43.9169 
 197   0.0000       1.638698        44.5912 
 198   0.0000       1.643099        44.7110 
 199   0.0000       1.664938        45.3053 
 200   0.0000       1.674066        45.5536 
 201   0.0000       1.703975        46.3675 
 202   0.0000       1.712864        46.6094 
 203   0.0000       1.730813        47.0978 
 204   0.0000       1.741066        47.3768 
 205   0.0000       1.752845        47.6973 
 206   0.0000       1.769488        48.1502 
 207   0.0000       1.776564        48.3428 
 208   0.0000       1.804339        49.0986 
 209   0.0000       1.815506        49.4024 
 210   0.0000       1.824376        49.6438 
 211   0.0000       1.837365        49.9972 
 212   0.0000       1.850165        50.3456 
 213   0.0000       1.867723        50.8233 
 214   0.0000       1.883403        51.2500 
 215   0.0000       1.897248        51.6268 
 216   0.0000       1.921296        52.2811 
 217   0.0000       1.952508        53.1304 
 218   0.0000       1.981482        53.9189 
 219   0.0000       2.004656        54.5495 
 220   0.0000       2.021245        55.0009 
 221   0.0000       2.053983        55.8917 
 222   0.0000       2.062326        56.1187 
 223   0.0000       2.071305        56.3631 
 224   0.0000       2.090460        56.8843 
 225   0.0000       2.119217        57.6668 
 226   0.0000       2.127573        57.8942 
 227   0.0000       2.156789        58.6892 
 228   0.0000       2.175015        59.1852 
 229   0.0000       2.199703        59.8569 
 230   0.0000       2.210707        60.1564 
 231   0.0000       2.227985        60.6265 
 232   0.0000       2.270525        61.7841 
 233   0.0000       2.284725        62.1705 
 234   0.0000       2.290928        62.3393 
 235   0.0000       2.301344        62.6228 
 236   0.0000       2.358857        64.1878 
 237   0.0000       2.373982        64.5993 
 238   0.0000       2.384225        64.8781 
 239   0.0000       2.392448        65.1018 
 240   0.0000       2.434468        66.2452 
 241   0.0000       2.450253        66.6748 
 242   0.0000       2.473194        67.2990 
 243   0.0000       2.488469        67.7147 
 244   0.0000       2.492655        67.8286 
 245   0.0000       2.503391        68.1207 
 246   0.0000       2.506561        68.2070 
 247   0.0000       2.518351        68.5278 
 248   0.0000       2.595137        70.6173 
 249   0.0000       2.609226        71.0006 
 250   0.0000       2.632494        71.6338 
 251   0.0000       2.668945        72.6257 
 252   0.0000       2.692587        73.2690 
 253   0.0000       2.697095        73.3917 
 254   0.0000       2.712036        73.7982 
 255   0.0000       2.744675        74.6864 
 256   0.0000       2.764021        75.2128 
 257   0.0000       2.778249        75.6000 
 258   0.0000       2.820926        76.7613 
 259   0.0000       2.838062        77.2276 
 260   0.0000       2.879825        78.3640 
 261   0.0000       2.969524        80.8048 
 262   0.0000       3.015234        82.0487 
 263   0.0000       3.018724        82.1436 
 264   0.0000       3.083323        83.9015 
 265   0.0000       3.091210        84.1161 
 266   0.0000       3.101457        84.3949 
 267   0.0000       3.114417        84.7476 
 268   0.0000       3.339727        90.8786 
 269   0.0000       3.357087        91.3510 
 270   0.0000       3.405621        92.6716 
 271   0.0000       3.419750        93.0561 
 272   0.0000       3.429973        93.3343 
 273   0.0000       3.435135        93.4748 
 274   0.0000       3.578756        97.3829 
 275   0.0000       4.908561       133.5687 
 276   0.0000       4.985813       135.6709 
 277   0.0000       4.985905       135.6734 
 278   0.0000       4.997525       135.9896 
 279   0.0000       5.010926       136.3542 
 280   0.0000       5.017580       136.5353 
 281   0.0000       5.043209       137.2327 
 282   0.0000       5.113383       139.1422 
 283   0.0000       5.124871       139.4548 
 284   0.0000       5.177552       140.8883 
 285   0.0000       5.181978       141.0088 
 286   0.0000       5.251853       142.9102 
 287   0.0000       5.260031       143.1327 
 288   0.0000       5.288120       143.8971 
 289   0.0000       5.344180       145.4225 
 290   0.0000       5.356235       145.7506 
 291   0.0000       5.438541       147.9902 
 292   0.0000       5.610417       152.6672 
 293   0.0000       5.696356       155.0057 
 294   0.0000       5.723762       155.7515 
 295   0.0000       5.791253       157.5880 
 296   0.0000       7.289282       198.3514 
 297   0.0000       7.314796       199.0457 
 298   0.0000       8.875869       241.5247 
 299   0.0000       9.063886       246.6409 
 300   0.0000       9.092811       247.4280 
 301   0.0000       9.112008       247.9503 
 302   0.0000      29.515987       803.1708 
 303   0.0000      29.594643       805.3112 
 304   0.0000      29.631203       806.3060 
 305   0.0000      29.847403       812.1891 
 306   0.0000      29.936289       814.6078 
 307   0.0000      30.070734       818.2663 
 308   0.0000      30.146568       820.3298 
 309   0.0000      30.168079       820.9152 
 310   0.0000      36.527305       993.9585 
 311   0.0000      36.606284       996.1076 
 312   0.0000      36.620212       996.4866 
 313   0.0000      36.624159       996.5940 
 314   0.0000      36.630227       996.7591 
 315   0.0000      36.637171       996.9481 
 316   0.0000      36.719079       999.1769 
 317   0.0000      36.749352      1000.0007 
 318   0.0000      36.769279      1000.5429 
 319   0.0000      36.826332      1002.0954 
 320   0.0000      36.891328      1003.8641 
 321   0.0000      36.902698      1004.1735 
 322   0.0000      36.920454      1004.6566 
 323   0.0000      41.225212      1121.7951 
 324   0.0000      41.261975      1122.7954 
 325   0.0000      53.422974      1453.7130 
 326   0.0000      53.600907      1458.5548 
 327   0.0000      53.628733      1459.3120 
 328   0.0000      53.647330      1459.8181 

                    ********************************
                    * MULLIKEN POPULATION ANALYSIS *
                    ********************************

--------------------------------------------
MULLIKEN ATOMIC CHARGES AND SPIN POPULATIONS
--------------------------------------------
   0 N :   -0.151136    0.021101
   1 C :   -0.050762   -0.057793
   2 C :    0.015980    0.035481
   3 O :   -0.331285    0.017725
   4 C :   -0.141744    0.984858
   5 H :    0.128684   -0.048451
   6 C :   -0.268856   -0.045824
   7 H :    0.198013    0.029957
   8 H :    0.190117    0.000938
   9 C :    0.127443    0.025769
  10 O :   -0.257106    0.000772
  11 O :   -0.267668   -0.000431
  12 H :    0.249479   -0.000314
  13 H :    0.176194    0.006759
  14 C :    0.187477   -0.000407
  15 N :   -0.073398    0.008612
  16 H :    0.290994    0.000791
  17 H :    0.251541    0.000622
  18 O :   -0.304763    0.015687
  19 C :   -0.561056    0.003785
  20 H :    0.185528    0.000308
  21 H :    0.187537   -0.000329
  22 H :    0.151676    0.000079
  23 C :   -0.441566   -0.000874
  24 H :    0.185444    0.000947
  25 H :    0.151576    0.000280
  26 H :    0.171657   -0.000048
Sum of atomic charges         :    0.0000000
Sum of atomic spin populations:    1.0000000

-----------------------------------------------------
MULLIKEN REDUCED ORBITAL CHARGES AND SPIN POPULATIONS
-----------------------------------------------------
CHARGE
  0 N s       :     3.397689  s :     3.397689
      pz      :     1.099271  p :     3.719202
      px      :     1.002176
      py      :     1.617754
      dz2     :     0.008653  d :     0.034245
      dxz     :     0.012108
      dyz     :     0.003569
      dx2y2   :     0.005176
      dxy     :     0.004739
  1 C s       :     3.086021  s :     3.086021
      pz      :     0.950246  p :     2.856548
      px      :     0.853234
      py      :     1.053068
      dz2     :     0.024326  d :     0.108192
      dxz     :     0.017142
      dyz     :     0.014876
      dx2y2   :     0.028688
      dxy     :     0.023161
  2 C s       :     3.136300  s :     3.136300
      pz      :     0.936424  p :     2.654317
      px      :     0.878717
      py      :     0.839177
      dz2     :     0.060084  d :     0.193402
      dxz     :     0.039545
      dyz     :     0.023236
      dx2y2   :     0.037825
      dxy     :     0.032713
  3 O s       :     3.900670  s :     3.900670
      pz      :     1.460209  p :     4.412389
      px      :     1.528403
      py      :     1.423777
      dz2     :     0.003759  d :     0.018227
      dxz     :     0.005631
      dyz     :     0.004181
      dx2y2   :     0.002220
      dxy     :     0.002436
  4 C s       :     3.274602  s :     3.274602
      pz      :     0.956791  p :     2.808401
      px      :     0.991373
      py      :     0.860238
      dz2     :     0.009081  d :     0.058740
      dxz     :     0.008962
      dyz     :     0.015460
      dx2y2   :     0.013545
      dxy     :     0.011692
  5 H s       :     0.849499  s :     0.849499
      pz      :     0.008389  p :     0.021817
      px      :     0.008299
      py      :     0.005129
  6 C s       :     3.131163  s :     3.131163
      pz      :     1.145643  p :     3.063369
      px      :     0.980633
      py      :     0.937092
      dz2     :     0.011946  d :     0.074324
      dxz     :     0.015915
      dyz     :     0.014381
      dx2y2   :     0.012275
      dxy     :     0.019807
  7 H s       :     0.782089  s :     0.782089
      pz      :     0.009081  p :     0.019898
      px      :     0.005535
      py      :     0.005282
  8 H s       :     0.789275  s :     0.789275
      pz      :     0.007003  p :     0.020609
      px      :     0.008441
      py      :     0.005165
  9 C s       :     3.085552  s :     3.085552
      pz      :     0.810205  p :     2.569237
      px      :     0.924271
      py      :     0.834761
      dz2     :     0.024239  d :     0.217768
      dxz     :     0.027068
      dyz     :     0.038215
      dx2y2   :     0.064601
      dxy     :     0.063645
 10 O s       :     3.794830  s :     3.794830
      pz      :     1.710878  p :     4.445529
      px      :     1.510961
      py      :     1.223690
      dz2     :     0.002151  d :     0.016748
      dxz     :     0.001958
      dyz     :     0.002896
      dx2y2   :     0.005029
      dxy     :     0.004714
 11 O s       :     3.859759  s :     3.859759
      pz      :     1.379622  p :     4.389190
      px      :     1.313868
      py      :     1.695700
      dz2     :     0.002819  d :     0.018719
      dxz     :     0.005668
      dyz     :     0.001328
      dx2y2   :     0.004603
      dxy     :     0.004300
 12 H s       :     0.708843  s :     0.708843
      pz      :     0.018446  p :     0.041678
      px      :     0.009668
      py      :     0.013564
 13 H s       :     0.804512  s :     0.804512
      pz      :     0.006125  p :     0.019294
      px      :     0.003546
      py      :     0.009623
 14 C s       :     3.058855  s :     3.058855
      pz      :     0.862171  p :     2.559205
      px      :     0.901199
      py      :     0.795835
      dz2     :     0.050194  d :     0.194463
      dxz     :     0.070106
      dyz     :     0.045315
      dx2y2   :     0.014919
      dxy     :     0.013928
 15 N s       :     3.355734  s :     3.355734
      pz      :     1.095723  p :     3.682677
      px      :     1.132680
      py      :     1.454274
      dz2     :     0.008137  d :     0.034987
      dxz     :     0.008675
      dyz     :     0.007607
      dx2y2   :     0.005848
      dxy     :     0.004719
 16 H s       :     0.651348  s :     0.651348
      pz      :     0.018350  p :     0.057658
      px      :     0.021158
      py      :     0.018149
 17 H s       :     0.704947  s :     0.704947
      pz      :     0.015092  p :     0.043512
      px      :     0.011969
      py      :     0.016452
 18 O s       :     3.895330  s :     3.895330
      pz      :     1.266966  p :     4.391037
      px      :     1.698428
      py      :     1.425643
      dz2     :     0.007541  d :     0.018395
      dxz     :     0.005148
      dyz     :     0.004616
      dx2y2   :     0.000490
      dxy     :     0.000600
 19 C s       :     3.226251  s :     3.226251
      pz      :     1.127495  p :     3.274373
      px      :     0.994615
      py      :     1.152264
      dz2     :     0.017123  d :     0.060432
      dxz     :     0.007774
      dyz     :     0.009789
      dx2y2   :     0.014739
      dxy     :     0.011008
 20 H s       :     0.795522  s :     0.795522
      pz      :     0.006004  p :     0.018950
      px      :     0.005979
      py      :     0.006967
 21 H s       :     0.793364  s :     0.793364
      pz      :     0.004921  p :     0.019099
      px      :     0.005553
      py      :     0.008625
 22 H s       :     0.829274  s :     0.829274
      pz      :     0.009429  p :     0.019051
      px      :     0.005079
      py      :     0.004542
 23 C s       :     3.200387  s :     3.200387
      pz      :     0.904473  p :     3.153508
      px      :     1.082192
      py      :     1.166843
      dz2     :     0.018840  d :     0.087671
      dxz     :     0.016571
      dyz     :     0.025540
      dx2y2   :     0.019006
      dxy     :     0.007715
 24 H s       :     0.797280  s :     0.797280
      pz      :     0.004089  p :     0.017276
      px      :     0.004366
      py      :     0.008821
 25 H s       :     0.830712  s :     0.830712
      pz      :     0.003239  p :     0.017713
      px      :     0.009683
      py      :     0.004791
 26 H s       :     0.811163  s :     0.811163
      pz      :     0.004986  p :     0.017181
[...]
                 3.5131              21.8461              -4.2944
                -0.0496              -4.2943              10.5278

 A(FC)          14.2499              14.2499              14.2499
 A(SD)          -5.9992              -3.8549               9.8541
 A(ORB+DIA)      0.0020              -0.0003               0.0061    A(PC) =   0.0026
 A(ORB)          0.0015              -0.0004               0.0053    A(PC) =   0.0022
 A(DIA)          0.0005               0.0001               0.0008    A(PC) =   0.0004
             ----------           ----------           ----------
 A(Tot)          8.2526              10.3947              24.1101    A(iso)=   14.2525
 Orientation: 
  X           0.6060830           -0.7590228            0.2377976
  Y          -0.3776449           -0.0114783            0.9258793
  Z          -0.7000340           -0.6509628           -0.2935980

Notes:  (1) The A matrix conforms to the "SAI" spin Hamiltonian convention.
        (2) Tensor is right-handed.

 -----------------------------------------------------------
 Nucleus  15N : A:ISTP=    1 I=  0.5 P=533.5514 MHz/au**3
                Q:ISTP=    2 I=  1.0 Q=  0.0029 barn     
 -----------------------------------------------------------
 Solving for nuclear perturbation:
Forming RHS of the CP-SCF equations         ... 
Calc. nucleus orbit integrals (SHARK)       ... done

------------------------------------------------------------------------------
                           ORCA CP-SCF CALCULATION
------------------------------------------------------------------------------

Input orbitals are from        ... epr_info.gbw
Input Perturbation             ... epr_info.pin.tmp
Wavefunction output            ... epr_info.pout.tmp
Perturbation mode              ... Imaginary perturbation
Solver                         ... POPLE
Max. number of iterations      ... 64
Convergence tolerance          ... 1.000e-03
Integral handling              ... Direct
DFT GridXC                     ... 1
COSX GridX                     ... 1
COSX IntAccX                   ... 3.067
COSX Algorithm                 ... Auto
Number of perturbations        ... 3
Number of operators            ... 2
Orbital ranges used for CP-SCF:
 Operator 0:  Orbitals   0... 53  to  54...328
 Operator 1:  Orbitals   0... 52  to  53...328
Variables per perturbation     ... 29478
DFT calculation                         ... on
XC functional terms                     ... off
Hybrid DFT                              ... on
   Exchange mixing (SCF)                ...  0.200
   Exchange mixing (CP-SCF)             ...  0.200
   GGA exch. scaling(SCF)               ...  0.720
   GGA exch. scaling (CP-SCF)           ...  0.720
   GGA corr. scaling (SCF)              ...  0.810
   GGA corr. scaling (CP-SCF)           ...  0.810

CP-SCF GRID
-----------

General Integration Accuracy     IntAcc      ... 3.467
Radial Grid Type                 RadialGrid  ... OptM3 with GC (2021)
Angular Grid (max. ang.)         AngularGrid ... 1 (Lebedev-50)
Angular grid pruning method      GridPruning ... 4 (adaptive)
Weight generation scheme         WeightScheme... Becke
Basis function cutoff            BFCut       ... 1.0000e-10
Integration weight cutoff        WCut        ... 1.0000e-14
Angular grids for H and He will be reduced by one unit
Partially contracted basis set               ... off
Rotationally invariant grid construction     ... off

Total number of grid points                  ...    18211
Total number of batches                      ...      300
Average number of points per batch           ...       60
Average number of grid points per atom       ...      674

CP-SCF GRIDX
------------

General Integration Accuracy     IntAcc      ... 3.067
Radial Grid Type                 RadialGrid  ... OptM3 with GC (2021)
Angular Grid (max. ang.)         AngularGrid ... 1 (Lebedev-50)
Angular grid pruning method      GridPruning ... 4 (adaptive)
Weight generation scheme         WeightScheme... Becke
Basis function cutoff            BFCut       ... 1.0000e-10
Integration weight cutoff        WCut        ... 1.0000e-14
Angular grids for H and He will be reduced by one unit
Partially contracted basis set               ... on
Rotationally invariant grid construction     ... off

Total number of grid points                  ...     8462
Total number of batches                      ...      150
Average number of points per batch           ...       56
Average number of grid points per atom       ...      313

Memory available               ... 929.8 MB
Memory needed per perturbation ...   6.7 MB
Perturbations treated per batch... 3
Number of batches              ... 1
     CP-SCF ITERATION   0:   1.1689e+00 (   0.4 sec   0/  3 done)
     CP-SCF ITERATION   1:   4.7802e-02 (   0.4 sec   0/  3 done)
     CP-SCF ITERATION   2:   4.3890e-03 (   0.4 sec   0/  3 done)
     CP-SCF ITERATION   3:   3.1806e-04 (   0.4 sec   3/  3 done)
                    *** THE CP-SCF HAS CONVERGED ***

Forming final perturbed densities           ... done
Transforming perturbed density to AO basis  ... done

 Raw HFC matrix (all values in MHz): 
 -----------------------------------
                -1.6576              11.2290              -6.4238
                11.2533              -6.0548             -11.8450
                -6.6202             -11.8994               2.6207

 A(FC)          -1.6987              -1.6987              -1.6987
 A(SD)          -4.5411             -15.4340              19.9751
 A(ORB+DIA)      0.0935              -0.0536              -0.0356    A(PC) =   0.0014
 A(ORB)          0.0930              -0.0534              -0.0354    A(PC) =   0.0014
 A(DIA)          0.0004              -0.0001              -0.0002    A(PC) =   0.0000
             ----------           ----------           ----------
 A(Tot)         -6.1464             -17.1863              18.2409    A(iso)=   -1.6973
 Orientation: 
  X           0.7218053           -0.4476321           -0.5278472
  Y           0.1089395            0.8266556           -0.5520622
  Z           0.6834686            0.3409780            0.6454492

Notes:  (1) The A matrix conforms to the "SAI" spin Hamiltonian convention.
        (2) Tensor is right-handed.

 -----------------------------------------------------------
 Nucleus  16H : A:ISTP=    1 I=  0.5 P=533.5514 MHz/au**3
                Q:ISTP=    2 I=  1.0 Q=  0.0029 barn     
 -----------------------------------------------------------
 Solving for nuclear perturbation:
Forming RHS of the CP-SCF equations         ... 
Calc. nucleus orbit integrals (SHARK)       ... done

------------------------------------------------------------------------------
                           ORCA CP-SCF CALCULATION
------------------------------------------------------------------------------

Input orbitals are from        ... epr_info.gbw
Input Perturbation             ... epr_info.pin.tmp
Wavefunction output            ... epr_info.pout.tmp
Perturbation mode              ... Imaginary perturbation
Solver                         ... POPLE
Max. number of iterations      ... 64
Convergence tolerance          ... 1.000e-03
Integral handling              ... Direct
DFT GridXC                     ... 1
COSX GridX                     ... 1
COSX IntAccX                   ... 3.067
COSX Algorithm                 ... Auto
Number of perturbations        ... 3
Number of operators            ... 2
Orbital ranges used for CP-SCF:
 Operator 0:  Orbitals   0... 53  to  54...328
 Operator 1:  Orbitals   0... 52  to  53...328
Variables per perturbation     ... 29478
DFT calculation                         ... on
XC functional terms                     ... off
Hybrid DFT                              ... on
   Exchange mixing (SCF)                ...  0.200
   Exchange mixing (CP-SCF)             ...  0.200
   GGA exch. scaling(SCF)               ...  0.720
   GGA exch. scaling (CP-SCF)           ...  0.720
   GGA corr. scaling (SCF)              ...  0.810
   GGA corr. scaling (CP-SCF)           ...  0.810

CP-SCF GRID
-----------

General Integration Accuracy     IntAcc      ... 3.467
Radial Grid Type                 RadialGrid  ... OptM3 with GC (2021)
Angular Grid (max. ang.)         AngularGrid ... 1 (Lebedev-50)
Angular grid pruning method      GridPruning ... 4 (adaptive)
Weight generation scheme         WeightScheme... Becke
Basis function cutoff            BFCut       ... 1.0000e-10
Integration weight cutoff        WCut        ... 1.0000e-14
Angular grids for H and He will be reduced by one unit
Partially contracted basis set               ... off
Rotationally invariant grid construction     ... off

Total number of grid points                  ...    18211
Total number of batches                      ...      300
Average number of points per batch           ...       60
Average number of grid points per atom       ...      674

CP-SCF GRIDX
------------

General Integration Accuracy     IntAcc      ... 3.067
Radial Grid Type                 RadialGrid  ... OptM3 with GC (2021)
Angular Grid (max. ang.)         AngularGrid ... 1 (Lebedev-50)
Angular grid pruning method      GridPruning ... 4 (adaptive)
Weight generation scheme         WeightScheme... Becke
Basis function cutoff            BFCut       ... 1.0000e-10
Integration weight cutoff        WCut        ... 1.0000e-14
Angular grids for H and He will be reduced by one unit
Partially contracted basis set               ... on
Rotationally invariant grid construction     ... off

Total number of grid points                  ...     8462
Total number of batches                      ...      150
Average number of points per batch           ...       56
Average number of grid points per atom       ...      313

Memory available               ... 929.5 MB
Memory needed per perturbation ...   6.7 MB
Perturbations treated per batch... 3
Number of batches              ... 1
     CP-SCF ITERATION   0:   7.1207e-02 (   0.4 sec   0/  3 done)
     CP-SCF ITERATION   1:   2.9591e-03 (   0.4 sec   0/  3 done)
     CP-SCF ITERATION   2:   2.5773e-04 (   0.4 sec   3/  3 done)
                    *** THE CP-SCF HAS CONVERGED ***

Forming final perturbed densities           ... done
Transforming perturbed density to AO basis  ... done

 Raw HFC matrix (all values in MHz): 
 -----------------------------------
                 1.1841               1.0731               0.2378
                 1.0743               3.4384               0.0504
                 0.2386               0.0495               0.7046

 A(FC)           1.7754               1.7754               1.7754
 A(SD)          -1.2527              -0.8445               2.0972
 A(ORB+DIA)     -0.0003               0.0001               0.0011    A(PC) =   0.0003
 A(ORB)         -0.0003               0.0002               0.0009    A(PC) =   0.0003
 A(DIA)         -0.0000              -0.0000               0.0002    A(PC) =   0.0000
             ----------           ----------           ----------
 A(Tot)          0.5224               0.9310               3.8737    A(iso)=    1.7757
 Orientation: 
  X          -0.6200733            0.6899183            0.3735262
  Y           0.2151248           -0.3083387            0.9266329
  Z           0.7544736            0.6549351            0.0427741

Notes:  (1) The A matrix conforms to the "SAI" spin Hamiltonian convention.
        (2) Tensor is right-handed.

 -----------------------------------------------------------
 Nucleus  17H : A:ISTP=    1 I=  0.5 P=533.5514 MHz/au**3
                Q:ISTP=    2 I=  1.0 Q=  0.0029 barn     
 -----------------------------------------------------------
 Solving for nuclear perturbation:
Forming RHS of the CP-SCF equations         ... 
Calc. nucleus orbit integrals (SHARK)       ... done

------------------------------------------------------------------------------
                           ORCA CP-SCF CALCULATION
------------------------------------------------------------------------------

Input orbitals are from        ... epr_info.gbw
Input Perturbation             ... epr_info.pin.tmp
Wavefunction output            ... epr_info.pout.tmp
Perturbation mode              ... Imaginary perturbation
Solver                         ... POPLE
Max. number of iterations      ... 64
Convergence tolerance          ... 1.000e-03
Integral handling              ... Direct
DFT GridXC                     ... 1
COSX GridX                     ... 1
COSX IntAccX                   ... 3.067
COSX Algorithm                 ... Auto
Number of perturbations        ... 3
Number of operators            ... 2
Orbital ranges used for CP-SCF:
 Operator 0:  Orbitals   0... 53  to  54...328
 Operator 1:  Orbitals   0... 52  to  53...328
Variables per perturbation     ... 29478
DFT calculation                         ... on
XC functional terms                     ... off
Hybrid DFT                              ... on
   Exchange mixing (SCF)                ...  0.200
   Exchange mixing (CP-SCF)             ...  0.200
   GGA exch. scaling(SCF)               ...  0.720
   GGA exch. scaling (CP-SCF)           ...  0.720
   GGA corr. scaling (SCF)              ...  0.810
   GGA corr. scaling (CP-SCF)           ...  0.810

CP-SCF GRID
-----------

General Integration Accuracy     IntAcc      ... 3.467
Radial Grid Type                 RadialGrid  ... OptM3 with GC (2021)
Angular Grid (max. ang.)         AngularGrid ... 1 (Lebedev-50)
Angular grid pruning method      GridPruning ... 4 (adaptive)
Weight generation scheme         WeightScheme... Becke
Basis function cutoff            BFCut       ... 1.0000e-10
Integration weight cutoff        WCut        ... 1.0000e-14
Angular grids for H and He will be reduced by one unit
Partially contracted basis set               ... off
Rotationally invariant grid construction     ... off

Total number of grid points                  ...    18211
Total number of batches                      ...      300
Average number of points per batch           ...       60
Average number of grid points per atom       ...      674

CP-SCF GRIDX
------------

General Integration Accuracy     IntAcc      ... 3.067
Radial Grid Type                 RadialGrid  ... OptM3 with GC (2021)
Angular Grid (max. ang.)         AngularGrid ... 1 (Lebedev-50)
Angular grid pruning method      GridPruning ... 4 (adaptive)
Weight generation scheme         WeightScheme... Becke
Basis function cutoff            BFCut       ... 1.0000e-10
Integration weight cutoff        WCut        ... 1.0000e-14
Angular grids for H and He will be reduced by one unit
Partially contracted basis set               ... on
Rotationally invariant grid construction     ... off

Total number of grid points                  ...     8462
Total number of batches                      ...      150
Average number of points per batch           ...       56
Average number of grid points per atom       ...      313

Memory available               ... 929.1 MB
Memory needed per perturbation ...   6.7 MB
Perturbations treated per batch... 3
Number of batches              ... 1
     CP-SCF ITERATION   0:   6.3489e-02 (   0.4 sec   0/  3 done)
     CP-SCF ITERATION   1:   2.3739e-03 (   0.4 sec   0/  3 done)
     CP-SCF ITERATION   2:   2.4052e-04 (   0.4 sec   3/  3 done)
                    *** THE CP-SCF HAS CONVERGED ***

Forming final perturbed densities           ... done
Transforming perturbed density to AO basis  ... done

 Raw HFC matrix (all values in MHz): 
 -----------------------------------
                -4.5697               0.8025               9.0445
                 0.8059             -11.2887              -1.7675
                 9.0500              -1.7681               4.3415

 A(FC)          -3.8337              -3.8337              -3.8337
 A(SD)          -5.2092              13.8609              -8.6517
 A(ORB+DIA)     -0.0153              -0.0019               0.0013    A(PC) =  -0.0053
 A(ORB)         -0.0152              -0.0020               0.0019    A(PC) =  -0.0051
 A(DIA)         -0.0002               0.0001              -0.0007    A(PC) =  -0.0003
             ----------           ----------           ----------
 A(Tot)         -9.0583              10.0254             -12.4841    A(iso)=   -3.8390
 Orientation: 
  X           0.7102278           -0.5249224           -0.4690767
  Y           0.5761521            0.0505540            0.8157776
  Z          -0.4045062           -0.8496475            0.3383400

Notes:  (1) The A matrix conforms to the "SAI" spin Hamiltonian convention.
        (2) Tensor is right-handed.


--------------------------------------------------------------------------------
----------------------------------------------------------------------------
                           ORCA EULER ANGLE PROGRAM
----------------------------------------------------------------------------

Only g-tensor available        -->  using g-tensor as reference tensor

Reference tensor               ...  g

g-tensor ordering              ...  |g_min> --> |gx>
                                    |g_mid> --> |gy>
                                    |g_max> --> |gz>

A- and EFG-tensor ordering     ...  the axes |Ax>, |Qx>, |Ay>, etc. are assigned
                                    such that the Euler rotation is minimal. You
                                    can find the respective eigenvalues as Ax,
                                    EFGx, Ay, etc. in the tables below.
                                    The relation of |Ax>, |Ay>,  etc. to Amin, Amid, etc.
                                    (as printed in the ORCA EPR/NMR CALCULATION Output)
                                    is obtained in the detailed printout.

Euler rotation around          ...  z - y - z
   First rotation              -->  by alpha around z
   Second rotation             -->  by beta around y'
   Third rotation              -->  by gamma around z''
   Positive / Negative angle   -->  clockwise / counterclockwise rotation

Plot EFG-tensors                    (-)
Plot HFC-tensors                    (-)
Detailed Printout                   (-)

-------------------------------------------------------------------------
          Euler rotation of hyperfine tensor to g-tensor
-------------------------------------------------------------------------

-------------------------------------------------------------------
 Atom  |   Alpha    Beta    Gamma   |   Ax       Ay       Az 
       |          [degrees]         |           [MHz]         
-------------------------------------------------------------------
  0N      172.1     15.7    144.9      88.33   148.53    85.65
  3O      -99.1     15.8     75.3      70.28    -6.95   -13.36
  5H       93.3     35.3    -96.2     -64.68   -21.70  -100.56
  7H       33.3     25.0    -52.2      78.17    76.97    90.92
  8H      -98.1     18.4     91.7      -0.65    -1.97    11.74
 10O      116.1     41.5   -102.2      12.03    11.44    23.08
 11O     -152.4     16.5    178.1       9.96    -1.27    21.77
 12H     -175.6      7.9    172.6       0.01     5.24    -2.62
 13H      105.2     39.4   -104.9      10.39     8.25    24.11
 15N     -101.4     17.5     96.7      -6.15    18.24   -17.19
 16H      133.6     40.3   -137.7       0.93     0.52     3.87
 17H     -115.1     18.2     92.9      10.03    -9.06   -12.48
-------------------------------------------------------------------


Maximum memory used throughout the entire EPRNMR-calculation: 123.5 MB

Timings for individual modules:

Sum of individual times         ...      313.009 sec (=   5.217 min)
GTO integral calculation        ...        3.427 sec (=   0.057 min)   1.1 %
Spin-Orbit-Coupling Matrices    ...       10.848 sec (=   0.181 min)   3.5 %
SCF iterations                  ...       22.981 sec (=   0.383 min)   7.3 %
EPR/NMR calculation             ...      275.752 sec (=   4.596 min)  88.1 %
                             ****ORCA TERMINATED NORMALLY****
TOTAL RUN TIME: 0 days 0 hours 5 minutes 24 seconds 782 msec
