
                                 *****************
                                 * O   R   C   A *
                                 *****************

                                            #,                                       
                                            ###                                      
                                            ####                                     
                                            #####                                    
                                            ######                                   
                                           ########,                                 
                                     ,,################,,,,,                         
                               ,,#################################,,                 
                          ,,##########################################,,             
                       ,#########################################, ''#####,          
                    ,#############################################,,   '####,        
                  ,##################################################,,,,####,       
                ,###########''''           ''''###############################       
              ,#####''   ,,,,##########,,,,          '''####'''          '####       
            ,##' ,,,,###########################,,,                        '##       
           ' ,,###''''                  '''############,,,                           
         ,,##''                                '''############,,,,        ,,,,,,###''
      ,#''                                            '''#######################'''  
     '                                                          ''''####''''         
             ,#######,   #######,   ,#######,      ##                                
            ,#'     '#,  ##    ##  ,#'     '#,    #''#        ######   ,####,        
            ##       ##  ##   ,#'  ##            #'  '#       #        #'  '#        
            ##       ##  #######   ##           ,######,      #####,   #    #        
            '#,     ,#'  ##    ##  '#,     ,#' ,#      #,         ##   #,  ,#        
             '#######'   ##     ##  '#######'  #'      '#     #####' # '####'        



                  #######################################################
                  #                        -***-                        #
                  #          Department of theory and spectroscopy      #
                  #    Directorship and core code : Frank Neese         #
                  #        Max Planck Institute fuer Kohlenforschung    #
                  #                Kaiser Wilhelm Platz 1               #
                  #                 D-45470 Muelheim/Ruhr               #
                  #                      Germany                        #
                  #                                                     #
                  #                  All rights reserved                #
                  #                        -***-                        #
                  #######################################################


                         Program Version 5.0.4 -  RELEASE  -


 With contributions from (in alphabetic order):
   Daniel Aravena         : Magnetic Suceptibility
   Michael Atanasov       : Ab Initio Ligand Field Theory (pilot matlab implementation)
   Alexander A. Auer      : GIAO ZORA, VPT2 properties, NMR spectrum
   Ute Becker             : Parallelization
   Giovanni Bistoni       : ED, misc. LED, open-shell LED, HFLD
   Martin Brehm           : Molecular dynamics
   Dmytro Bykov           : SCF Hessian
   Vijay G. Chilkuri      : MRCI spin determinant printing, contributions to CSF-ICE
   Dipayan Datta          : RHF DLPNO-CCSD density
   Achintya Kumar Dutta   : EOM-CC, STEOM-CC
   Dmitry Ganyushin       : Spin-Orbit,Spin-Spin,Magnetic field MRCI
   Miquel Garcia          : C-PCM and meta-GGA Hessian, CC/C-PCM, Gaussian charge scheme
   Yang Guo               : DLPNO-NEVPT2, F12-NEVPT2, CIM, IAO-localization
   Andreas Hansen         : Spin unrestricted coupled pair/coupled cluster methods
   Benjamin Helmich-Paris : MC-RPA, TRAH-SCF, COSX integrals
   Lee Huntington         : MR-EOM, pCC
   Robert Izsak           : Overlap fitted RIJCOSX, COSX-SCS-MP3, EOM
   Marcus Kettner         : VPT2
   Christian Kollmar      : KDIIS, OOCD, Brueckner-CCSD(T), CCSD density, CASPT2, CASPT2-K
   Simone Kossmann        : Meta GGA functionals, TD-DFT gradient, OOMP2, MP2 Hessian
   Martin Krupicka        : Initial AUTO-CI
   Lucas Lang             : DCDCAS
   Marvin Lechner         : AUTO-CI (C++ implementation), FIC-MRCC
   Dagmar Lenk            : GEPOL surface, SMD
   Dimitrios Liakos       : Extrapolation schemes; Compound Job, initial MDCI parallelization
   Dimitrios Manganas     : Further ROCIS development; embedding schemes
   Dimitrios Pantazis     : SARC Basis sets
   Anastasios Papadopoulos: AUTO-CI, single reference methods and gradients
   Taras Petrenko         : DFT Hessian,TD-DFT gradient, ASA, ECA, R-Raman, ABS, FL, XAS/XES, NRVS
   Peter Pinski           : DLPNO-MP2, DLPNO-MP2 Gradient
   Christoph Reimann      : Effective Core Potentials
   Marius Retegan         : Local ZFS, SOC
   Christoph Riplinger    : Optimizer, TS searches, QM/MM, DLPNO-CCSD(T), (RO)-DLPNO pert. Triples
   Tobias Risthaus        : Range-separated hybrids, TD-DFT gradient, RPA, STAB
   Michael Roemelt        : Original ROCIS implementation
   Masaaki Saitow         : Open-shell DLPNO-CCSD energy and density
   Barbara Sandhoefer     : DKH picture change effects
   Avijit Sen             : IP-ROCIS
   Kantharuban Sivalingam : CASSCF convergence, NEVPT2, FIC-MRCI
   Bernardo de Souza      : ESD, SOC TD-DFT
   Georgi Stoychev        : AutoAux, RI-MP2 NMR, DLPNO-MP2 response
   Willem Van den Heuvel  : Paramagnetic NMR
   Boris Wezisla          : Elementary symmetry handling
   Frank Wennmohs         : Technical directorship


 We gratefully acknowledge several colleagues who have allowed us to
 interface, adapt or use parts of their codes:
   Stefan Grimme, W. Hujo, H. Kruse, P. Pracht,  : VdW corrections, initial TS optimization,
                  C. Bannwarth, S. Ehlert          DFT functionals, gCP, sTDA/sTD-DF
   Ed Valeev, F. Pavosevic, A. Kumar             : LibInt (2-el integral package), F12 methods
   Garnet Chan, S. Sharma, J. Yang, R. Olivares  : DMRG
   Ulf Ekstrom                                   : XCFun DFT Library
   Mihaly Kallay                                 : mrcc  (arbitrary order and MRCC methods)
   Jiri Pittner, Ondrej Demel                    : Mk-CCSD
   Frank Weinhold                                : gennbo (NPA and NBO analysis)
   Christopher J. Cramer and Donald G. Truhlar   : smd solvation model
   Lars Goerigk                                  : TD-DFT with DH, B97 family of functionals
   V. Asgeirsson, H. Jonsson                     : NEB implementation
   FAccTs GmbH                                   : IRC, NEB, NEB-TS, DLPNO-Multilevel, CI-OPT
                                                   MM, QMMM, 2- and 3-layer-ONIOM, Crystal-QMMM,
                                                   LR-CPCM, SF, NACMEs, symmetry and pop. for TD-DFT,
                                                   nearIR, NL-DFT gradient (VV10), updates on ESD,
                                                   ML-optimized integration grids
   S Lehtola, MJT Oliveira, MAL Marques          : LibXC Library
   Liviu Ungur et al                             : ANISO software


 Your calculation uses the libint2 library for the computation of 2-el integrals
 For citations please refer to: http://libint.valeyev.net

 Your ORCA version has been built with support for libXC version: 5.1.0
 For citations please refer to: https://tddft.org/programs/libxc/

 This ORCA versions uses:
   CBLAS   interface :  Fast vector & matrix operations
   LAPACKE interface :  Fast linear algebra routines
   SCALAPACK package :  Parallel linear algebra routines
   Shared memory     :  Shared parallel matrices
   BLAS/LAPACK       :  OpenBLAS 0.3.15  USE64BITINT DYNAMIC_ARCH NO_AFFINITY Zen SINGLE_THREADED
        Core in use  :  Zen
   Copyright (c) 2011-2014, The OpenBLAS Project




***************************************
The coordinates will be read from file: opt.xyz
***************************************


XCFun DFT library Copyright 2009-2010 Ulf Ekstrom and contributors.
See http://admol.org/xcfun for more information.
This is free software; see the source code for copying conditions.
There is ABSOLUTELY NO WARRANTY; not even for MERCHANTABILITY or FITNESS FOR A PARTICULAR PURPOSE.
For details see the documentation.
Scientific users of this library should cite U. Ekstrom, L. Visscher, R. Bast, A. J. Thorvaldsen and K. Ruud;
J.Chem.Theor.Comp. 2010, DOI: 10.1021/ct100117s
XCFun Version 0.99 

================================================================================

----- Orbital basis set information -----
Your calculation utilizes the basis: def2-TZVP
   F. Weigend and R. Ahlrichs, Phys. Chem. Chem. Phys. 7, 3297 (2005).

----- AuxJ basis set information -----
Your calculation utilizes the auxiliary basis: def2/J
   F. Weigend, Phys. Chem. Chem. Phys. 8, 1057 (2006).

================================================================================
                                        WARNINGS
                       Please study these warnings very carefully!
================================================================================


WARNING: your system is open-shell and RHF/RKS was chosen
  ===> : WILL SWITCH to UHF/UKS


WARNING: Geometry Optimization
  ===> : Switching off AutoStart
         For restart on a previous wavefunction, please use MOREAD

WARNING: Minnesota functionals are quite sensitive to the integration grid.
         see SE Wheeler, KN Houk, JCTC 2010, 6, 395,
             N Mardirossian, M Head-Gordon, JCTC 2016, 12, 4303.
         DEFGRID3 seems to be a minimum grid for reliable results with these functionals!
  ===> : Please increase the integration grid!


INFO   : the flag for use of the SHARK integral package has been found!

================================================================================
                                       INPUT FILE
================================================================================
NAME = freq.inp
|  1> ! M062X def2-TZVP OPT FREQ
|  2> %pal nprocs 16 end
|  3> *XYZFile 0 2 opt.xyz
|  4> 
|  5>                          ****END OF INPUT****
================================================================================

                       *****************************
                       * Geometry Optimization Run *
                       *****************************

Geometry optimization settings:
Update method            Update   .... BFGS
Choice of coordinates    CoordSys .... Z-matrix Internals
Initial Hessian          InHess   .... Almoef's Model

Convergence Tolerances:
Energy Change            TolE     ....  5.0000e-06 Eh
Max. Gradient            TolMAXG  ....  3.0000e-04 Eh/bohr
RMS Gradient             TolRMSG  ....  1.0000e-04 Eh/bohr
Max. Displacement        TolMAXD  ....  4.0000e-03 bohr
RMS Displacement         TolRMSD  ....  2.0000e-03 bohr
Strict Convergence                ....  False
------------------------------------------------------------------------------
                        ORCA OPTIMIZATION COORDINATE SETUP
------------------------------------------------------------------------------

The optimization will be done in new redundant internal coordinates
Making redundant internal coordinates   ...  (new redundants) done
Evaluating the initial hessian          ...  (Almloef) done
Evaluating the coordinates              ...  done
Calculating the B-matrix                .... done
Calculating the G-matrix                .... done
Diagonalizing the G-matrix              .... done
Small eigenvalue found = 6.678e-03
Small eigenvalue found = 8.576e-03
Small eigenvalue found = 1.607e-02
The first mode is                       ....   46
The number of degrees of freedom        ....   75

    -----------------------------------------------------------------
                    Redundant Internal Coordinates


    -----------------------------------------------------------------
         Definition                    Initial Value    Approx d2E/dq
    -----------------------------------------------------------------
      1. B(C   1,N   0)                  1.4654         0.424225   
      2. B(C   2,C   1)                  1.5669         0.326264   
      3. B(O   3,C   2)                  1.2338         0.993431   
      4. B(C   4,C   1)                  1.4988         0.419014   
      5. B(H   5,C   4)                  1.0849         0.366887   
      6. B(C   6,C   4)                  1.4985         0.419406   
      7. B(H   7,C   6)                  1.0982         0.349366   
      8. B(H   8,C   6)                  1.0974         0.350427   
      9. B(C   9,C   6)                  1.5258         0.379323   
     10. B(O  10,C   9)                  1.3532         0.640533   
     11. B(O  11,C   9)                  1.2199         1.045164   
     12. B(H  12,N   0)                  1.0143         0.425987   
     13. B(H  13,C   1)                  1.1005         0.346533   
     14. B(C  14,N   0)                  1.3722         0.597333   
     15. B(N  15,C   2)                  1.3533         0.640271   
     16. B(H  16,O  10)                  0.9715         0.498489   
     17. B(H  17,N  15)                  1.0157         0.423673   
     18. B(O  18,C  14)                  1.2302         1.006638   
     19. B(C  19,C  14)                  1.5263         0.378756   
     20. B(H  20,C  19)                  1.0929         0.356222   
     21. B(H  21,C  19)                  1.0940         0.354879   
     22. B(H  22,C  19)                  1.0929         0.356242   
     23. B(C  23,N  15)                  1.4604         0.431996   
     24. B(H  24,C  23)                  1.0918         0.357676   
     25. B(H  25,C  23)                  1.0915         0.358147   
     26. B(H  26,C  23)                  1.0960         0.352288   
     27. A(C   1,N   0,C  14)          121.4293         0.397862   
     28. A(C   1,N   0,H  12)          113.4393         0.335599   
     29. A(H  12,N   0,C  14)          119.5574         0.355459   
     30. A(N   0,C   1,H  13)          109.5811         0.327118   
     31. A(C   4,C   1,H  13)          107.6689         0.328423   
     32. A(N   0,C   1,C   2)          105.0237         0.360585   
     33. A(C   2,C   1,C   4)          115.6840         0.362074   
     34. A(N   0,C   1,C   4)          113.5781         0.376409   
     35. A(C   2,C   1,H  13)          104.8870         0.315241   
     36. A(O   3,C   2,N  15)          124.0408         0.469390   
     37. A(C   1,C   2,N  15)          116.1738         0.387104   
     38. A(C   1,C   2,O   3)          119.7161         0.418266   
     39. A(C   1,C   4,C   6)          123.2020         0.378045   
     40. A(C   1,C   4,H   5)          118.4071         0.331535   
     41. A(H   5,C   4,C   6)          118.3267         0.331587   
     42. A(H   8,C   6,C   9)          107.0305         0.323683   
     43. A(H   7,C   6,C   9)          107.6847         0.323522   
     44. A(C   4,C   6,C   9)          113.0263         0.371607   
     45. A(H   7,C   6,H   8)          105.8317         0.288230   
     46. A(C   4,C   6,H   8)          111.3666         0.329080   
     47. A(C   4,C   6,H   7)          111.5170         0.328915   
     48. A(C   6,C   9,O  11)          125.7078         0.433627   
     49. A(C   6,C   9,O  10)          112.2765         0.397475   
     50. A(O  10,C   9,O  11)          122.0127         0.473822   
     51. A(C   9,O  10,H  16)          106.7568         0.369507   
     52. A(O  18,C  14,C  19)          121.7698         0.430594   
     53. A(N   0,C  14,C  19)          115.5841         0.392535   
     54. A(N   0,C  14,O  18)          122.6360         0.464582   
     55. A(C   2,N  15,H  17)          118.3430         0.359345   
     56. A(H  17,N  15,C  23)          118.5807         0.336310   
     57. A(C   2,N  15,C  23)          121.1751         0.404045   
     58. A(C  14,C  19,H  21)          108.3161         0.324275   
     59. A(C  14,C  19,H  20)          108.5488         0.324476   
     60. A(H  21,C  19,H  22)          109.2610         0.289684   
     61. A(H  20,C  19,H  22)          109.4381         0.289855   
     62. A(C  14,C  19,H  22)          113.5344         0.324479   
     63. A(H  20,C  19,H  21)          107.5684         0.289681   
     64. A(H  24,C  23,H  26)          108.1272         0.289533   
     65. A(N  15,C  23,H  26)          111.6516         0.328991   
     66. A(H  24,C  23,H  25)          109.4215         0.290283   
     67. A(N  15,C  23,H  25)          108.6504         0.329888   
     68. A(H  25,C  23,H  26)          109.1845         0.289593   
     69. A(N  15,C  23,H  24)          109.7807         0.329817   
     70. D(H  13,C   1,N   0,H  12)     93.8176         0.015344   
     71. D(C   2,C   1,N   0,H  12)    -18.3802         0.015344   
     72. D(C   4,C   1,N   0,C  14)     60.7487         0.015344   
     73. D(C   4,C   1,N   0,H  12)   -145.7357         0.015344   
     74. D(H  13,C   1,N   0,C  14)    -59.6980         0.015344   
     75. D(C   2,C   1,N   0,C  14)   -171.8958         0.015344   
     76. D(O   3,C   2,C   1,C   4)    159.2327         0.008162   
     77. D(N  15,C   2,C   1,H  13)     94.7739         0.008162   
     78. D(N  15,C   2,C   1,C   4)    -23.6726         0.008162   
     79. D(O   3,C   2,C   1,N   0)     33.1723         0.008162   
     80. D(O   3,C   2,C   1,H  13)    -82.3208         0.008162   
     81. D(N  15,C   2,C   1,N   0)   -149.7331         0.008162   
     82. D(H   5,C   4,C   1,C   2)    107.5441         0.012985   
     83. D(H   5,C   4,C   1,H  13)     -9.3531         0.012985   
     84. D(H   5,C   4,C   1,N   0)   -130.8730         0.012985   
     85. D(C   6,C   4,C   1,H  13)    167.6815         0.012985   
     86. D(C   6,C   4,C   1,C   2)    -75.4214         0.012985   
     87. D(C   6,C   4,C   1,N   0)     46.1615         0.012985   
     88. D(C   9,C   6,C   4,H   5)    -64.8516         0.013008   
     89. D(H   8,C   6,C   4,H   5)    174.6177         0.013008   
     90. D(H   8,C   6,C   4,C   1)     -2.4191         0.013008   
     91. D(H   7,C   6,C   4,H   5)     56.6396         0.013008   
     92. D(C   9,C   6,C   4,C   1)    118.1116         0.013008   
     93. D(H   7,C   6,C   4,C   1)   -120.3972         0.013008   
     94. D(O  11,C   9,C   6,H   8)    105.1658         0.010739   
     95. D(O  11,C   9,C   6,H   7)   -141.4345         0.010739   
     96. D(O  11,C   9,C   6,C   4)    -17.8056         0.010739   
     97. D(O  10,C   9,C   6,H   8)    -74.2122         0.010739   
     98. D(O  10,C   9,C   6,H   7)     39.1876         0.010739   
     99. D(O  10,C   9,C   6,C   4)    162.8165         0.010739   
    100. D(H  16,O  10,C   9,C   6)    178.6401         0.030250   
    101. D(H  16,O  10,C   9,O  11)     -0.7642         0.030250   
    102. D(C  19,C  14,N   0,H  12)     17.2528         0.028733   
    103. D(C  19,C  14,N   0,C   1)    169.1946         0.028733   
    104. D(O  18,C  14,N   0,H  12)   -163.8867         0.028733   
    105. D(O  18,C  14,N   0,C   1)    -11.9449         0.028733   
    106. D(C  23,N  15,C   2,O   3)     -2.0585         0.033369   
    107. D(C  23,N  15,C   2,C   1)   -179.0133         0.033369   
    108. D(H  17,N  15,C   2,O   3)   -166.1417         0.033369   
    109. D(H  17,N  15,C   2,C   1)     16.9035         0.033369   
    110. D(H  22,C  19,C  14,O  18)   -174.6781         0.010709   
    111. D(H  22,C  19,C  14,N   0)      4.1932         0.010709   
    112. D(H  21,C  19,C  14,O  18)     63.7764         0.010709   
    113. D(H  21,C  19,C  14,N   0)   -117.3522         0.010709   
    114. D(H  20,C  19,C  14,O  18)    -52.7397         0.010709   
    115. D(H  20,C  19,C  14,N   0)    126.1317         0.010709   
    116. D(H  26,C  23,N  15,H  17)     92.8766         0.015911   
    117. D(H  26,C  23,N  15,C   2)    -71.1698         0.015911   
    118. D(H  25,C  23,N  15,H  17)    -27.5966         0.015911   
    119. D(H  25,C  23,N  15,C   2)    168.3570         0.015911   
    120. D(H  24,C  23,N  15,H  17)   -147.2225         0.015911   
    121. D(H  24,C  23,N  15,C   2)     48.7312         0.015911   
    -----------------------------------------------------------------

Number of atoms                         .... 27
Number of degrees of freedom            .... 121

         *************************************************************
         *                GEOMETRY OPTIMIZATION CYCLE   1            *
         *************************************************************
---------------------------------
CARTESIAN COORDINATES (ANGSTROEM)
---------------------------------
  N     -4.538675   -4.774875   -0.641114
  C     -3.085752   -4.922337   -0.762098
  C     -2.552771   -4.915971    0.711314
  O     -3.240825   -5.402085    1.612675
  C     -2.456502   -3.922880   -1.684807
  H     -1.770801   -4.282302   -2.444856
  C     -2.776896   -2.459424   -1.650964
  H     -3.180384   -2.113085   -2.611887
  H     -3.549367   -2.236415   -0.904059
  C     -1.567601   -1.591287   -1.316090
  O     -1.760962   -0.293154   -1.645775
  O     -0.532802   -1.980280   -0.800198
  H     -4.891316   -4.998504    0.283202
  H     -2.847527   -5.926304   -1.144587
  C     -5.364044   -4.903203   -1.729843
  N     -1.308824   -4.415216    0.893987
  H     -0.958398    0.185720   -1.380562
  H     -0.903978   -3.848059    0.154954
  O     -4.939820   -4.932549   -2.884179
  C     -6.856478   -4.981038   -1.419967
  H     -7.373008   -4.214045   -2.002594
  H     -7.226665   -5.954728   -1.754142
  H     -7.089486   -4.851137   -0.360093
  C     -0.696475   -4.376656    2.219299
  H     -0.797823   -5.350914    2.701649
  H      0.362118   -4.135245    2.107799
  H     -1.171090   -3.626761    2.862375

----------------------------
CARTESIAN COORDINATES (A.U.)
----------------------------
  NO LB      ZA    FRAG     MASS         X           Y           Z
   0 N     7.0000    0    14.007   -8.576852   -9.023206   -1.211530
   1 C     6.0000    0    12.011   -5.831227   -9.301869   -1.440156
   2 C     6.0000    0    12.011   -4.824038   -9.289839    1.344188
   3 O     8.0000    0    15.999   -6.124271  -10.208462    3.047514
   4 C     6.0000    0    12.011   -4.642116   -7.413168   -3.183823
   5 H     1.0000    0     1.008   -3.346328   -8.092378   -4.620108
   6 C     6.0000    0    12.011   -5.247573   -4.647638   -3.119871
   7 H     1.0000    0     1.008   -6.010055   -3.993152   -4.935751
   8 H     1.0000    0     1.008   -6.707332   -4.226211   -1.708424
   9 C     6.0000    0    12.011   -2.962337   -3.007096   -2.487050
  10 O     8.0000    0    15.999   -3.327737   -0.553981   -3.110064
  11 O     8.0000    0    15.999   -1.006849   -3.742186   -1.512156
  12 H     1.0000    0     1.008   -9.243247   -9.445803    0.535174
  13 H     1.0000    0     1.008   -5.381046  -11.199091   -2.162956
  14 C     6.0000    0    12.011  -10.136574   -9.265711   -3.268929
  15 N     7.0000    0    14.007   -2.473318   -8.343549    1.689390
  16 H     1.0000    0     1.008   -1.811110    0.350961   -2.608884
  17 H     1.0000    0     1.008   -1.708270   -7.271778    0.292821
  18 O     8.0000    0    15.999   -9.334906   -9.321167   -5.450308
  19 C     6.0000    0    12.011  -12.956866   -9.412797   -2.683350
  20 H     1.0000    0     1.008  -13.932966   -7.963391   -3.784353
  21 H     1.0000    0     1.008  -13.656417  -11.252805   -3.314847
  22 H     1.0000    0     1.008  -13.397188   -9.167321   -0.680478
  23 C     6.0000    0    12.011   -1.316146   -8.270681    4.193866
  24 H     1.0000    0     1.008   -1.507667  -10.111762    5.105376
  25 H     1.0000    0     1.008    0.684304   -7.814481    3.983164
  26 H     1.0000    0     1.008   -2.213040   -6.853586    5.409105

--------------------------------
INTERNAL COORDINATES (ANGSTROEM)
--------------------------------
 N      0   0   0     0.000000000000     0.00000000     0.00000000
 C      1   0   0     1.465389388189     0.00000000     0.00000000
 C      2   1   0     1.566860285210   105.02373864     0.00000000
 O      3   2   1     1.233765476833   119.71609022    33.17227748
 C      2   1   3     1.498753741108   113.57814372   232.64446660
 H      5   2   1     1.084917452272   118.40713027   229.12696352
 C      5   2   1     1.498499171678   123.20198678    46.16153655
 H      7   5   2     1.098237552811   111.51695570   239.60280833
 H      7   5   2     1.097411753820   111.36660924   357.58085145
 C      7   5   2     1.525843145759   113.02628307   118.11155496
 O     10   7   5     1.353228888380   112.27651616   162.81653174
 O     10   7   5     1.219946793514   125.70781413   342.19444322
 H      1   2   3     1.014261572872   113.43925034   341.61979893
 H      2   1   3     1.100453617523   109.58108067   112.19778501
 C      1   2   3     1.372236244889   121.42931197   188.10421582
 N      3   2   1     1.353340352987   116.17380251   210.26694941
 H     11  10   7     0.971477183287   106.75682126   178.64005002
 H     16   3   2     1.015744220424   118.34300276    16.90353696
 O     15   1   2     1.230170421322   122.63595289   348.05508336
 C     15   1   2     1.526250773690   115.58414780   169.19455604
 H     20  15   1     1.092947459592   108.54880605   126.13165610
 H     20  15   1     1.093975554687   108.31611871   242.64775579
 H     20  15   1     1.092931883171   113.53441308     4.19318383
 C     16   3   2     1.460448406246   121.17511818   180.98669842
 H     24  16   3     1.091838772604   109.78066947    48.73115478
 H     24  16   3     1.091480696442   108.65039177   168.35701893
 H     24  16   3     1.095970006905   111.65158290   288.83022379

---------------------------
INTERNAL COORDINATES (A.U.)
---------------------------
 N      0   0   0     0.000000000000     0.00000000     0.00000000
 C      1   0   0     2.769184623232     0.00000000     0.00000000
 C      2   1   0     2.960936829164   105.02373864     0.00000000
 O      3   2   1     2.331478864701   119.71609022    33.17227748
 C      2   1   3     2.832234112885   113.57814372   232.64446660
 H      5   2   1     2.050196862705   118.40713027   229.12696352
 C      5   2   1     2.831753046380   123.20198678    46.16153655
 H      7   5   2     2.075368204800   111.51695570   239.60280833
 H      7   5   2     2.073807670866   111.36660924   357.58085145
 C      7   5   2     2.883425668806   113.02628307   118.11155496
 O     10   7   5     2.557231995548   112.27651616   162.81653174
 O     10   7   5     2.305365337696   125.70781413   342.19444322
 H      1   2   3     1.916676600889   113.43925034   341.61979893
 H      2   1   3     2.079555960201   109.58108067   112.19778501
 C      1   2   3     2.593150693881   121.42931197   188.10421582
 N      3   2   1     2.557442633129   116.17380251   210.26694941
 H     11  10   7     1.835825821765   106.75682126   178.64005002
 H     16   3   2     1.919478398715   118.34300276    16.90353696
 O     15   1   2     2.324685194349   122.63595289   348.05508336
 C     15   1   2     2.884195973960   115.58414780   169.19455604
 H     20  15   1     2.065371377395   108.54880605   126.13165610
 H     20  15   1     2.067314195563   108.31611871   242.64775579
 H     20  15   1     2.065341942224   113.53441308     4.19318383
 C     16   3   2     2.759847520527   121.17511818   180.98669842
 H     24  16   3     2.063276262619   109.78066947    48.73115478
 H     24  16   3     2.062599596736   108.65039177   168.35701893
 H     24  16   3     2.071083164043   111.65158290   288.83022379

---------------------
BASIS SET INFORMATION
---------------------
There are 4 groups of distinct atoms

 Group   1 Type N   : 11s6p2d1f contracted to 5s3p2d1f pattern {62111/411/11/1}
 Group   2 Type C   : 11s6p2d1f contracted to 5s3p2d1f pattern {62111/411/11/1}
 Group   3 Type O   : 11s6p2d1f contracted to 5s3p2d1f pattern {62111/411/11/1}
 Group   4 Type H   : 5s1p contracted to 3s1p pattern {311/1}

Atom   0N    basis set group =>   1
Atom   1C    basis set group =>   2
Atom   2C    basis set group =>   2
Atom   3O    basis set group =>   3
Atom   4C    basis set group =>   2
Atom   5H    basis set group =>   4
Atom   6C    basis set group =>   2
Atom   7H    basis set group =>   4
Atom   8H    basis set group =>   4
Atom   9C    basis set group =>   2
Atom  10O    basis set group =>   3
Atom  11O    basis set group =>   3
Atom  12H    basis set group =>   4
Atom  13H    basis set group =>   4
Atom  14C    basis set group =>   2
Atom  15N    basis set group =>   1
Atom  16H    basis set group =>   4
Atom  17H    basis set group =>   4
Atom  18O    basis set group =>   3
Atom  19C    basis set group =>   2
Atom  20H    basis set group =>   4
Atom  21H    basis set group =>   4
Atom  22H    basis set group =>   4
Atom  23C    basis set group =>   2
Atom  24H    basis set group =>   4
Atom  25H    basis set group =>   4
Atom  26H    basis set group =>   4
---------------------------------
AUXILIARY/J BASIS SET INFORMATION
---------------------------------
There are 4 groups of distinct atoms

 Group   1 Type N   : 12s5p4d2f1g contracted to 6s4p3d1f1g pattern {711111/2111/211/2/1}
 Group   2 Type C   : 12s5p4d2f1g contracted to 6s4p3d1f1g pattern {711111/2111/211/2/1}
 Group   3 Type O   : 12s5p4d2f1g contracted to 6s4p3d1f1g pattern {711111/2111/211/2/1}
 Group   4 Type H   : 5s2p1d contracted to 3s1p1d pattern {311/2/1}

Atom   0N    basis set group =>   1
Atom   1C    basis set group =>   2
Atom   2C    basis set group =>   2
Atom   3O    basis set group =>   3
Atom   4C    basis set group =>   2
Atom   5H    basis set group =>   4
Atom   6C    basis set group =>   2
Atom   7H    basis set group =>   4
Atom   8H    basis set group =>   4
Atom   9C    basis set group =>   2
Atom  10O    basis set group =>   3
Atom  11O    basis set group =>   3
Atom  12H    basis set group =>   4
Atom  13H    basis set group =>   4
Atom  14C    basis set group =>   2
Atom  15N    basis set group =>   1
Atom  16H    basis set group =>   4
Atom  17H    basis set group =>   4
Atom  18O    basis set group =>   3
Atom  19C    basis set group =>   2
Atom  20H    basis set group =>   4
Atom  21H    basis set group =>   4
Atom  22H    basis set group =>   4
Atom  23C    basis set group =>   2
Atom  24H    basis set group =>   4
Atom  25H    basis set group =>   4
Atom  26H    basis set group =>   4


           ************************************************************
           *        Program running with 16 parallel MPI-processes    *
           *              working on a common directory               *
           ************************************************************
------------------------------------------------------------------------------
                           ORCA GTO INTEGRAL CALCULATION
                           -- RI-GTO INTEGRALS CHOSEN --
------------------------------------------------------------------------------
------------------------------------------------------------------------------
                   ___                                                        
                  /   \      - P O W E R E D   B Y -                         
                 /     \                                                     
                 |  |  |   _    _      __       _____    __    __             
                 |  |  |  | |  | |    /  \     |  _  \  |  |  /  |          
                  \  \/   | |  | |   /    \    | | | |  |  | /  /          
                 / \  \   | |__| |  /  /\  \   | |_| |  |  |/  /          
                |  |  |   |  __  | /  /__\  \  |    /   |      \           
                |  |  |   | |  | | |   __   |  |    \   |  |\   \          
                \     /   | |  | | |  |  |  |  | |\  \  |  | \   \       
                 \___/    |_|  |_| |__|  |__|  |_| \__\ |__|  \__/        
                                                                              
                      - O R C A' S   B I G   F R I E N D -                    
                                      &                                       
                       - I N T E G R A L  F E E D E R -                       
                                                                              
 v1 FN, 2020, v2 2021                                                         
------------------------------------------------------------------------------


Reading SHARK input file freq.SHARKINP.tmp ... ok
----------------------
SHARK INTEGRAL PACKAGE
----------------------

Number of atoms                             ...     27
Number of basis functions                   ...    512
Number of shells                            ...    206
Maximum angular momentum                    ...      3
Integral batch strategy                     ... SHARK/LIBINT Hybrid
RI-J (if used) integral strategy            ... SPLIT-RIJ (Revised 2003 algorithm where possible)
Printlevel                                  ...      1
Contraction scheme used                     ... SEGMENTED contraction
Coulomb Range Separation                    ... NOT USED
Exchange Range Separation                   ... NOT USED
Finite Nucleus Model                        ... NOT USED
Auxiliary Coulomb fitting basis             ... AVAILABLE
   # of basis functions in Aux-J            ...    829
   # of shells in Aux-J                     ...    275
   Maximum angular momentum in Aux-J        ...      4
Auxiliary J/K fitting basis                 ... NOT available
Auxiliary Correlation fitting basis         ... NOT available
Auxiliary 'external' fitting basis          ... NOT available
Integral threshold                          ...     2.500000e-11
Primitive cut-off                           ...     2.500000e-12
Primitive pair pre-selection threshold      ...     2.500000e-12

Calculating pre-screening integrals         ... done (  0.0 sec) Dimension = 206
Organizing shell pair data                  ... done (  0.1 sec)
Shell pair information
Total number of shell pairs                 ...     21321
Shell pairs after pre-screening             ...     16761
Total number of primitive shell pairs       ...     64608
Primitive shell pairs kept                  ...     35244
          la=0 lb=0:   4582 shell pairs
          la=1 lb=0:   4855 shell pairs
          la=1 lb=1:   1300 shell pairs
          la=2 lb=0:   2343 shell pairs
          la=2 lb=1:   1251 shell pairs
          la=2 lb=2:    315 shell pairs
          la=3 lb=0:   1119 shell pairs
          la=3 lb=1:    618 shell pairs
          la=3 lb=2:    299 shell pairs
          la=3 lb=3:     79 shell pairs

Calculating one electron integrals          ... done (  0.0 sec)
Calculating RI/J V-Matrix + Cholesky decomp.... done (  0.0 sec)
Calculating Nuclear repulsion               ... done (  0.0 sec) ENN=    925.550149443291 Eh

SHARK setup successfully completed in   0.3 seconds

Maximum memory used throughout the entire GTOINT-calculation: 29.0 MB


           ************************************************************
           *        Program running with 16 parallel MPI-processes    *
           *              working on a common directory               *
           ************************************************************
-------------------------------------------------------------------------------
                                 ORCA SCF
-------------------------------------------------------------------------------

------------
SCF SETTINGS
------------
Hamiltonian:
 Density Functional     Method          .... DFT(GTOs)
 Exchange Functional    Exchange        .... M062X
 Correlation Functional Correlation     .... M062X
 Gradients option       PostSCFGGA      .... off
 Hybrid DFT is turned on
   Fraction HF Exchange ScalHFX         ....  0.540000
   Scaling of DF-GGA-X  ScalDFX         ....  0.460000
   Scaling of DF-GGA-C  ScalDFC         ....  1.000000
   Scaling of DF-LDA-C  ScalLDAC        ....  1.000000
   Perturbative correction              ....  0.000000
   Density functional embedding theory  .... OFF
 RI-approximation to the Coulomb term is turned on
   Number of AuxJ basis functions       .... 829
   RIJ-COSX (HFX calculated with COS-X)).... on


General Settings:
 Integral files         IntName         .... freq
 Hartree-Fock type      HFTyp           .... UHF
 Total Charge           Charge          ....    0
 Multiplicity           Mult            ....    2
 Number of Electrons    NEL             ....  107
 Basis Dimension        Dim             ....  512
 Nuclear Repulsion      ENuc            ....    925.5501494433 Eh

Convergence Acceleration:
 DIIS                   CNVDIIS         .... on
   Start iteration      DIISMaxIt       ....    12
   Startup error        DIISStart       ....  0.200000
   # of expansion vecs  DIISMaxEq       ....     5
   Bias factor          DIISBfac        ....   1.050
   Max. coefficient     DIISMaxC        ....  10.000
 Trust-Rad. Augm. Hess. CNVTRAH         .... auto
   Auto Start mean grad. ratio tolernc. ....  1.125000
   Auto Start start iteration           ....    20
   Auto Start num. interpolation iter.  ....    10
   Max. Number of Micro iterations      ....    16
   Max. Number of Macro iterations      .... Maxiter - #DIIS iter
   Number of Davidson start vectors     ....     2
   Converg. threshold I  (grad. norm)   ....   1.000e-05
   Converg. threshold II (energy diff.) ....   1.000e-08
   Grad. Scal. Fac. for Micro threshold ....   0.100
   Minimum threshold for Micro iter.    ....   0.010
   NR start threshold (gradient norm)   ....   0.001
   Initial trust radius                 ....   0.400
   Minimum AH scaling param. (alpha)    ....   1.000
   Maximum AH scaling param. (alpha)    .... 1000.000
   Orbital update algorithm             .... Taylor
   White noise on init. David. guess    .... on
   Maximum white noise                  ....   0.010
   Quad. conv. algorithm                .... NR
 SOSCF                  CNVSOSCF        .... off
 Level Shifting         CNVShift        .... on
   Level shift para.    LevelShift      ....    0.2500
   Turn off err/grad.   ShiftErr        ....    0.0010
 Zerner damping         CNVZerner       .... off
 Static damping         CNVDamp         .... on
   Fraction old density DampFac         ....    0.7000
   Max. Damping (<1)    DampMax         ....    0.9800
   Min. Damping (>=0)   DampMin         ....    0.0000
   Turn off err/grad.   DampErr         ....    0.1000
 Fernandez-Rico         CNVRico         .... off

SCF Procedure:
 Maximum # iterations   MaxIter         ....   125
 SCF integral mode      SCFMode         .... Direct
   Integral package                     .... SHARK and LIBINT hybrid scheme
 Reset frequency        DirectResetFreq ....    20
 Integral Threshold     Thresh          ....  2.500e-11 Eh
 Primitive CutOff       TCut            ....  2.500e-12 Eh

Convergence Tolerance:
 Convergence Check Mode ConvCheckMode   .... Total+1el-Energy
 Convergence forced     ConvForced      .... 0
 Energy Change          TolE            ....  1.000e-08 Eh
 1-El. energy change                    ....  1.000e-05 Eh
 DIIS Error             TolErr          ....  5.000e-07


Diagonalization of the overlap matrix:
Smallest eigenvalue                        ... 6.814e-05
Time for diagonalization                   ...    0.040 sec
Threshold for overlap eigenvalues          ... 1.000e-08
Number of eigenvalues below threshold      ... 0
Time for construction of square roots      ...    0.021 sec
Total time needed                          ...    0.062 sec

Time for model grid setup =    0.105 sec

------------------------------
INITIAL GUESS: MODEL POTENTIAL
------------------------------
Loading Hartree-Fock densities                     ... done
Calculating cut-offs                               ... done
Initializing the effective Hamiltonian             ... done
Setting up the integral package (SHARK)            ... done
Starting the Coulomb interaction                   ... done (   0.1 sec)
Reading the grid                                   ... done
Mapping shells                                     ... done
Starting the XC term evaluation                    ... done (   0.1 sec)
  promolecular density results
     # of electrons  =    106.993643497
     EX              =    -90.406922191
     EC              =     -3.578617904
     EX+EC           =    -93.985540095
Transforming the Hamiltonian                       ... done (   0.0 sec)
Diagonalizing the Hamiltonian                      ... done (   0.0 sec)
Back transforming the eigenvectors                 ... done (   0.0 sec)
Now organizing SCF variables                       ... done
                      ------------------
                      INITIAL GUESS DONE (   0.4 sec)
                      ------------------
-------------------
DFT GRID GENERATION
-------------------

General Integration Accuracy     IntAcc      ... 4.388
Radial Grid Type                 RadialGrid  ... OptM3 with GC (2021)
Angular Grid (max. ang.)         AngularGrid ... 4 (Lebedev-302)
Angular grid pruning method      GridPruning ... 4 (adaptive)
Weight generation scheme         WeightScheme... Becke
Basis function cutoff            BFCut       ... 1.0000e-11
Integration weight cutoff        WCut        ... 1.0000e-14
Angular grids for H and He will be reduced by one unit
Partially contracted basis set               ... off
Rotationally invariant grid construction     ... off

Total number of grid points                  ...   125909
Total number of batches                      ...     1982
Average number of points per batch           ...       63
Average number of grid points per atom       ...     4663
Time for grid setup =    0.543 sec

--------------------
COSX GRID GENERATION
--------------------

GRIDX 1
-------
General Integration Accuracy     IntAcc      ... 3.816
Radial Grid Type                 RadialGrid  ... OptM3 with GC (2021)
Angular Grid (max. ang.)         AngularGrid ... 1 (Lebedev-50)
Angular grid pruning method      GridPruning ... 4 (adaptive)
Weight generation scheme         WeightScheme... Becke
Basis function cutoff            BFCut       ... 1.0000e-11
Integration weight cutoff        WCut        ... 1.0000e-14
Angular grids for H and He will be reduced by one unit
Partially contracted basis set               ... on
Rotationally invariant grid construction     ... off

Total number of grid points                  ...    16056
Total number of batches                      ...      266
Average number of points per batch           ...       60
Average number of grid points per atom       ...      595
UseSFitting                                  ... on

GRIDX 2
-------
General Integration Accuracy     IntAcc      ... 4.020
Radial Grid Type                 RadialGrid  ... OptM3 with GC (2021)
Angular Grid (max. ang.)         AngularGrid ... 2 (Lebedev-110)
Angular grid pruning method      GridPruning ... 4 (adaptive)
Weight generation scheme         WeightScheme... Becke
Basis function cutoff            BFCut       ... 1.0000e-11
Integration weight cutoff        WCut        ... 1.0000e-14
Angular grids for H and He will be reduced by one unit
Partially contracted basis set               ... on
Rotationally invariant grid construction     ... off

Total number of grid points                  ...    34715
Total number of batches                      ...      557
Average number of points per batch           ...       62
Average number of grid points per atom       ...     1286
UseSFitting                                  ... on

GRIDX 3
-------
General Integration Accuracy     IntAcc      ... 4.338
Radial Grid Type                 RadialGrid  ... OptM3 with GC (2021)
Angular Grid (max. ang.)         AngularGrid ... 3 (Lebedev-194)
Angular grid pruning method      GridPruning ... 4 (adaptive)
Weight generation scheme         WeightScheme... Becke
Basis function cutoff            BFCut       ... 1.0000e-11
Integration weight cutoff        WCut        ... 1.0000e-14
Angular grids for H and He will be reduced by one unit
Partially contracted basis set               ... on
Rotationally invariant grid construction     ... off

Total number of grid points                  ...    76060
Total number of batches                      ...     1200
Average number of points per batch           ...       63
Average number of grid points per atom       ...     2817
UseSFitting                                  ... on

Time for X-Grid setup             =    0.682 sec

--------------
SCF ITERATIONS
--------------
ITER       Energy         Delta-E        Max-DP      RMS-DP      [F,P]     Damp
               ***  Starting incremental Fock matrix formation  ***
  0   -722.5736886620   0.000000000000 0.06650082  0.00046958  0.1529074 0.7000
  1   -722.7950187609  -0.221330098844 0.06287309  0.00037903  0.0729712 0.7000
                               ***Turning on DIIS***
  2   -722.8896957676  -0.094677006672 0.10455998  0.00070026  0.0267029 0.0000
  3   -723.0449983994  -0.155302631865 0.04653769  0.00026789  0.0348766 0.0000
  4   -723.0726478620  -0.027649462571 0.01016587  0.00008861  0.0052510 0.0000
  5   -723.0739633417  -0.001315479701 0.00319578  0.00003730  0.0025440 0.0000
  6   -723.0742416939  -0.000278352172 0.00136752  0.00001924  0.0011151 0.0000
  7   -723.0743268481  -0.000085154252 0.00139946  0.00001874  0.0006165 0.0000
               *** Restarting incremental Fock matrix formation ***
                                   *** Resetting DIIS ***
  8   -723.0744161334  -0.000089285278 0.00054712  0.00000580  0.0003094 0.0000
  9   -723.0744179510  -0.000001817599 0.00017148  0.00000188  0.0003791 0.0000
 10   -723.0744197347  -0.000001783679 0.00021558  0.00000146  0.0000775 0.0000
 11   -723.0744199964  -0.000000261748 0.00012070  0.00000072  0.0000746 0.0000
 12   -723.0744200728  -0.000000076361 0.00004248  0.00000025  0.0000288 0.0000
 13   -723.0744200721   0.000000000679 0.00001010  0.00000007  0.0000083 0.0000
 14   -723.0744200785  -0.000000006438 0.00001001  0.00000004  0.0000022 0.0000
 15   -723.0744200816  -0.000000003097 0.00000320  0.00000003  0.0000015 0.0000
 16   -723.0744200824  -0.000000000778 0.00000649  0.00000002  0.0000013 0.0000
                            ***DIIS convergence achieved***

               *****************************************************
               *                     SUCCESS                       *
               *           SCF CONVERGED AFTER  17 CYCLES          *
               *****************************************************

Old exchange energy                            =    -49.794107995 Eh
New exchange energy                            =    -49.794113985 Eh
Exchange energy change after final integration =     -0.000005989 Eh
Total energy after final integration           =   -723.074426091 Eh
Final COS-X integration done in                =     4.054 sec

----------------
TOTAL SCF ENERGY
----------------

Total Energy       :         -723.07442609 Eh          -19675.85544 eV

Components:
Nuclear Repulsion  :          925.55014944 Eh           25185.49997 eV
Electronic Energy  :        -1648.62457553 Eh          -44861.35541 eV
One Electron Energy:        -2822.97706465 Eh          -76817.11124 eV
Two Electron Energy:         1174.35248912 Eh           31955.75583 eV
Max COSX asymmetry :            0.00000117 Eh               0.00003 eV

Virial components:
Potential Energy   :        -1442.38578139 Eh          -39249.31251 eV
Kinetic Energy     :          719.31135530 Eh           19573.45707 eV
Virial Ratio       :            2.00523149


DFT components:
N(Alpha)           :       53.999990012309 electrons
N(Beta)            :       53.000003435766 electrons
N(Total)           :      106.999993448075 electrons
E(XC)              :      -46.398571158812 Eh       
DFET-embed. en.    :        0.000000000000 Eh       

---------------
SCF CONVERGENCE
---------------

  Last Energy change         ...   -1.8924e-08  Tolerance :   1.0000e-08
  Last MAX-Density change    ...    0.0000e+00  Tolerance :   1.0000e-07
  Last RMS-Density change    ...    0.0000e+00  Tolerance :   5.0000e-09
  Last DIIS Error            ...    7.6630e-07  Tolerance :   5.0000e-07

             **** THE GBW FILE WAS UPDATED (freq.gbw) ****
             **** DENSITY freq.scfp WAS UPDATED ****
             **** ENERGY FILE WAS UPDATED (freq.en.tmp) ****
----------------------
UHF SPIN CONTAMINATION
----------------------

Warning: in a DFT calculation there is little theoretical justification to 
         calculate <S**2> as in Hartree-Fock theory. We will do it anyways
         but you should keep in mind that the values have only limited relevance

Expectation value of <S**2>     :     0.755724
Ideal value S*(S+1) for S=0.5   :     0.750000
Deviation                       :     0.005724

             **** THE GBW FILE WAS UPDATED (freq.gbw) ****
             **** DENSITY freq.scfp WAS UPDATED ****
----------------
ORBITAL ENERGIES
----------------
                 SPIN UP ORBITALS
  NO   OCC          E(Eh)            E(eV) 
   0   1.0000     -19.694308      -535.9094 
   1   1.0000     -19.643952      -534.5391 
   2   1.0000     -19.604717      -533.4715 
   3   1.0000     -19.594948      -533.2056 
   4   1.0000     -14.779490      -402.1704 
   5   1.0000     -14.775051      -402.0496 
   6   1.0000     -10.703825      -291.2659 
   7   1.0000     -10.655238      -289.9438 
   8   1.0000     -10.648734      -289.7668 
   9   1.0000     -10.603365      -288.5322 
  10   1.0000     -10.574458      -287.7456 
  11   1.0000     -10.573144      -287.7099 
  12   1.0000     -10.570403      -287.6353 
  13   1.0000     -10.544739      -286.9369 
  14   1.0000      -1.254542       -34.1378 
  15   1.0000      -1.168506       -31.7967 
  16   1.0000      -1.159107       -31.5409 
  17   1.0000      -1.155643       -31.4466 
  18   1.0000      -1.036696       -28.2099 
  19   1.0000      -1.035171       -28.1684 
  20   1.0000      -0.918393       -24.9907 
  21   1.0000      -0.862418       -23.4676 
  22   1.0000      -0.824645       -22.4397 
  23   1.0000      -0.794007       -21.6060 
  24   1.0000      -0.746203       -20.3052 
  25   1.0000      -0.692666       -18.8484 
  26   1.0000      -0.673630       -18.3304 
  27   1.0000      -0.644348       -17.5336 
  28   1.0000      -0.618436       -16.8285 
  29   1.0000      -0.604493       -16.4491 
  30   1.0000      -0.594234       -16.1699 
  31   1.0000      -0.580317       -15.7912 
  32   1.0000      -0.567868       -15.4525 
  33   1.0000      -0.555034       -15.1032 
  34   1.0000      -0.541773       -14.7424 
  35   1.0000      -0.530611       -14.4387 
  36   1.0000      -0.524296       -14.2668 
  37   1.0000      -0.514962       -14.0128 
  38   1.0000      -0.498751       -13.5717 
  39   1.0000      -0.485797       -13.2192 
  40   1.0000      -0.479528       -13.0486 
  41   1.0000      -0.473593       -12.8871 
  42   1.0000      -0.464678       -12.6445 
  43   1.0000      -0.463511       -12.6128 
  44   1.0000      -0.447668       -12.1817 
  45   1.0000      -0.443297       -12.0627 
  46   1.0000      -0.422846       -11.5062 
  47   1.0000      -0.420365       -11.4387 
  48   1.0000      -0.384615       -10.4659 
  49   1.0000      -0.363965        -9.9040 
  50   1.0000      -0.337246        -9.1769 
  51   1.0000      -0.335345        -9.1252 
  52   1.0000      -0.326171        -8.8756 
  53   1.0000      -0.267474        -7.2783 
  54   0.0000       0.023183         0.6308 
  55   0.0000       0.036970         1.0060 
  56   0.0000       0.051994         1.4148 
  57   0.0000       0.057873         1.5748 
  58   0.0000       0.068937         1.8759 
  59   0.0000       0.080851         2.2001 
  60   0.0000       0.091402         2.4872 
  61   0.0000       0.094721         2.5775 
  62   0.0000       0.112723         3.0674 
  63   0.0000       0.118283         3.2187 
  64   0.0000       0.126195         3.4339 
  65   0.0000       0.138685         3.7738 
  66   0.0000       0.145815         3.9678 
  67   0.0000       0.153762         4.1841 
  68   0.0000       0.160124         4.3572 
  69   0.0000       0.162160         4.4126 
  70   0.0000       0.165477         4.5029 
  71   0.0000       0.183166         4.9842 
  72   0.0000       0.188325         5.1246 
  73   0.0000       0.192052         5.2260 
  74   0.0000       0.202479         5.5097 
  75   0.0000       0.214202         5.8287 
  76   0.0000       0.225332         6.1316 
  77   0.0000       0.229610         6.2480 
  78   0.0000       0.236513         6.4358 
  79   0.0000       0.237735         6.4691 
  80   0.0000       0.248796         6.7701 
  81   0.0000       0.250661         6.8208 
  82   0.0000       0.260106         7.0778 
  83   0.0000       0.267298         7.2735 
  84   0.0000       0.276479         7.5234 
  85   0.0000       0.285193         7.7605 
  86   0.0000       0.286067         7.7843 
  87   0.0000       0.293692         7.9918 
  88   0.0000       0.311235         8.4691 
  89   0.0000       0.321115         8.7380 
  90   0.0000       0.339154         9.2288 
  91   0.0000       0.339431         9.2364 
  92   0.0000       0.345889         9.4121 
  93   0.0000       0.359335         9.7780 
  94   0.0000       0.365962         9.9583 
  95   0.0000       0.373720        10.1694 
  96   0.0000       0.376797        10.2532 
  97   0.0000       0.390442        10.6245 
  98   0.0000       0.393754        10.7146 
  99   0.0000       0.404266        11.0006 
 100   0.0000       0.411096        11.1865 
 101   0.0000       0.418923        11.3995 
 102   0.0000       0.421452        11.4683 
 103   0.0000       0.426825        11.6145 
 104   0.0000       0.435453        11.8493 
 105   0.0000       0.438763        11.9393 
 106   0.0000       0.448339        12.1999 
 107   0.0000       0.454703        12.3731 
 108   0.0000       0.461055        12.5459 
 109   0.0000       0.465444        12.6654 
 110   0.0000       0.471442        12.8286 
 111   0.0000       0.477979        13.0065 
 112   0.0000       0.485896        13.2219 
 113   0.0000       0.490979        13.3602 
 114   0.0000       0.496537        13.5115 
 115   0.0000       0.498977        13.5778 
 116   0.0000       0.505736        13.7618 
 117   0.0000       0.508354        13.8330 
 118   0.0000       0.515530        14.0283 
 119   0.0000       0.526572        14.3288 
 120   0.0000       0.535350        14.5676 
 121   0.0000       0.545615        14.8470 
 122   0.0000       0.554533        15.0896 
 123   0.0000       0.556688        15.1483 
 124   0.0000       0.559984        15.2379 
 125   0.0000       0.566967        15.4279 
 126   0.0000       0.582687        15.8557 
 127   0.0000       0.586452        15.9582 
 128   0.0000       0.589751        16.0479 
 129   0.0000       0.592090        16.1116 
 130   0.0000       0.609814        16.5939 
 131   0.0000       0.619441        16.8558 
 132   0.0000       0.622901        16.9500 
 133   0.0000       0.625948        17.0329 
 134   0.0000       0.634062        17.2537 
 135   0.0000       0.645520        17.5655 
 136   0.0000       0.671358        18.2686 
 137   0.0000       0.674850        18.3636 
 138   0.0000       0.680979        18.5304 
 139   0.0000       0.689937        18.7741 
 140   0.0000       0.703028        19.1304 
 141   0.0000       0.731523        19.9058 
 142   0.0000       0.737075        20.0568 
 143   0.0000       0.747142        20.3308 
 144   0.0000       0.765872        20.8404 
 145   0.0000       0.771341        20.9893 
 146   0.0000       0.777346        21.1527 
 147   0.0000       0.795108        21.6360 
 148   0.0000       0.797169        21.6921 
 149   0.0000       0.812640        22.1131 
 150   0.0000       0.827690        22.5226 
 151   0.0000       0.842199        22.9174 
 152   0.0000       0.849141        23.1063 
 153   0.0000       0.864000        23.5106 
 154   0.0000       0.874836        23.8055 
 155   0.0000       0.898676        24.4542 
 156   0.0000       0.910933        24.7877 
 157   0.0000       0.918586        24.9960 
 158   0.0000       0.926680        25.2162 
 159   0.0000       0.928564        25.2675 
 160   0.0000       0.956241        26.0206 
 161   0.0000       0.964096        26.2344 
 162   0.0000       0.972416        26.4608 
 163   0.0000       0.981859        26.7178 
 164   0.0000       0.999226        27.1903 
 165   0.0000       1.009503        27.4700 
 166   0.0000       1.020956        27.7816 
 167   0.0000       1.023228        27.8434 
 168   0.0000       1.046391        28.4737 
 169   0.0000       1.050583        28.5878 
 170   0.0000       1.068485        29.0749 
 171   0.0000       1.073428        29.2095 
 172   0.0000       1.085935        29.5498 
 173   0.0000       1.094519        29.7834 
 174   0.0000       1.105579        30.0843 
 175   0.0000       1.129454        30.7340 
 176   0.0000       1.152612        31.3642 
 177   0.0000       1.162361        31.6295 
 178   0.0000       1.188944        32.3528 
 179   0.0000       1.190163        32.3860 
 180   0.0000       1.200822        32.6760 
 181   0.0000       1.218082        33.1457 
 182   0.0000       1.250848        34.0373 
 183   0.0000       1.265542        34.4372 
 184   0.0000       1.276605        34.7382 
 185   0.0000       1.292308        35.1655 
 186   0.0000       1.312334        35.7104 
 187   0.0000       1.332948        36.2713 
 188   0.0000       1.344506        36.5859 
 189   0.0000       1.359397        36.9911 
 190   0.0000       1.381138        37.5827 
 191   0.0000       1.388475        37.7823 
 192   0.0000       1.402864        38.1739 
 193   0.0000       1.423178        38.7266 
 194   0.0000       1.432379        38.9770 
 195   0.0000       1.447424        39.3864 
 196   0.0000       1.461717        39.7754 
 197   0.0000       1.471622        40.0449 
 198   0.0000       1.484204        40.3872 
 199   0.0000       1.496250        40.7150 
 200   0.0000       1.507521        41.0217 
 201   0.0000       1.514692        41.2169 
 202   0.0000       1.527765        41.5726 
 203   0.0000       1.543234        41.9935 
 204   0.0000       1.555156        42.3179 
 205   0.0000       1.558760        42.4160 
 206   0.0000       1.568831        42.6901 
 207   0.0000       1.574368        42.8407 
 208   0.0000       1.577600        42.9287 
 209   0.0000       1.582853        43.0716 
 210   0.0000       1.594734        43.3949 
 211   0.0000       1.599412        43.5222 
 212   0.0000       1.612680        43.8833 
 213   0.0000       1.613608        43.9085 
 214   0.0000       1.627516        44.2870 
 215   0.0000       1.638626        44.5893 
 216   0.0000       1.646569        44.8054 
 217   0.0000       1.659330        45.1527 
 218   0.0000       1.666463        45.3468 
 219   0.0000       1.676924        45.6314 
 220   0.0000       1.695363        46.1332 
 221   0.0000       1.702294        46.3218 
 222   0.0000       1.715555        46.6826 
 223   0.0000       1.718596        46.7654 
 224   0.0000       1.743968        47.4558 
 225   0.0000       1.753939        47.7271 
 226   0.0000       1.772166        48.2231 
 227   0.0000       1.784129        48.5486 
 228   0.0000       1.792453        48.7751 
 229   0.0000       1.818932        49.4957 
 230   0.0000       1.823251        49.6132 
 231   0.0000       1.836846        49.9831 
 232   0.0000       1.849538        50.3285 
 233   0.0000       1.874218        51.0001 
 234   0.0000       1.879940        51.1558 
 235   0.0000       1.898671        51.6655 
 236   0.0000       1.913462        52.0680 
 237   0.0000       1.916744        52.1573 
 238   0.0000       1.932260        52.5795 
 239   0.0000       1.940240        52.7966 
 240   0.0000       1.961088        53.3639 
 241   0.0000       1.971418        53.6450 
 242   0.0000       1.978144        53.8280 
 243   0.0000       1.989211        54.1292 
 244   0.0000       2.006372        54.5962 
 245   0.0000       2.020632        54.9842 
 246   0.0000       2.025836        55.1258 
 247   0.0000       2.036831        55.4250 
 248   0.0000       2.047849        55.7248 
 249   0.0000       2.050991        55.8103 
 250   0.0000       2.076185        56.4959 
 251   0.0000       2.084822        56.7309 
 252   0.0000       2.099914        57.1416 
 253   0.0000       2.122543        57.7573 
 254   0.0000       2.137586        58.1667 
 255   0.0000       2.152309        58.5673 
 256   0.0000       2.164596        58.9017 
 257   0.0000       2.175249        59.1915 
 258   0.0000       2.194887        59.7259 
 259   0.0000       2.205083        60.0034 
 260   0.0000       2.206680        60.0468 
 261   0.0000       2.221072        60.4385 
 262   0.0000       2.235163        60.8219 
 263   0.0000       2.243639        61.0525 
 264   0.0000       2.257122        61.4194 
 265   0.0000       2.269037        61.7436 
 266   0.0000       2.275065        61.9077 
 267   0.0000       2.288593        62.2758 
 268   0.0000       2.305913        62.7471 
 269   0.0000       2.312083        62.9150 
 270   0.0000       2.333013        63.4845 
 271   0.0000       2.342028        63.7298 
 272   0.0000       2.346513        63.8519 
 273   0.0000       2.357359        64.1470 
 274   0.0000       2.368557        64.4517 
 275   0.0000       2.385166        64.9037 
 276   0.0000       2.390901        65.0597 
 277   0.0000       2.400430        65.3190 
 278   0.0000       2.416945        65.7684 
 279   0.0000       2.431790        66.1724 
 280   0.0000       2.448309        66.6219 
 281   0.0000       2.455187        66.8090 
 282   0.0000       2.471154        67.2435 
 283   0.0000       2.498794        67.9957 
 284   0.0000       2.515869        68.4603 
 285   0.0000       2.524808        68.7035 
 286   0.0000       2.538310        69.0709 
 287   0.0000       2.551757        69.4368 
 288   0.0000       2.558838        69.6295 
 289   0.0000       2.562995        69.7426 
 290   0.0000       2.574946        70.0678 
 291   0.0000       2.584008        70.3144 
 292   0.0000       2.593358        70.5689 
 293   0.0000       2.608644        70.9848 
 294   0.0000       2.631932        71.6185 
 295   0.0000       2.641265        71.8725 
 296   0.0000       2.649131        72.0865 
 297   0.0000       2.661378        72.4198 
 298   0.0000       2.671708        72.7009 
 299   0.0000       2.696295        73.3699 
 300   0.0000       2.714272        73.8591 
 301   0.0000       2.717314        73.9419 
 302   0.0000       2.758075        75.0510 
 303   0.0000       2.774003        75.4845 
 304   0.0000       2.777384        75.5765 
 305   0.0000       2.806231        76.3614 
 306   0.0000       2.810583        76.4799 
 307   0.0000       2.829770        77.0020 
 308   0.0000       2.837434        77.2105 
 309   0.0000       2.849411        77.5364 
 310   0.0000       2.854734        77.6813 
 311   0.0000       2.880325        78.3776 
 312   0.0000       2.887589        78.5753 
 313   0.0000       2.898471        78.8714 
 314   0.0000       2.921929        79.5097 
 315   0.0000       2.932837        79.8066 
 316   0.0000       2.948107        80.2221 
 317   0.0000       2.950115        80.2767 
 318   0.0000       2.973528        80.9138 
 319   0.0000       2.978951        81.0614 
 320   0.0000       2.982812        81.1664 
 321   0.0000       2.995747        81.5184 
 322   0.0000       3.013269        81.9952 
 323   0.0000       3.017359        82.1065 
 324   0.0000       3.023229        82.2662 
 325   0.0000       3.033394        82.5429 
 326   0.0000       3.059218        83.2456 
 327   0.0000       3.070574        83.5546 
 328   0.0000       3.079080        83.7860 
 329   0.0000       3.084337        83.9291 
 330   0.0000       3.096677        84.2649 
 331   0.0000       3.110582        84.6432 
 332   0.0000       3.124310        85.0168 
 333   0.0000       3.131968        85.2252 
 334   0.0000       3.138647        85.4069 
 335   0.0000       3.145575        85.5954 
 336   0.0000       3.158615        85.9503 
 337   0.0000       3.169179        86.2377 
 338   0.0000       3.173966        86.3680 
 339   0.0000       3.184070        86.6429 
 340   0.0000       3.195010        86.9406 
 341   0.0000       3.200995        87.1035 
 342   0.0000       3.207072        87.2689 
 343   0.0000       3.215560        87.4998 
 344   0.0000       3.221576        87.6635 
 345   0.0000       3.230434        87.9046 
 346   0.0000       3.247862        88.3788 
 347   0.0000       3.257565        88.6429 
 348   0.0000       3.273349        89.0724 
 349   0.0000       3.277601        89.1881 
 350   0.0000       3.283390        89.3456 
 351   0.0000       3.294627        89.6514 
 352   0.0000       3.311951        90.1228 
 353   0.0000       3.313291        90.1592 
 354   0.0000       3.319465        90.3272 
 355   0.0000       3.332201        90.6738 
 356   0.0000       3.343564        90.9830 
 357   0.0000       3.351058        91.1869 
 358   0.0000       3.361467        91.4702 
 359   0.0000       3.374476        91.8242 
 360   0.0000       3.380350        91.9840 
 361   0.0000       3.390674        92.2649 
 362   0.0000       3.400052        92.5201 
 363   0.0000       3.423916        93.1695 
 364   0.0000       3.431516        93.3763 
 365   0.0000       3.441381        93.6447 
 366   0.0000       3.469367        94.4063 
 367   0.0000       3.477791        94.6355 
 368   0.0000       3.493171        95.0540 
 369   0.0000       3.504259        95.3557 
 370   0.0000       3.519341        95.7661 
 371   0.0000       3.532743        96.1308 
 372   0.0000       3.546999        96.5188 
 373   0.0000       3.561672        96.9180 
 374   0.0000       3.585865        97.5763 
 375   0.0000       3.595728        97.8447 
 376   0.0000       3.632020        98.8323 
 377   0.0000       3.636766        98.9614 
 378   0.0000       3.652958        99.4020 
 379   0.0000       3.685064       100.2757 
 380   0.0000       3.705167       100.8227 
 381   0.0000       3.728344       101.4534 
 382   0.0000       3.742995       101.8521 
 383   0.0000       3.759953       102.3135 
 384   0.0000       3.762345       102.3786 
 385   0.0000       3.801319       103.4391 
 386   0.0000       3.807837       103.6165 
 387   0.0000       3.839699       104.4835 
 388   0.0000       3.852976       104.8448 
 389   0.0000       3.865910       105.1968 
 390   0.0000       3.873519       105.4038 
 391   0.0000       3.898196       106.0753 
 392   0.0000       3.905072       106.2624 
 393   0.0000       3.925100       106.8074 
 394   0.0000       3.940566       107.2282 
 395   0.0000       3.976521       108.2066 
 396   0.0000       4.000182       108.8505 
 397   0.0000       4.022305       109.4525 
 398   0.0000       4.054549       110.3299 
 399   0.0000       4.060954       110.5042 
 400   0.0000       4.084395       111.1420 
 401   0.0000       4.114422       111.9591 
 402   0.0000       4.138414       112.6120 
 403   0.0000       4.151345       112.9638 
 404   0.0000       4.166699       113.3816 
 405   0.0000       4.180015       113.7440 
 406   0.0000       4.224038       114.9419 
 407   0.0000       4.270510       116.2065 
 408   0.0000       4.280547       116.4796 
 409   0.0000       4.330345       117.8347 
 410   0.0000       4.350056       118.3711 
 411   0.0000       4.365411       118.7889 
 412   0.0000       4.382407       119.2514 
 413   0.0000       4.394311       119.5753 
 414   0.0000       4.406467       119.9061 
 415   0.0000       4.428423       120.5035 
 416   0.0000       4.453903       121.1969 
 417   0.0000       4.475337       121.7801 
 418   0.0000       4.504991       122.5870 
 419   0.0000       4.550082       123.8140 
 420   0.0000       4.563413       124.1768 
 421   0.0000       4.620953       125.7425 
 422   0.0000       4.685995       127.5124 
 423   0.0000       4.706417       128.0681 
 424   0.0000       4.714520       128.2886 
 425   0.0000       4.740020       128.9825 
 426   0.0000       4.770266       129.8055 
 427   0.0000       4.793289       130.4320 
 428   0.0000       4.838272       131.6561 
 429   0.0000       4.845418       131.8505 
 430   0.0000       4.857740       132.1858 
 431   0.0000       4.911192       133.6403 
 432   0.0000       4.953287       134.7858 
 433   0.0000       4.988847       135.7534 
 434   0.0000       5.032726       136.9474 
 435   0.0000       5.067174       137.8848 
 436   0.0000       5.087572       138.4399 
 437   0.0000       5.114895       139.1834 
 438   0.0000       5.148429       140.0959 
 439   0.0000       5.169318       140.6643 
 440   0.0000       5.182598       141.0257 
 441   0.0000       5.192857       141.3048 
 442   0.0000       5.202101       141.5564 
 443   0.0000       5.209105       141.7470 
 444   0.0000       5.230468       142.3283 
 445   0.0000       5.253872       142.9651 
 446   0.0000       5.264041       143.2418 
 447   0.0000       5.286822       143.8617 
 448   0.0000       5.294480       144.0701 
 449   0.0000       5.368128       146.0742 
 450   0.0000       5.379415       146.3813 
 451   0.0000       5.386820       146.5828 
 452   0.0000       5.393806       146.7729 
 453   0.0000       5.429269       147.7379 
 454   0.0000       5.465054       148.7117 
 455   0.0000       5.485050       149.2558 
 456   0.0000       5.522958       150.2873 
 457   0.0000       5.567862       151.5092 
 458   0.0000       5.569759       151.5608 
 459   0.0000       5.655115       153.8835 
 460   0.0000       5.676530       154.4662 
 461   0.0000       5.720182       155.6541 
 462   0.0000       5.766498       156.9144 
 463   0.0000       5.770784       157.0310 
 464   0.0000       5.827034       158.5617 
 465   0.0000       5.839532       158.9018 
 466   0.0000       5.861285       159.4937 
 467   0.0000       5.893476       160.3696 
 468   0.0000       6.086615       165.6252 
 469   0.0000       6.096032       165.8815 
 470   0.0000       6.109195       166.2396 
 471   0.0000       6.172291       167.9566 
 472   0.0000       6.293869       171.2649 
 473   0.0000       6.295980       171.3223 
 474   0.0000       6.298129       171.3808 
 475   0.0000       6.318513       171.9355 
 476   0.0000       6.422978       174.7781 
 477   0.0000       6.426208       174.8660 
 478   0.0000       6.440550       175.2563 
 479   0.0000       6.485686       176.4845 
 480   0.0000       6.532231       177.7511 
 481   0.0000       6.549557       178.2225 
 482   0.0000       6.617026       180.0584 
 483   0.0000       6.648510       180.9151 
 484   0.0000       6.658227       181.1796 
 485   0.0000       6.671701       181.5462 
 486   0.0000       6.714004       182.6973 
 487   0.0000       6.793936       184.8724 
 488   0.0000       6.827077       185.7742 
 489   0.0000       6.832359       185.9179 
 490   0.0000       6.867073       186.8626 
 491   0.0000       7.041945       191.6211 
 492   0.0000       7.052365       191.9046 
 493   0.0000       7.058150       192.0620 
 494   0.0000       7.079995       192.6565 
 495   0.0000       7.083312       192.7467 
 496   0.0000       7.094433       193.0493 
 497   0.0000       7.239613       196.9999 
 498   0.0000      22.401432       609.5739 
 499   0.0000      22.465582       611.3196 
 500   0.0000      22.541907       613.3965 
 501   0.0000      22.571912       614.2129 
 502   0.0000      22.740743       618.8071 
 503   0.0000      23.228494       632.0795 
 504   0.0000      23.340464       635.1263 
 505   0.0000      23.384089       636.3134 
 506   0.0000      32.534135       885.2988 
 507   0.0000      32.622702       887.7089 
 508   0.0000      43.912710      1194.9256 
 509   0.0000      44.000846      1197.3239 
 510   0.0000      44.064485      1199.0556 
 511   0.0000      44.106827      1200.2078 

                 SPIN DOWN ORBITALS
  NO   OCC          E(Eh)            E(eV) 
   0   1.0000     -19.694277      -535.9085 
   1   1.0000     -19.643958      -534.5393 
   2   1.0000     -19.604408      -533.4631 
   3   1.0000     -19.594437      -533.1917 
   4   1.0000     -14.779329      -402.1660 
   5   1.0000     -14.774558      -402.0362 
   6   1.0000     -10.703038      -291.2445 
   7   1.0000     -10.654391      -289.9207 
   8   1.0000     -10.648763      -289.7676 
   9   1.0000     -10.604191      -288.5547 
  10   1.0000     -10.575177      -287.7652 
  11   1.0000     -10.573148      -287.7100 
  12   1.0000     -10.563318      -287.4425 
  13   1.0000     -10.544683      -286.9354 
  14   1.0000      -1.254131       -34.1266 
  15   1.0000      -1.167283       -31.7634 
  16   1.0000      -1.158992       -31.5378 
  17   1.0000      -1.154626       -31.4190 
  18   1.0000      -1.035527       -28.1781 
  19   1.0000      -1.033302       -28.1176 
  20   1.0000      -0.903525       -24.5862 
  21   1.0000      -0.860533       -23.4163 
  22   1.0000      -0.822865       -22.3913 
  23   1.0000      -0.787884       -21.4394 
  24   1.0000      -0.736785       -20.0489 
  25   1.0000      -0.686268       -18.6743 
  26   1.0000      -0.671688       -18.2776 
  27   1.0000      -0.635622       -17.2962 
  28   1.0000      -0.611707       -16.6454 
  29   1.0000      -0.603030       -16.4093 
  30   1.0000      -0.590565       -16.0701 
  31   1.0000      -0.575635       -15.6638 
  32   1.0000      -0.565970       -15.4008 
  33   1.0000      -0.553880       -15.0718 
  34   1.0000      -0.539209       -14.6726 
  35   1.0000      -0.529348       -14.4043 
  36   1.0000      -0.522613       -14.2210 
  37   1.0000      -0.511511       -13.9189 
  38   1.0000      -0.493992       -13.4422 
  39   1.0000      -0.483710       -13.1624 
  40   1.0000      -0.476789       -12.9741 
  41   1.0000      -0.470380       -12.7997 
  42   1.0000      -0.464087       -12.6284 
  43   1.0000      -0.461675       -12.5628 
  44   1.0000      -0.446582       -12.1521 
  45   1.0000      -0.439219       -11.9518 
  46   1.0000      -0.421218       -11.4619 
  47   1.0000      -0.420202       -11.4343 
  48   1.0000      -0.383088       -10.4244 
  49   1.0000      -0.352055        -9.5799 
  50   1.0000      -0.334174        -9.0933 
  51   1.0000      -0.332059        -9.0358 
  52   1.0000      -0.323512        -8.8032 
  53   0.0000      -0.021370        -0.5815 
  54   0.0000       0.024904         0.6777 
  55   0.0000       0.037760         1.0275 
  56   0.0000       0.052553         1.4300 
  57   0.0000       0.058561         1.5935 
  58   0.0000       0.069153         1.8817 
  59   0.0000       0.081015         2.2045 
  60   0.0000       0.091094         2.4788 
  61   0.0000       0.094320         2.5666 
  62   0.0000       0.112399         3.0585 
  63   0.0000       0.118872         3.2347 
  64   0.0000       0.127813         3.4780 
  65   0.0000       0.139323         3.7912 
  66   0.0000       0.146205         3.9784 
  67   0.0000       0.154081         4.1927 
  68   0.0000       0.160315         4.3624 
  69   0.0000       0.162392         4.4189 
  70   0.0000       0.166793         4.5387 
  71   0.0000       0.184165         5.0114 
  72   0.0000       0.189612         5.1596 
  73   0.0000       0.195016         5.3066 
  74   0.0000       0.205707         5.5976 
  75   0.0000       0.216971         5.9041 
  76   0.0000       0.226670         6.1680 
  77   0.0000       0.230986         6.2855 
  78   0.0000       0.236148         6.4259 
  79   0.0000       0.241618         6.5748 
  80   0.0000       0.249095         6.7782 
  81   0.0000       0.252519         6.8714 
  82   0.0000       0.262678         7.1478 
  83   0.0000       0.269136         7.3236 
  84   0.0000       0.278334         7.5739 
  85   0.0000       0.286825         7.8049 
  86   0.0000       0.293694         7.9918 
  87   0.0000       0.298906         8.1336 
  88   0.0000       0.314054         8.5458 
  89   0.0000       0.324052         8.8179 
  90   0.0000       0.340822         9.2742 
  91   0.0000       0.348456         9.4820 
  92   0.0000       0.355459         9.6725 
  93   0.0000       0.363095         9.8803 
  94   0.0000       0.368531        10.0282 
  95   0.0000       0.375193        10.2095 
  96   0.0000       0.379536        10.3277 
  97   0.0000       0.391523        10.6539 
  98   0.0000       0.395958        10.7746 
  99   0.0000       0.405291        11.0285 
 100   0.0000       0.412106        11.2140 
 101   0.0000       0.419453        11.4139 
 102   0.0000       0.422678        11.5017 
 103   0.0000       0.429389        11.6843 
 104   0.0000       0.436363        11.8740 
 105   0.0000       0.440632        11.9902 
 106   0.0000       0.453913        12.3516 
 107   0.0000       0.458106        12.4657 
 108   0.0000       0.462001        12.5717 
 109   0.0000       0.468996        12.7620 
 110   0.0000       0.475762        12.9461 
 111   0.0000       0.482067        13.1177 
 112   0.0000       0.488592        13.2953 
 113   0.0000       0.493483        13.4284 
 114   0.0000       0.499599        13.5948 
 115   0.0000       0.501223        13.6390 
 116   0.0000       0.507501        13.8098 
 117   0.0000       0.509112        13.8536 
 118   0.0000       0.518886        14.1196 
 119   0.0000       0.527449        14.3526 
 120   0.0000       0.539695        14.6859 
 121   0.0000       0.549601        14.9554 
 122   0.0000       0.555860        15.1257 
 123   0.0000       0.558408        15.1951 
 124   0.0000       0.563645        15.3376 
 125   0.0000       0.569369        15.4933 
 126   0.0000       0.582683        15.8556 
 127   0.0000       0.587657        15.9910 
 128   0.0000       0.592136        16.1128 
 129   0.0000       0.596972        16.2444 
 130   0.0000       0.611642        16.6436 
 131   0.0000       0.621243        16.9049 
 132   0.0000       0.625557        17.0223 
 133   0.0000       0.627054        17.0630 
 134   0.0000       0.634966        17.2783 
 135   0.0000       0.645161        17.5557 
 136   0.0000       0.671867        18.2824 
 137   0.0000       0.673933        18.3386 
 138   0.0000       0.682174        18.5629 
 139   0.0000       0.689056        18.7502 
 140   0.0000       0.703408        19.1407 
 141   0.0000       0.732590        19.9348 
 142   0.0000       0.740210        20.1421 
 143   0.0000       0.750184        20.4135 
 144   0.0000       0.768837        20.9211 
 145   0.0000       0.773462        21.0470 
 146   0.0000       0.782755        21.2999 
 147   0.0000       0.797739        21.7076 
 148   0.0000       0.800980        21.7958 
 149   0.0000       0.813184        22.1279 
 150   0.0000       0.831271        22.6200 
 151   0.0000       0.845843        23.0166 
 152   0.0000       0.851667        23.1750 
 153   0.0000       0.864827        23.5331 
 154   0.0000       0.875619        23.8268 
 155   0.0000       0.900317        24.4989 
 156   0.0000       0.911728        24.8094 
[...]
     69      -0.000020  -0.041141   0.000009  -0.000260   0.078097  -0.000047
     70      -0.000084   0.081775  -0.000026  -0.000131   0.040655  -0.000010
     71      -0.000104  -0.001699  -0.000003   0.000108  -0.032446   0.000013
     72      -0.000013  -0.084462   0.000025   0.000091  -0.035185   0.000010
     73      -0.000636  -0.637308   0.000185   0.001332  -0.422649   0.000472
     74       0.000349   0.363517  -0.000097  -0.000709   0.228032  -0.000379
     75       0.000973   0.295358  -0.000077   0.002441  -0.830939   0.000899
     76       0.000213   0.082923  -0.000009   0.000550  -0.186444   0.000214
     77      -0.000092  -0.032178   0.000024  -0.000250   0.092631   0.000030
     78      -0.000847   0.274329  -0.000148   0.000142  -0.059413   0.000189
     79       0.001352  -0.418287   0.000217  -0.000352   0.126457  -0.000329
     80       0.000935  -0.317446   0.000171  -0.000213   0.076274  -0.000326
                 78         79         80    
      0      -0.002947  -0.027635  -0.000044
      1      -0.000874  -0.009041  -0.000033
      2       0.006771   0.066832   0.000024
      3       0.000151   0.000052   0.000008
      4      -0.000180  -0.000020   0.000043
      5      -0.000076   0.000022   0.000016
      6       0.000389   0.000397   0.000060
      7       0.000410   0.000273   0.000025
      8      -0.000693  -0.000535  -0.000028
      9      -0.001583  -0.000003  -0.000019
     10      -0.000581   0.000001  -0.000012
     11       0.001066   0.000639   0.000034
     12      -0.000388   0.000370   0.000034
     13      -0.000062   0.000215  -0.000015
     14       0.000287  -0.000003  -0.000071
     15       0.001833  -0.000832  -0.000117
     16      -0.001225  -0.000290   0.000110
     17      -0.004377   0.000073   0.000325
     18       0.000116   0.000006  -0.000846
     19      -0.000066   0.000050  -0.000279
     20       0.000048   0.000028  -0.000106
     21       0.000595  -0.000241   0.000379
     22       0.000687  -0.000219  -0.001754
     23      -0.000049   0.000194   0.001289
     24       0.000596  -0.000161   0.001579
     25      -0.000245  -0.000435  -0.001140
     26       0.000220  -0.000497  -0.001596
     27      -0.001937   0.000025   0.001521
     28       0.000878  -0.000139   0.002641
     29      -0.000624  -0.000014   0.000295
     30       0.000767  -0.000084   0.050310
     31      -0.000275   0.000024   0.032177
     32       0.000244  -0.000020   0.014078
     33       0.001061  -0.000017   0.000596
     34      -0.000277   0.000011  -0.000743
     35       0.000189   0.000038   0.000267
     36       0.042051   0.389874   0.000198
     37       0.013727   0.131537   0.000116
     38      -0.093087  -0.902644  -0.000498
     39      -0.000517   0.003592   0.000027
     40       0.000926  -0.004512  -0.000137
     41      -0.000102  -0.000257  -0.000084
     42      -0.000041  -0.000847   0.000041
     43      -0.000041  -0.000195   0.000004
     44       0.000279  -0.000352   0.000024
     45       0.034445  -0.003977  -0.000245
     46       0.031175  -0.003403  -0.000244
     47      -0.057577   0.006062   0.000388
     48      -0.006593   0.001161  -0.817865
     49      -0.002382   0.000590  -0.524248
     50      -0.001797   0.000251  -0.228955
     51      -0.460661   0.046671   0.003108
     52      -0.423727   0.043461   0.003695
     53       0.769230  -0.080068  -0.005347
     54       0.000060   0.000105  -0.000020
     55       0.000021  -0.000092  -0.000018
     56      -0.000319  -0.001668  -0.000008
     57      -0.000012  -0.000033  -0.000009
     58       0.000006   0.000161  -0.000007
     59       0.000036   0.000368  -0.000002
     60      -0.000197  -0.000457   0.000005
     61       0.000110   0.000084   0.000001
     62      -0.000139  -0.000251   0.000012
     63      -0.000073  -0.000245  -0.000018
     64      -0.000063  -0.000625  -0.000037
     65      -0.000023  -0.000159  -0.000001
     66       0.000093  -0.000472  -0.000005
     67      -0.000057  -0.000081   0.000003
     68      -0.000753  -0.005455   0.000033
     69       0.000541   0.000023  -0.000024
     70       0.000368  -0.000043   0.000000
     71       0.000923  -0.000044  -0.000051
     72       0.001182   0.000100  -0.000015
     73      -0.009105   0.000967  -0.000080
     74       0.010837  -0.001171   0.000085
     75      -0.005674   0.000160   0.000097
     76      -0.002020   0.000104   0.000044
     77      -0.000367   0.000196  -0.000046
     78      -0.001097   0.000200  -0.000072
     79       0.004324  -0.000356   0.000095
     80       0.005518  -0.000781   0.000056


-----------
IR SPECTRUM
-----------

 Mode   freq       eps      Int      T**2         TX        TY        TZ
       cm**-1   L/(mol*cm) km/mol    a.u.
----------------------------------------------------------------------------
  7:     21.55   0.000408    2.06  0.005911  ( 0.009308  0.075931  0.007679)
  8:     47.99   0.000324    1.64  0.002106  ( 0.005841 -0.042317  0.016759)
  9:     60.18   0.000223    1.12  0.001154  ( 0.015892 -0.025825 -0.015312)
 10:     74.27   0.001907    9.64  0.008015  ( 0.002779 -0.089085  0.008417)
 11:     85.03   0.000383    1.93  0.001404  ( 0.027165 -0.004104 -0.025487)
 12:     96.06   0.000927    4.68  0.003011  (-0.015550  0.051318 -0.011634)
 13:    123.70   0.001217    6.15  0.003071  (-0.032452 -0.012586 -0.043120)
 14:    132.67   0.001386    7.00  0.003260  ( 0.034714 -0.017762  0.041712)
 15:    164.79   0.001391    7.03  0.002634  ( 0.041964  0.026969  0.012077)
 16:    183.74   0.000409    2.07  0.000695  (-0.017128  0.019912  0.002222)
 17:    225.91   0.000687    3.47  0.000948  ( 0.024307  0.018341  0.004607)
 18:    248.64   0.002754   13.92  0.003457  (-0.051815 -0.013432 -0.024324)
 19:    288.20   0.000372    1.88  0.000403  (-0.013730  0.013240 -0.006244)
 20:    311.38   0.000075    0.38  0.000075  ( 0.002095  0.003068  0.007839)
 21:    377.60   0.004440   22.44  0.003670  (-0.049407  0.004608 -0.034745)
 22:    421.81   0.001807    9.13  0.001337  ( 0.001440  0.033637  0.014270)
 23:    483.66   0.003547   17.93  0.002289  ( 0.011539  0.031453 -0.034150)
 24:    506.19   0.006379   32.24  0.003933  ( 0.002769 -0.059800 -0.018687)
 25:    516.33   0.005062   25.58  0.003059  ( 0.050575 -0.021535 -0.006136)
 26:    549.47   0.001367    6.91  0.000776  ( 0.004178 -0.025893  0.009393)
 27:    572.85   0.016991   85.86  0.009256  ( 0.002524 -0.083116 -0.048387)
 28:    578.55   0.009144   46.21  0.004932  (-0.015902  0.060591 -0.031750)
 29:    626.55   0.011325   57.23  0.005641  ( 0.062262 -0.041313  0.007582)
 30:    650.78   0.010108   51.08  0.004847  ( 0.042820  0.038337 -0.039290)
 31:    670.93   0.002639   13.34  0.001228  ( 0.008946  0.033866 -0.000873)
 32:    677.40   0.015658   79.13  0.007213  ( 0.004607 -0.029520 -0.079503)
 33:    731.84   0.001288    6.51  0.000549  (-0.021750  0.008176  0.003036)
 34:    807.59   0.001129    5.71  0.000436  ( 0.013608 -0.009409  0.012750)
 35:    873.80   0.001419    7.17  0.000507  (-0.002718  0.022214  0.002458)
 36:    899.14   0.000670    3.38  0.000232  (-0.001690  0.004864 -0.014351)
 37:    937.30   0.000496    2.51  0.000165  (-0.012134 -0.002166  0.003623)
 38:    972.73   0.004210   21.27  0.001351  ( 0.024648  0.010148 -0.025298)
 39:   1019.62   0.001410    7.12  0.000431  (-0.017465 -0.008996 -0.006746)
 40:   1032.45   0.001491    7.54  0.000451  ( 0.013188  0.005901  0.015555)
 41:   1061.35   0.001371    6.93  0.000403  (-0.004690 -0.019498 -0.001013)
 42:   1091.62   0.000211    1.06  0.000060  (-0.007288 -0.001474 -0.002218)
 43:   1130.91   0.000128    0.65  0.000035  ( 0.005702  0.001095  0.001260)
 44:   1152.85   0.000668    3.38  0.000181  ( 0.011459  0.006855  0.001589)
 45:   1184.23   0.042803  216.31  0.011279  ( 0.003019  0.105739 -0.009461)
 46:   1192.67   0.005397   27.27  0.001412  ( 0.002829 -0.035655  0.011527)
 47:   1197.69   0.006058   30.62  0.001579  ( 0.004756  0.037563 -0.012040)
 48:   1220.03   0.001726    8.72  0.000441  (-0.014636 -0.013760 -0.006161)
 49:   1251.60   0.001841    9.30  0.000459  (-0.019286  0.000378 -0.009318)
 50:   1286.51   0.003188   16.11  0.000773  (-0.009467 -0.024861 -0.008103)
 51:   1297.61   0.005279   26.68  0.001270  ( 0.014801  0.002361  0.032326)
 52:   1328.33   0.016449   83.13  0.003864  (-0.044767 -0.010434 -0.041850)
 53:   1361.75   0.007646   38.64  0.001752  ( 0.035802  0.008584  0.019921)
 54:   1399.56   0.012594   63.64  0.002808  (-0.001577 -0.052574  0.006444)
 55:   1402.31   0.008477   42.84  0.001886  ( 0.033848  0.027085  0.002681)
 56:   1428.06   0.009826   49.65  0.002147  (-0.017426 -0.042247  0.007659)
 57:   1454.77   0.002799   14.14  0.000600  (-0.012544  0.020724 -0.003678)
 58:   1455.96   0.004251   21.48  0.000911  (-0.029737 -0.005038 -0.001195)
 59:   1472.80   0.002784   14.07  0.000590  ( 0.009967 -0.014996  0.016300)
 60:   1485.41   0.008504   42.97  0.001786  ( 0.031271 -0.008931  0.026997)
 61:   1486.10   0.005730   28.96  0.001203  (-0.012693 -0.015379 -0.028383)
 62:   1513.82   0.000652    3.30  0.000134  (-0.000131  0.001232  0.011527)
 63:   1535.10   0.076053  384.34  0.015460  (-0.109596 -0.008730 -0.058077)
 64:   1593.37   0.039288  198.55  0.007695  (-0.070837 -0.025161 -0.045208)
 65:   1774.87   0.091463  462.22  0.016081  (-0.063029 -0.033257  0.104893)
 66:   1782.36   0.018919   95.61  0.003312  ( 0.029283  0.031653  0.038117)
 67:   1840.34   0.067850  342.89  0.011505  (-0.088744  0.050432 -0.032959)
 68:   3051.12   0.002900   14.65  0.000297  ( 0.011802 -0.010911  0.006184)
 69:   3062.45   0.001082    5.47  0.000110  (-0.002793 -0.010106 -0.000553)
 70:   3077.40   0.005935   29.99  0.000602  (-0.011175 -0.006876 -0.020729)
 71:   3089.19   0.000549    2.77  0.000055  (-0.006257 -0.000490  0.004010)
 72:   3105.76   0.000095    0.48  0.000009  ( 0.002638  0.001246  0.000994)
 73:   3148.11   0.002406   12.16  0.000238  (-0.008839  0.012655 -0.000422)
 74:   3170.55   0.000421    2.13  0.000041  ( 0.002090 -0.005003 -0.003465)
 75:   3183.09   0.001232    6.23  0.000121  ( 0.002461  0.000646 -0.010693)
 76:   3188.32   0.001147    5.80  0.000112  ( 0.008904  0.004660 -0.003365)
 77:   3245.96   0.000173    0.88  0.000017  (-0.002984  0.000766  0.002675)
 78:   3584.79   0.030999  156.66  0.002699  (-0.022208 -0.034646  0.031702)
 79:   3601.59   0.025807  130.42  0.002236  (-0.002380  0.008076 -0.046531)
 80:   3799.74   0.020521  103.70  0.001685  (-0.025587 -0.031770 -0.004616)

* The epsilon (eps) is given for a Dirac delta lineshape.
** The dipole moment derivative (T) already includes vibrational overlap.

The first frequency considered to be a vibration is 7
The total number of vibrations considered is 74


--------------------------
THERMOCHEMISTRY AT 298.15K
--------------------------

Temperature         ... 298.15 K
Pressure            ... 1.00 atm
Total Mass          ... 201.20 AMU

Throughout the following assumptions are being made:
  (1) The electronic state is orbitally nondegenerate
      but the spin degeneracy is treated
  (2) There are no thermally accessible electronically excited states
  (3) Hindered rotations indicated by low frequency modes are not
      treated as such but are treated as vibrations and this may
      cause some error
  (4) All equations used are the standard statistical mechanics
      equations for an ideal gas
  (5) All vibrations are strictly harmonic

freq.      21.55  E(vib)   ...       0.56 
freq.      47.99  E(vib)   ...       0.53 
freq.      60.18  E(vib)   ...       0.51 
freq.      74.27  E(vib)   ...       0.49 
freq.      85.03  E(vib)   ...       0.48 
freq.      96.06  E(vib)   ...       0.47 
freq.     123.70  E(vib)   ...       0.43 
freq.     132.67  E(vib)   ...       0.42 
freq.     164.79  E(vib)   ...       0.39 
freq.     183.74  E(vib)   ...       0.37 
freq.     225.91  E(vib)   ...       0.33 
freq.     248.64  E(vib)   ...       0.31 
freq.     288.20  E(vib)   ...       0.27 
freq.     311.38  E(vib)   ...       0.25 
freq.     377.60  E(vib)   ...       0.21 
freq.     421.81  E(vib)   ...       0.18 
freq.     483.66  E(vib)   ...       0.15 
freq.     506.19  E(vib)   ...       0.14 
freq.     516.33  E(vib)   ...       0.13 
freq.     549.47  E(vib)   ...       0.12 
freq.     572.85  E(vib)   ...       0.11 
freq.     578.55  E(vib)   ...       0.11 
freq.     626.55  E(vib)   ...       0.09 
freq.     650.78  E(vib)   ...       0.08 
freq.     670.93  E(vib)   ...       0.08 
freq.     677.40  E(vib)   ...       0.08 
freq.     731.84  E(vib)   ...       0.06 
freq.     807.59  E(vib)   ...       0.05 
freq.     873.80  E(vib)   ...       0.04 
freq.     899.14  E(vib)   ...       0.03 
freq.     937.30  E(vib)   ...       0.03 
freq.     972.73  E(vib)   ...       0.03 
freq.    1019.62  E(vib)   ...       0.02 
freq.    1032.45  E(vib)   ...       0.02 
freq.    1061.35  E(vib)   ...       0.02 
freq.    1091.62  E(vib)   ...       0.02 
freq.    1130.91  E(vib)   ...       0.01 
freq.    1152.85  E(vib)   ...       0.01 
freq.    1184.23  E(vib)   ...       0.01 
freq.    1192.67  E(vib)   ...       0.01 
freq.    1197.69  E(vib)   ...       0.01 
freq.    1220.03  E(vib)   ...       0.01 
freq.    1251.60  E(vib)   ...       0.01 
freq.    1286.51  E(vib)   ...       0.01 
freq.    1297.61  E(vib)   ...       0.01 
freq.    1328.33  E(vib)   ...       0.01 
freq.    1361.75  E(vib)   ...       0.01 
freq.    1399.56  E(vib)   ...       0.00 
freq.    1402.31  E(vib)   ...       0.00 
freq.    1428.06  E(vib)   ...       0.00 
freq.    1454.77  E(vib)   ...       0.00 
freq.    1455.96  E(vib)   ...       0.00 
freq.    1472.80  E(vib)   ...       0.00 
freq.    1485.41  E(vib)   ...       0.00 
freq.    1486.10  E(vib)   ...       0.00 
freq.    1513.82  E(vib)   ...       0.00 
freq.    1535.10  E(vib)   ...       0.00 
freq.    1593.37  E(vib)   ...       0.00 
freq.    1774.87  E(vib)   ...       0.00 
freq.    1782.36  E(vib)   ...       0.00 
freq.    1840.34  E(vib)   ...       0.00 
freq.    3051.12  E(vib)   ...       0.00 
freq.    3062.45  E(vib)   ...       0.00 
freq.    3077.40  E(vib)   ...       0.00 
freq.    3089.19  E(vib)   ...       0.00 
freq.    3105.76  E(vib)   ...       0.00 
freq.    3148.11  E(vib)   ...       0.00 
freq.    3170.55  E(vib)   ...       0.00 
freq.    3183.09  E(vib)   ...       0.00 
freq.    3188.32  E(vib)   ...       0.00 
freq.    3245.96  E(vib)   ...       0.00 
freq.    3584.79  E(vib)   ...       0.00 
freq.    3601.59  E(vib)   ...       0.00 
freq.    3799.74  E(vib)   ...       0.00 

------------
INNER ENERGY
------------

The inner energy is: U= E(el) + E(ZPE) + E(vib) + E(rot) + E(trans)
    E(el)   - is the total energy from the electronic structure calculation
              = E(kin-el) + E(nuc-el) + E(el-el) + E(nuc-nuc)
    E(ZPE)  - the the zero temperature vibrational energy from the frequency calculation
    E(vib)  - the the finite temperature correction to E(ZPE) due to population
              of excited vibrational states
    E(rot)  - is the rotational thermal energy
    E(trans)- is the translational thermal energy

Summary of contributions to the inner energy U:
Electronic energy                ...   -723.07792908 Eh
Zero point energy                ...      0.21793117 Eh     136.75 kcal/mol
Thermal vibrational correction   ...      0.01234414 Eh       7.75 kcal/mol
Thermal rotational correction    ...      0.00141627 Eh       0.89 kcal/mol
Thermal translational correction ...      0.00141627 Eh       0.89 kcal/mol
-----------------------------------------------------------------------
Total thermal energy                   -722.84482123 Eh


Summary of corrections to the electronic energy:
(perhaps to be used in another calculation)
Total thermal correction                  0.01517668 Eh       9.52 kcal/mol
Non-thermal (ZPE) correction              0.21793117 Eh     136.75 kcal/mol
-----------------------------------------------------------------------
Total correction                          0.23310785 Eh     146.28 kcal/mol


--------
ENTHALPY
--------

The enthalpy is H = U + kB*T
                kB is Boltzmann's constant
Total free energy                 ...   -722.84482123 Eh 
Thermal Enthalpy correction       ...      0.00094421 Eh       0.59 kcal/mol
-----------------------------------------------------------------------
Total Enthalpy                    ...   -722.84387702 Eh


Note: Only C1 symmetry has been detected, increase convergence thresholds 
      if your molecule has a higher symmetry. Symmetry factor of 1.0 is   
      used for the rotational entropy correction. 
 

Note: Rotational entropy computed according to Herzberg 
Infrared and Raman Spectra, Chapter V,1, Van Nostrand Reinhold, 1945 
Point Group:  C1, Symmetry Number:   1  
Rotational constants in cm-1:     0.026071     0.016802     0.011437 

Vibrational entropy computed according to the QRRHO of S. Grimme
Chem.Eur.J. 2012 18 9955


-------
ENTROPY
-------

The entropy contributions are T*S = T*(S(el)+S(vib)+S(rot)+S(trans))
     S(el)   - electronic entropy
     S(vib)  - vibrational entropy
     S(rot)  - rotational entropy
     S(trans)- translational entropy
The entropies will be listed as multiplied by the temperature to get
units of energy

Electronic entropy                ...      0.00065446 Eh      0.41 kcal/mol
Vibrational entropy               ...      0.02238888 Eh     14.05 kcal/mol
Rotational entropy                ...      0.01527225 Eh      9.58 kcal/mol
Translational entropy             ...      0.01986141 Eh     12.46 kcal/mol
-----------------------------------------------------------------------
Final entropy term                ...      0.05817700 Eh     36.51 kcal/mol

In case the symmetry of your molecule has not been determined correctly
or in case you have a reason to use a different symmetry number we print 
out the resulting rotational entropy values for sn=1,12 :
 --------------------------------------------------------
|  sn= 1 | S(rot)=       0.01527225 Eh      9.58 kcal/mol|
|  sn= 2 | S(rot)=       0.01461779 Eh      9.17 kcal/mol|
|  sn= 3 | S(rot)=       0.01423496 Eh      8.93 kcal/mol|
|  sn= 4 | S(rot)=       0.01396334 Eh      8.76 kcal/mol|
|  sn= 5 | S(rot)=       0.01375265 Eh      8.63 kcal/mol|
|  sn= 6 | S(rot)=       0.01358050 Eh      8.52 kcal/mol|
|  sn= 7 | S(rot)=       0.01343496 Eh      8.43 kcal/mol|
|  sn= 8 | S(rot)=       0.01330888 Eh      8.35 kcal/mol|
|  sn= 9 | S(rot)=       0.01319767 Eh      8.28 kcal/mol|
|  sn=10 | S(rot)=       0.01309819 Eh      8.22 kcal/mol|
|  sn=11 | S(rot)=       0.01300820 Eh      8.16 kcal/mol|
|  sn=12 | S(rot)=       0.01292605 Eh      8.11 kcal/mol|
 --------------------------------------------------------


-------------------
GIBBS FREE ENERGY
-------------------

The Gibbs free energy is G = H - T*S

Total enthalpy                    ...   -722.84387702 Eh 
Total entropy correction          ...     -0.05817700 Eh    -36.51 kcal/mol
-----------------------------------------------------------------------
Final Gibbs free energy         ...   -722.90205402 Eh

For completeness - the Gibbs free energy minus the electronic energy
G-E(el)                           ...      0.17587506 Eh    110.36 kcal/mol


Timings for individual modules:

Sum of individual times         ...     1817.788 sec (=  30.296 min)
GTO integral calculation        ...      185.744 sec (=   3.096 min)  10.2 %
SCF iterations                  ...      662.167 sec (=  11.036 min)  36.4 %
SCF Gradient evaluation         ...      317.820 sec (=   5.297 min)  17.5 %
Geometry relaxation             ...        0.482 sec (=   0.008 min)   0.0 %
Analytical frequency calculation...      651.575 sec (=  10.860 min)  35.8 %
                             ****ORCA TERMINATED NORMALLY****
TOTAL RUN TIME: 0 days 0 hours 34 minutes 22 seconds 861 msec
