
                                 *****************
                                 * O   R   C   A *
                                 *****************

                                            #,                                       
                                            ###                                      
                                            ####                                     
                                            #####                                    
                                            ######                                   
                                           ########,                                 
                                     ,,################,,,,,                         
                               ,,#################################,,                 
                          ,,##########################################,,             
                       ,#########################################, ''#####,          
                    ,#############################################,,   '####,        
                  ,##################################################,,,,####,       
                ,###########''''           ''''###############################       
              ,#####''   ,,,,##########,,,,          '''####'''          '####       
            ,##' ,,,,###########################,,,                        '##       
           ' ,,###''''                  '''############,,,                           
         ,,##''                                '''############,,,,        ,,,,,,###''
      ,#''                                            '''#######################'''  
     '                                                          ''''####''''         
             ,#######,   #######,   ,#######,      ##                                
            ,#'     '#,  ##    ##  ,#'     '#,    #''#        ######   ,####,        
            ##       ##  ##   ,#'  ##            #'  '#       #        #'  '#        
            ##       ##  #######   ##           ,######,      #####,   #    #        
            '#,     ,#'  ##    ##  '#,     ,#' ,#      #,         ##   #,  ,#        
             '#######'   ##     ##  '#######'  #'      '#     #####' # '####'        



                  #######################################################
                  #                        -***-                        #
                  #          Department of theory and spectroscopy      #
                  #    Directorship and core code : Frank Neese         #
                  #        Max Planck Institute fuer Kohlenforschung    #
                  #                Kaiser Wilhelm Platz 1               #
                  #                 D-45470 Muelheim/Ruhr               #
                  #                      Germany                        #
                  #                                                     #
                  #                  All rights reserved                #
                  #                        -***-                        #
                  #######################################################


                         Program Version 5.0.4 -  RELEASE  -


 With contributions from (in alphabetic order):
   Daniel Aravena         : Magnetic Suceptibility
   Michael Atanasov       : Ab Initio Ligand Field Theory (pilot matlab implementation)
   Alexander A. Auer      : GIAO ZORA, VPT2 properties, NMR spectrum
   Ute Becker             : Parallelization
   Giovanni Bistoni       : ED, misc. LED, open-shell LED, HFLD
   Martin Brehm           : Molecular dynamics
   Dmytro Bykov           : SCF Hessian
   Vijay G. Chilkuri      : MRCI spin determinant printing, contributions to CSF-ICE
   Dipayan Datta          : RHF DLPNO-CCSD density
   Achintya Kumar Dutta   : EOM-CC, STEOM-CC
   Dmitry Ganyushin       : Spin-Orbit,Spin-Spin,Magnetic field MRCI
   Miquel Garcia          : C-PCM and meta-GGA Hessian, CC/C-PCM, Gaussian charge scheme
   Yang Guo               : DLPNO-NEVPT2, F12-NEVPT2, CIM, IAO-localization
   Andreas Hansen         : Spin unrestricted coupled pair/coupled cluster methods
   Benjamin Helmich-Paris : MC-RPA, TRAH-SCF, COSX integrals
   Lee Huntington         : MR-EOM, pCC
   Robert Izsak           : Overlap fitted RIJCOSX, COSX-SCS-MP3, EOM
   Marcus Kettner         : VPT2
   Christian Kollmar      : KDIIS, OOCD, Brueckner-CCSD(T), CCSD density, CASPT2, CASPT2-K
   Simone Kossmann        : Meta GGA functionals, TD-DFT gradient, OOMP2, MP2 Hessian
   Martin Krupicka        : Initial AUTO-CI
   Lucas Lang             : DCDCAS
   Marvin Lechner         : AUTO-CI (C++ implementation), FIC-MRCC
   Dagmar Lenk            : GEPOL surface, SMD
   Dimitrios Liakos       : Extrapolation schemes; Compound Job, initial MDCI parallelization
   Dimitrios Manganas     : Further ROCIS development; embedding schemes
   Dimitrios Pantazis     : SARC Basis sets
   Anastasios Papadopoulos: AUTO-CI, single reference methods and gradients
   Taras Petrenko         : DFT Hessian,TD-DFT gradient, ASA, ECA, R-Raman, ABS, FL, XAS/XES, NRVS
   Peter Pinski           : DLPNO-MP2, DLPNO-MP2 Gradient
   Christoph Reimann      : Effective Core Potentials
   Marius Retegan         : Local ZFS, SOC
   Christoph Riplinger    : Optimizer, TS searches, QM/MM, DLPNO-CCSD(T), (RO)-DLPNO pert. Triples
   Tobias Risthaus        : Range-separated hybrids, TD-DFT gradient, RPA, STAB
   Michael Roemelt        : Original ROCIS implementation
   Masaaki Saitow         : Open-shell DLPNO-CCSD energy and density
   Barbara Sandhoefer     : DKH picture change effects
   Avijit Sen             : IP-ROCIS
   Kantharuban Sivalingam : CASSCF convergence, NEVPT2, FIC-MRCI
   Bernardo de Souza      : ESD, SOC TD-DFT
   Georgi Stoychev        : AutoAux, RI-MP2 NMR, DLPNO-MP2 response
   Willem Van den Heuvel  : Paramagnetic NMR
   Boris Wezisla          : Elementary symmetry handling
   Frank Wennmohs         : Technical directorship


 We gratefully acknowledge several colleagues who have allowed us to
 interface, adapt or use parts of their codes:
   Stefan Grimme, W. Hujo, H. Kruse, P. Pracht,  : VdW corrections, initial TS optimization,
                  C. Bannwarth, S. Ehlert          DFT functionals, gCP, sTDA/sTD-DF
   Ed Valeev, F. Pavosevic, A. Kumar             : LibInt (2-el integral package), F12 methods
   Garnet Chan, S. Sharma, J. Yang, R. Olivares  : DMRG
   Ulf Ekstrom                                   : XCFun DFT Library
   Mihaly Kallay                                 : mrcc  (arbitrary order and MRCC methods)
   Jiri Pittner, Ondrej Demel                    : Mk-CCSD
   Frank Weinhold                                : gennbo (NPA and NBO analysis)
   Christopher J. Cramer and Donald G. Truhlar   : smd solvation model
   Lars Goerigk                                  : TD-DFT with DH, B97 family of functionals
   V. Asgeirsson, H. Jonsson                     : NEB implementation
   FAccTs GmbH                                   : IRC, NEB, NEB-TS, DLPNO-Multilevel, CI-OPT
                                                   MM, QMMM, 2- and 3-layer-ONIOM, Crystal-QMMM,
                                                   LR-CPCM, SF, NACMEs, symmetry and pop. for TD-DFT,
                                                   nearIR, NL-DFT gradient (VV10), updates on ESD,
                                                   ML-optimized integration grids
   S Lehtola, MJT Oliveira, MAL Marques          : LibXC Library
   Liviu Ungur et al                             : ANISO software


 Your calculation uses the libint2 library for the computation of 2-el integrals
 For citations please refer to: http://libint.valeyev.net

 Your ORCA version has been built with support for libXC version: 5.1.0
 For citations please refer to: https://tddft.org/programs/libxc/

 This ORCA versions uses:
   CBLAS   interface :  Fast vector & matrix operations
   LAPACKE interface :  Fast linear algebra routines
   SCALAPACK package :  Parallel linear algebra routines
   Shared memory     :  Shared parallel matrices
   BLAS/LAPACK       :  OpenBLAS 0.3.15  USE64BITINT DYNAMIC_ARCH NO_AFFINITY Zen SINGLE_THREADED
        Core in use  :  Zen
   Copyright (c) 2011-2014, The OpenBLAS Project




***************************************
The coordinates will be read from file: model.xyz
***************************************


================================================================================

----- Orbital basis set information -----
Your calculation utilizes the basis: EPR-II
   V. Barone, in Recent Advances in Density Functional Methods, Part 1 (ed. D. P. Chong), World Scientific, Singapore, 1995, p. 287.

----- AuxJ basis set information -----
Your calculation utilizes the auxiliary basis: def2/J
   F. Weigend, Phys. Chem. Chem. Phys. 8, 1057 (2006).

================================================================================
                                        WARNINGS
                       Please study these warnings very carefully!
================================================================================


WARNING: your system is open-shell and RHF/RKS was chosen
  ===> : WILL SWITCH to UHF/UKS


WARNING: Geometry Optimization
  ===> : Switching off AutoStart
         For restart on a previous wavefunction, please use MOREAD

INFO   : the flag for use of the SHARK integral package has been found!

================================================================================
                                       INPUT FILE
================================================================================
NAME = opt.inp
|  1> ! B3LYP EPR-II OPT
|  2> %pal nprocs 16 end
|  3> *XYZFile 0 2 model.xyz
|  4> 
|  5>                          ****END OF INPUT****
================================================================================

                       *****************************
                       * Geometry Optimization Run *
                       *****************************

Geometry optimization settings:
Update method            Update   .... BFGS
Choice of coordinates    CoordSys .... Z-matrix Internals
Initial Hessian          InHess   .... Almoef's Model

Convergence Tolerances:
Energy Change            TolE     ....  5.0000e-06 Eh
Max. Gradient            TolMAXG  ....  3.0000e-04 Eh/bohr
RMS Gradient             TolRMSG  ....  1.0000e-04 Eh/bohr
Max. Displacement        TolMAXD  ....  4.0000e-03 bohr
RMS Displacement         TolRMSD  ....  2.0000e-03 bohr
Strict Convergence                ....  False
------------------------------------------------------------------------------
                        ORCA OPTIMIZATION COORDINATE SETUP
------------------------------------------------------------------------------

The optimization will be done in new redundant internal coordinates
Making redundant internal coordinates   ...  (new redundants) done
Evaluating the initial hessian          ...  (Almloef) done
Evaluating the coordinates              ...  done
Calculating the B-matrix                .... done
Calculating the G-matrix                .... done
Diagonalizing the G-matrix              .... done
Small eigenvalue found = 6.825e-03
Small eigenvalue found = 8.986e-03
Small eigenvalue found = 1.566e-02
The first mode is                       ....   46
The number of degrees of freedom        ....   75

    -----------------------------------------------------------------
                    Redundant Internal Coordinates


    -----------------------------------------------------------------
         Definition                    Initial Value    Approx d2E/dq
    -----------------------------------------------------------------
      1. B(C   1,N   0)                  1.4537         0.442841   
      2. B(C   2,C   1)                  1.5594         0.335327   
      3. B(O   3,C   2)                  1.2185         1.050543   
      4. B(C   4,C   1)                  1.5000         0.417105   
      5. B(H   5,C   4)                  1.0859         0.365533   
      6. B(C   6,C   4)                  1.4971         0.421632   
      7. B(H   7,C   6)                  1.1004         0.346589   
      8. B(H   8,C   6)                  1.1002         0.346861   
      9. B(C   9,C   6)                  1.5236         0.382491   
     10. B(O  10,C   9)                  1.3345         0.686138   
     11. B(O  11,C   9)                  1.2042         1.107252   
     12. B(H  12,N   0)                  1.0131         0.427739   
     13. B(H  13,C   1)                  1.1013         0.345401   
     14. B(C  14,N   0)                  1.3605         0.623548   
     15. B(N  15,C   2)                  1.3426         0.665995   
     16. B(H  16,O  10)                  0.9663         0.508058   
     17. B(H  17,N  15)                  1.0133         0.427570   
     18. B(O  18,C  14)                  1.2153         1.063125   
     19. B(C  19,C  14)                  1.5234         0.382810   
     20. B(H  20,C  19)                  1.0951         0.353367   
     21. B(H  21,C  19)                  1.0964         0.351695   
     22. B(H  22,C  19)                  1.0947         0.353981   
     23. B(C  23,N  15)                  1.4510         0.447310   
     24. B(H  24,C  23)                  1.0962         0.352028   
     25. B(H  25,C  23)                  1.0934         0.355682   
     26. B(H  26,C  23)                  1.0975         0.350374   
     27. A(C   1,N   0,C  14)          121.5002         0.403926   
     28. A(C   1,N   0,H  12)          114.1525         0.338240   
     29. A(H  12,N   0,C  14)          120.7447         0.358312   
     30. A(N   0,C   1,H  13)          109.5770         0.329265   
     31. A(C   4,C   1,H  13)          107.9374         0.327998   
     32. A(N   0,C   1,C   2)          105.2652         0.364944   
     33. A(C   2,C   1,C   4)          114.5400         0.363489   
     34. A(N   0,C   1,C   4)          113.4549         0.378916   
     35. A(C   2,C   1,H  13)          105.7429         0.316480   
     36. A(O   3,C   2,N  15)          123.4843         0.477683   
     37. A(C   1,C   2,N  15)          116.1944         0.391645   
     38. A(C   1,C   2,O   3)          120.2866         0.424533   
     39. A(C   1,C   4,C   6)          122.2376         0.378093   
     40. A(C   1,C   4,H   5)          118.8248         0.331082   
     41. A(H   5,C   4,C   6)          118.8418         0.331674   
     42. A(H   8,C   6,C   9)          106.9565         0.323581   
     43. A(H   7,C   6,C   9)          107.5382         0.323540   
     44. A(C   4,C   6,C   9)          112.6221         0.372479   
     45. A(H   7,C   6,H   8)          106.0069         0.287411   
     46. A(C   4,C   6,H   8)          111.3794         0.328812   
     47. A(C   4,C   6,H   7)          111.9640         0.328769   
     48. A(C   6,C   9,O  11)          125.5543         0.438815   
     49. A(C   6,C   9,O  10)          112.0869         0.402905   
     50. A(O  10,C   9,O  11)          122.3534         0.484998   
     51. A(C   9,O  10,H  16)          108.1810         0.375137   
     52. A(O  18,C  14,C  19)          121.9642         0.435676   
     53. A(N   0,C  14,C  19)          115.5830         0.396240   
     54. A(N   0,C  14,O  18)          122.4502         0.472966   
     55. A(C   2,N  15,H  17)          119.1547         0.362332   
     56. A(H  17,N  15,C  23)          118.9765         0.338784   
     57. A(C   2,N  15,C  23)          120.7351         0.409383   
     58. A(C  14,C  19,H  21)          108.1905         0.324362   
     59. A(C  14,C  19,H  20)          108.4970         0.324614   
     60. A(H  21,C  19,H  22)          109.3370         0.288986   
     61. A(H  20,C  19,H  22)          109.7034         0.289201   
     62. A(C  14,C  19,H  22)          113.2204         0.324707   
     63. A(H  20,C  19,H  21)          107.7374         0.288907   
     64. A(H  24,C  23,H  26)          108.0188         0.288566   
     65. A(N  15,C  23,H  26)          110.9654         0.330592   
     66. A(H  24,C  23,H  25)          109.4279         0.289246   
     67. A(N  15,C  23,H  25)          108.5634         0.331416   
     68. A(H  25,C  23,H  26)          109.4369         0.289033   
     69. A(N  15,C  23,H  24)          110.4114         0.330850   
     70. D(H  13,C   1,N   0,H  12)     99.3784         0.016724   
     71. D(C   2,C   1,N   0,H  12)    -13.9223         0.016724   
     72. D(C   4,C   1,N   0,C  14)     61.3527         0.016724   
     73. D(C   4,C   1,N   0,H  12)   -139.9168         0.016724   
     74. D(H  13,C   1,N   0,C  14)    -59.3521         0.016724   
     75. D(C   2,C   1,N   0,C  14)   -172.6529         0.016724   
     76. D(O   3,C   2,C   1,C   4)    152.3137         0.008569   
     77. D(N  15,C   2,C   1,H  13)     88.9600         0.008569   
     78. D(N  15,C   2,C   1,C   4)    -29.7554         0.008569   
     79. D(O   3,C   2,C   1,N   0)     26.9926         0.008569   
     80. D(O   3,C   2,C   1,H  13)    -88.9709         0.008569   
     81. D(N  15,C   2,C   1,N   0)   -155.0765         0.008569   
     82. D(H   5,C   4,C   1,C   2)    114.7860         0.012870   
     83. D(H   5,C   4,C   1,H  13)     -2.6849         0.012870   
     84. D(H   5,C   4,C   1,N   0)   -124.3104         0.012870   
     85. D(C   6,C   4,C   1,H  13)    173.7126         0.012870   
     86. D(C   6,C   4,C   1,C   2)    -68.8165         0.012870   
     87. D(C   6,C   4,C   1,N   0)     52.0871         0.012870   
     88. D(C   9,C   6,C   4,H   5)    -63.6496         0.013142   
     89. D(H   8,C   6,C   4,H   5)    176.1889         0.013142   
     90. D(H   8,C   6,C   4,C   1)     -0.2080         0.013142   
     91. D(H   7,C   6,C   4,H   5)     57.6870         0.013142   
     92. D(C   9,C   6,C   4,C   1)    119.9535         0.013142   
     93. D(H   7,C   6,C   4,C   1)   -118.7099         0.013142   
     94. D(O  11,C   9,C   6,H   8)    105.2825         0.010908   
     95. D(O  11,C   9,C   6,H   7)   -141.2207         0.010908   
     96. D(O  11,C   9,C   6,C   4)    -17.3966         0.010908   
     97. D(O  10,C   9,C   6,H   8)    -73.8804         0.010908   
     98. D(O  10,C   9,C   6,H   7)     39.6164         0.010908   
     99. D(O  10,C   9,C   6,C   4)    163.4405         0.010908   
    100. D(H  16,O  10,C   9,C   6)    178.5115         0.035123   
    101. D(H  16,O  10,C   9,O  11)     -0.6824         0.035123   
    102. D(C  19,C  14,N   0,H  12)     14.0816         0.031512   
    103. D(C  19,C  14,N   0,C   1)    171.4300         0.031512   
    104. D(O  18,C  14,N   0,H  12)   -166.4888         0.031512   
    105. D(O  18,C  14,N   0,C   1)     -9.1405         0.031512   
    106. D(C  23,N  15,C   2,O   3)     -0.7687         0.036355   
    107. D(C  23,N  15,C   2,C   1)   -178.6264         0.036355   
    108. D(H  17,N  15,C   2,O   3)   -168.4749         0.036355   
    109. D(H  17,N  15,C   2,C   1)     13.6674         0.036355   
    110. D(H  22,C  19,C  14,O  18)   -172.9090         0.010925   
    111. D(H  22,C  19,C  14,N   0)      6.5237         0.010925   
    112. D(H  21,C  19,C  14,O  18)     65.7426         0.010925   
    113. D(H  21,C  19,C  14,N   0)   -114.8248         0.010925   
    114. D(H  20,C  19,C  14,O  18)    -50.8779         0.010925   
    115. D(H  20,C  19,C  14,N   0)    128.5547         0.010925   
    116. D(H  26,C  23,N  15,H  17)    108.8798         0.017066   
    117. D(H  26,C  23,N  15,C   2)    -58.8480         0.017066   
    118. D(H  25,C  23,N  15,H  17)    -11.4249         0.017066   
    119. D(H  25,C  23,N  15,C   2)   -179.1527         0.017066   
    120. D(H  24,C  23,N  15,H  17)   -131.3820         0.017066   
    121. D(H  24,C  23,N  15,C   2)     60.8902         0.017066   
    -----------------------------------------------------------------

Number of atoms                         .... 27
Number of degrees of freedom            .... 121

         *************************************************************
         *                GEOMETRY OPTIMIZATION CYCLE   1            *
         *************************************************************
---------------------------------
CARTESIAN COORDINATES (ANGSTROEM)
---------------------------------
  N     -4.552822   -4.799778   -0.657929
  C     -3.107359   -4.911250   -0.764944
  C     -2.581125   -4.849770    0.701696
  O     -3.288050   -5.216187    1.624116
  C     -2.497249   -3.899086   -1.688676
  H     -1.880680   -4.246512   -2.512307
  C     -2.772958   -2.433160   -1.561279
  H     -3.254957   -2.025176   -2.462460
  H     -3.461356   -2.225413   -0.728584
  C     -1.510250   -1.619231   -1.307541
  O     -1.695307   -0.319012   -1.544379
  O     -0.457823   -2.060913   -0.923478
  H     -4.910602   -4.933890    0.280404
  H     -2.840992   -5.913326   -1.136229
  C     -5.360562   -4.963990   -1.740367
  N     -1.319244   -4.419786    0.861046
  H     -0.871242    0.144202   -1.344158
  H     -0.850216   -3.967372    0.085151
  O     -4.925324   -5.049142   -2.871867
  C     -6.853763   -5.021169   -1.444253
  H     -7.364640   -4.303070   -2.094380
  H     -7.216007   -6.023025   -1.703523
  H     -7.094729   -4.808141   -0.397904
  C     -0.719980   -4.352066    2.180742
  H     -0.687457   -5.348053    2.637408
  H      0.297397   -3.964070    2.081547
  H     -1.298854   -3.694347    2.841586

----------------------------
CARTESIAN COORDINATES (A.U.)
----------------------------
  NO LB      ZA    FRAG     MASS         X           Y           Z
   0 N     7.0000    0    14.007   -8.603587   -9.070266   -1.243306
   1 C     6.0000    0    12.011   -5.872058   -9.280917   -1.445535
   2 C     6.0000    0    12.011   -4.877619   -9.164737    1.326013
   3 O     8.0000    0    15.999   -6.213514   -9.857165    3.069134
   4 C     6.0000    0    12.011   -4.719117   -7.368205   -3.191135
   5 H     1.0000    0     1.008   -3.553970   -8.024745   -4.747572
   6 C     6.0000    0    12.011   -5.240131   -4.598006   -2.950390
   7 H     1.0000    0     1.008   -6.150977   -3.827028   -4.653375
   8 H     1.0000    0     1.008   -6.541015   -4.205421   -1.376824
   9 C     6.0000    0    12.011   -2.853959   -3.059903   -2.470894
  10 O     8.0000    0    15.999   -3.203666   -0.602845   -2.918453
  11 O     8.0000    0    15.999   -0.865160   -3.894561   -1.745121
  12 H     1.0000    0     1.008   -9.279693   -9.323701    0.529887
  13 H     1.0000    0     1.008   -5.368697  -11.174567   -2.147162
  14 C     6.0000    0    12.011  -10.129994   -9.380582   -3.288817
  15 N     7.0000    0    14.007   -2.493010   -8.352185    1.627141
  16 H     1.0000    0     1.008   -1.646409    0.272502   -2.540091
  17 H     1.0000    0     1.008   -1.606675   -7.497247    0.160912
  18 O     8.0000    0    15.999   -9.307513   -9.541496   -5.427042
  19 C     6.0000    0    12.011  -12.951735   -9.488634   -2.729243
  20 H     1.0000    0     1.008  -13.917153   -8.131624   -3.957805
  21 H     1.0000    0     1.008  -13.636277  -11.381868   -3.219192
  22 H     1.0000    0     1.008  -13.407095   -9.086070   -0.751930
  23 C     6.0000    0    12.011   -1.360565   -8.224213    4.121005
  24 H     1.0000    0     1.008   -1.299105  -10.106356    4.983979
  25 H     1.0000    0     1.008    0.561999   -7.491007    3.933554
  26 H     1.0000    0     1.008   -2.454478   -6.981304    5.369819

--------------------------------
INTERNAL COORDINATES (ANGSTROEM)
--------------------------------
 N      0   0   0     0.000000000000     0.00000000     0.00000000
 C      1   0   0     1.453699247223     0.00000000     0.00000000
 C      2   1   0     1.559402097843   105.26519774     0.00000000
 O      3   2   1     1.218549559892   120.28655490    26.99255933
 C      2   1   3     1.499996994270   113.45492544   234.00558597
 H      5   2   1     1.085923653577   118.82477496   235.68957771
 C      5   2   1     1.497058611333   122.23757455    52.08707287
 H      7   5   2     1.100409548767   111.96397680   241.29011265
 H      7   5   2     1.100196157709   111.37940800   359.79202241
 C      7   5   2     1.523579628030   112.62205746   119.95347475
 O     10   7   5     1.334506567782   112.08688773   163.44053883
 O     10   7   5     1.204238334974   125.55429893   342.60344286
 H      1   2   3     1.013144301584   114.15250325   346.07765588
 H      2   1   3     1.101344741527   109.57698473   113.30074460
 C      1   2   3     1.360544564646   121.50022649   187.34714683
 N      3   2   1     1.342617712127   116.19441338   204.92347401
 H     11  10   7     0.966301600362   108.18099495   178.51145068
 H     16   3   2     1.013251569555   119.15468207    13.66738898
 O     15   1   2     1.215308697306   122.45019272   350.85952708
 C     15   1   2     1.523352278837   115.58303691   171.42995996
 H     20  15   1     1.095137707806   108.49699340   128.55470911
 H     20  15   1     1.096429246770   108.19053865   245.17519186
 H     20  15   1     1.094665141375   113.22043115     6.52365118
 C     16   3   2     1.450965496665   120.73514751   181.37356183
 H     24  16   3     1.096171375860   110.41136499    60.89022900
 H     24  16   3     1.093360189585   108.56339510   180.84732923
 H     24  16   3     1.097453499321   110.96540194   301.15201913

---------------------------
INTERNAL COORDINATES (A.U.)
---------------------------
 N      0   0   0     0.000000000000     0.00000000     0.00000000
 C      1   0   0     2.747093458340     0.00000000     0.00000000
 C      2   1   0     2.946842897585   105.26519774     0.00000000
 O      3   2   1     2.302724948807   120.28655490    26.99255933
 C      2   1   3     2.834583520876   113.45492544   234.00558597
 H      5   2   1     2.052098307608   118.82477496   235.68957771
 C      5   2   1     2.829030781848   122.23757455    52.08707287
 H      7   5   2     2.079472682322   111.96397680   241.29011265
 H      7   5   2     2.079069431663   111.37940800   359.79202241
 C      7   5   2     2.879148240199   112.62205746   119.95347475
 O     10   7   5     2.521851937028   112.08688773   163.44053883
 O     10   7   5     2.275680653071   125.55429893   342.60344286
 H      1   2   3     1.914565264137   114.15250325   346.07765588
 H      2   1   3     2.081239940521   109.57698473   113.30074460
 C      1   2   3     2.571056620176   121.50022649   187.34714683
 N      3   2   1     2.537179778472   116.19441338   204.92347401
 H     11  10   7     1.826045387454   108.18099495   178.51145068
 H     16   3   2     1.914767971224   119.15468207    13.66738898
 O     15   1   2     2.296600606081   122.45019272   350.85952708
 C     15   1   2     2.878718612487   115.58303691   171.42995996
 H     20  15   1     2.069510346684   108.49699340   128.55470911
 H     20  15   1     2.071951001616   108.19053865   245.17519186
 H     20  15   1     2.068617325548   113.22043115     6.52365118
 C     16   3   2     2.741927418466   120.73514751   181.37356183
 H     24  16   3     2.071463696218   110.41136499    60.89022900
 H     24  16   3     2.066151324048   108.56339510   180.84732923
 H     24  16   3     2.073886558431   110.96540194   301.15201913

---------------------
BASIS SET INFORMATION
---------------------
There are 4 groups of distinct atoms

 Group   1 Type N   : 10s5p1d contracted to 6s2p1d pattern {511111/41/1}
 Group   2 Type C   : 10s5p1d contracted to 6s2p1d pattern {511111/41/1}
 Group   3 Type O   : 10s5p1d contracted to 6s2p1d pattern {511111/41/1}
 Group   4 Type H   : 6s1p contracted to 4s1p pattern {3111/1}

Atom   0N    basis set group =>   1
Atom   1C    basis set group =>   2
Atom   2C    basis set group =>   2
Atom   3O    basis set group =>   3
Atom   4C    basis set group =>   2
Atom   5H    basis set group =>   4
Atom   6C    basis set group =>   2
Atom   7H    basis set group =>   4
Atom   8H    basis set group =>   4
Atom   9C    basis set group =>   2
Atom  10O    basis set group =>   3
Atom  11O    basis set group =>   3
Atom  12H    basis set group =>   4
Atom  13H    basis set group =>   4
Atom  14C    basis set group =>   2
Atom  15N    basis set group =>   1
Atom  16H    basis set group =>   4
Atom  17H    basis set group =>   4
Atom  18O    basis set group =>   3
Atom  19C    basis set group =>   2
Atom  20H    basis set group =>   4
Atom  21H    basis set group =>   4
Atom  22H    basis set group =>   4
Atom  23C    basis set group =>   2
Atom  24H    basis set group =>   4
Atom  25H    basis set group =>   4
Atom  26H    basis set group =>   4
---------------------------------
AUXILIARY/J BASIS SET INFORMATION
---------------------------------
There are 4 groups of distinct atoms

 Group   1 Type N   : 12s5p4d2f1g contracted to 6s4p3d1f1g pattern {711111/2111/211/2/1}
 Group   2 Type C   : 12s5p4d2f1g contracted to 6s4p3d1f1g pattern {711111/2111/211/2/1}
 Group   3 Type O   : 12s5p4d2f1g contracted to 6s4p3d1f1g pattern {711111/2111/211/2/1}
 Group   4 Type H   : 5s2p1d contracted to 3s1p1d pattern {311/2/1}

Atom   0N    basis set group =>   1
Atom   1C    basis set group =>   2
Atom   2C    basis set group =>   2
Atom   3O    basis set group =>   3
Atom   4C    basis set group =>   2
Atom   5H    basis set group =>   4
Atom   6C    basis set group =>   2
Atom   7H    basis set group =>   4
Atom   8H    basis set group =>   4
Atom   9C    basis set group =>   2
Atom  10O    basis set group =>   3
Atom  11O    basis set group =>   3
Atom  12H    basis set group =>   4
Atom  13H    basis set group =>   4
Atom  14C    basis set group =>   2
Atom  15N    basis set group =>   1
Atom  16H    basis set group =>   4
Atom  17H    basis set group =>   4
Atom  18O    basis set group =>   3
Atom  19C    basis set group =>   2
Atom  20H    basis set group =>   4
Atom  21H    basis set group =>   4
Atom  22H    basis set group =>   4
Atom  23C    basis set group =>   2
Atom  24H    basis set group =>   4
Atom  25H    basis set group =>   4
Atom  26H    basis set group =>   4


           ************************************************************
           *        Program running with 16 parallel MPI-processes    *
           *              working on a common directory               *
           ************************************************************
------------------------------------------------------------------------------
                           ORCA GTO INTEGRAL CALCULATION
                           -- RI-GTO INTEGRALS CHOSEN --
------------------------------------------------------------------------------
------------------------------------------------------------------------------
                   ___                                                        
                  /   \      - P O W E R E D   B Y -                         
                 /     \                                                     
                 |  |  |   _    _      __       _____    __    __             
                 |  |  |  | |  | |    /  \     |  _  \  |  |  /  |          
                  \  \/   | |  | |   /    \    | | | |  |  | /  /          
                 / \  \   | |__| |  /  /\  \   | |_| |  |  |/  /          
                |  |  |   |  __  | /  /__\  \  |    /   |      \           
                |  |  |   | |  | | |   __   |  |    \   |  |\   \          
                \     /   | |  | | |  |  |  |  | |\  \  |  | \   \       
                 \___/    |_|  |_| |__|  |__|  |_| \__\ |__|  \__/        
                                                                              
                      - O R C A' S   B I G   F R I E N D -                    
                                      &                                       
                       - I N T E G R A L  F E E D E R -                       
                                                                              
 v1 FN, 2020, v2 2021                                                         
------------------------------------------------------------------------------


Reading SHARK input file opt.SHARKINP.tmp ... ok
----------------------
SHARK INTEGRAL PACKAGE
----------------------

Number of atoms                             ...     27
Number of basis functions                   ...    329
Number of shells                            ...    191
Maximum angular momentum                    ...      2
Integral batch strategy                     ... SHARK/LIBINT Hybrid
RI-J (if used) integral strategy            ... SPLIT-RIJ (Revised 2003 algorithm where possible)
Printlevel                                  ...      1
Contraction scheme used                     ... SEGMENTED contraction
Coulomb Range Separation                    ... NOT USED
Exchange Range Separation                   ... NOT USED
Finite Nucleus Model                        ... NOT USED
Auxiliary Coulomb fitting basis             ... AVAILABLE
   # of basis functions in Aux-J            ...    829
   # of shells in Aux-J                     ...    275
   Maximum angular momentum in Aux-J        ...      4
Auxiliary J/K fitting basis                 ... NOT available
Auxiliary Correlation fitting basis         ... NOT available
Auxiliary 'external' fitting basis          ... NOT available
Integral threshold                          ...     2.500000e-11
Primitive cut-off                           ...     2.500000e-12
Primitive pair pre-selection threshold      ...     2.500000e-12

Calculating pre-screening integrals         ... done (  0.0 sec) Dimension = 191
Organizing shell pair data                  ... done (  0.0 sec)
Shell pair information
Total number of shell pairs                 ...     18336
Shell pairs after pre-screening             ...     12914
Total number of primitive shell pairs       ...     50033
Primitive shell pairs kept                  ...     25642
          la=0 lb=0:   5848 shell pairs
          la=1 lb=0:   4407 shell pairs
          la=1 lb=1:    764 shell pairs
          la=2 lb=0:   1326 shell pairs
          la=2 lb=1:    486 shell pairs
          la=2 lb=2:     83 shell pairs

Calculating one electron integrals          ... done (  0.0 sec)
Calculating RI/J V-Matrix + Cholesky decomp.... done (  0.0 sec)
Calculating Nuclear repulsion               ... done (  0.0 sec) ENN=    930.690495709244 Eh

SHARK setup successfully completed in   0.2 seconds

Maximum memory used throughout the entire GTOINT-calculation: 19.7 MB


           ************************************************************
           *        Program running with 16 parallel MPI-processes    *
           *              working on a common directory               *
           ************************************************************
-------------------------------------------------------------------------------
                                 ORCA SCF
-------------------------------------------------------------------------------

------------
SCF SETTINGS
------------
Hamiltonian:
 Density Functional     Method          .... DFT(GTOs)
 Exchange Functional    Exchange        .... B88
   X-Alpha parameter    XAlpha          ....  0.666667
   Becke's b parameter  XBeta           ....  0.004200
 Correlation Functional Correlation     .... LYP
 LDA part of GGA corr.  LDAOpt          .... VWN-5
 Gradients option       PostSCFGGA      .... off
 Hybrid DFT is turned on
   Fraction HF Exchange ScalHFX         ....  0.200000
   Scaling of DF-GGA-X  ScalDFX         ....  0.720000
   Scaling of DF-GGA-C  ScalDFC         ....  0.810000
   Scaling of DF-LDA-C  ScalLDAC        ....  1.000000
   Perturbative correction              ....  0.000000
   Density functional embedding theory  .... OFF
   NL short-range parameter             ....  4.800000
 RI-approximation to the Coulomb term is turned on
   Number of AuxJ basis functions       .... 829
   RIJ-COSX (HFX calculated with COS-X)).... on


General Settings:
 Integral files         IntName         .... opt
 Hartree-Fock type      HFTyp           .... UHF
 Total Charge           Charge          ....    0
 Multiplicity           Mult            ....    2
 Number of Electrons    NEL             ....  107
 Basis Dimension        Dim             ....  329
 Nuclear Repulsion      ENuc            ....    930.6904957092 Eh

Convergence Acceleration:
 DIIS                   CNVDIIS         .... on
   Start iteration      DIISMaxIt       ....    12
   Startup error        DIISStart       ....  0.200000
   # of expansion vecs  DIISMaxEq       ....     5
   Bias factor          DIISBfac        ....   1.050
   Max. coefficient     DIISMaxC        ....  10.000
 Trust-Rad. Augm. Hess. CNVTRAH         .... auto
   Auto Start mean grad. ratio tolernc. ....  1.125000
   Auto Start start iteration           ....    20
   Auto Start num. interpolation iter.  ....    10
   Max. Number of Micro iterations      ....    16
   Max. Number of Macro iterations      .... Maxiter - #DIIS iter
   Number of Davidson start vectors     ....     2
   Converg. threshold I  (grad. norm)   ....   1.000e-05
   Converg. threshold II (energy diff.) ....   1.000e-08
   Grad. Scal. Fac. for Micro threshold ....   0.100
   Minimum threshold for Micro iter.    ....   0.010
   NR start threshold (gradient norm)   ....   0.001
   Initial trust radius                 ....   0.400
   Minimum AH scaling param. (alpha)    ....   1.000
   Maximum AH scaling param. (alpha)    .... 1000.000
   Orbital update algorithm             .... Taylor
   White noise on init. David. guess    .... on
   Maximum white noise                  ....   0.010
   Quad. conv. algorithm                .... NR
 SOSCF                  CNVSOSCF        .... off
 Level Shifting         CNVShift        .... on
   Level shift para.    LevelShift      ....    0.2500
   Turn off err/grad.   ShiftErr        ....    0.0010
 Zerner damping         CNVZerner       .... off
 Static damping         CNVDamp         .... on
   Fraction old density DampFac         ....    0.7000
   Max. Damping (<1)    DampMax         ....    0.9800
   Min. Damping (>=0)   DampMin         ....    0.0000
   Turn off err/grad.   DampErr         ....    0.1000
 Fernandez-Rico         CNVRico         .... off

SCF Procedure:
 Maximum # iterations   MaxIter         ....   125
 SCF integral mode      SCFMode         .... Direct
   Integral package                     .... SHARK and LIBINT hybrid scheme
 Reset frequency        DirectResetFreq ....    20
 Integral Threshold     Thresh          ....  2.500e-11 Eh
 Primitive CutOff       TCut            ....  2.500e-12 Eh

Convergence Tolerance:
 Convergence Check Mode ConvCheckMode   .... Total+1el-Energy
 Convergence forced     ConvForced      .... 0
 Energy Change          TolE            ....  1.000e-08 Eh
 1-El. energy change                    ....  1.000e-05 Eh
 DIIS Error             TolErr          ....  5.000e-07


Diagonalization of the overlap matrix:
Smallest eigenvalue                        ... 7.393e-04
Time for diagonalization                   ...    0.013 sec
Threshold for overlap eigenvalues          ... 1.000e-08
Number of eigenvalues below threshold      ... 0
Time for construction of square roots      ...    0.010 sec
Total time needed                          ...    0.023 sec

Time for model grid setup =    0.106 sec

------------------------------
INITIAL GUESS: MODEL POTENTIAL
------------------------------
Loading Hartree-Fock densities                     ... done
Calculating cut-offs                               ... done
Initializing the effective Hamiltonian             ... done
Setting up the integral package (SHARK)            ... done
Starting the Coulomb interaction                   ... done (   0.0 sec)
Reading the grid                                   ... done
Mapping shells                                     ... done
Starting the XC term evaluation                    ... done (   0.0 sec)
  promolecular density results
     # of electrons  =    106.992358287
     EX              =    -90.948482399
     EC              =     -3.678072609
     EX+EC           =    -94.626555008
Transforming the Hamiltonian                       ... done (   0.0 sec)
Diagonalizing the Hamiltonian                      ... done (   0.0 sec)
Back transforming the eigenvectors                 ... done (   0.0 sec)
Now organizing SCF variables                       ... done
                      ------------------
                      INITIAL GUESS DONE (   0.3 sec)
                      ------------------
-------------------
DFT GRID GENERATION
-------------------

General Integration Accuracy     IntAcc      ... 4.388
Radial Grid Type                 RadialGrid  ... OptM3 with GC (2021)
Angular Grid (max. ang.)         AngularGrid ... 4 (Lebedev-302)
Angular grid pruning method      GridPruning ... 4 (adaptive)
Weight generation scheme         WeightScheme... Becke
Basis function cutoff            BFCut       ... 1.0000e-11
Integration weight cutoff        WCut        ... 1.0000e-14
Angular grids for H and He will be reduced by one unit
Partially contracted basis set               ... off
Rotationally invariant grid construction     ... off

Total number of grid points                  ...   125892
Total number of batches                      ...     1982
Average number of points per batch           ...       63
Average number of grid points per atom       ...     4663
Time for grid setup =    0.534 sec

--------------------
COSX GRID GENERATION
--------------------

GRIDX 1
-------
General Integration Accuracy     IntAcc      ... 3.816
Radial Grid Type                 RadialGrid  ... OptM3 with GC (2021)
Angular Grid (max. ang.)         AngularGrid ... 1 (Lebedev-50)
Angular grid pruning method      GridPruning ... 4 (adaptive)
Weight generation scheme         WeightScheme... Becke
Basis function cutoff            BFCut       ... 1.0000e-11
Integration weight cutoff        WCut        ... 1.0000e-14
Angular grids for H and He will be reduced by one unit
Partially contracted basis set               ... on
Rotationally invariant grid construction     ... off

Total number of grid points                  ...    16045
Total number of batches                      ...      267
Average number of points per batch           ...       60
Average number of grid points per atom       ...      594
UseSFitting                                  ... on

GRIDX 2
-------
General Integration Accuracy     IntAcc      ... 4.020
Radial Grid Type                 RadialGrid  ... OptM3 with GC (2021)
Angular Grid (max. ang.)         AngularGrid ... 2 (Lebedev-110)
Angular grid pruning method      GridPruning ... 4 (adaptive)
Weight generation scheme         WeightScheme... Becke
Basis function cutoff            BFCut       ... 1.0000e-11
Integration weight cutoff        WCut        ... 1.0000e-14
Angular grids for H and He will be reduced by one unit
Partially contracted basis set               ... on
Rotationally invariant grid construction     ... off

Total number of grid points                  ...    34705
Total number of batches                      ...      559
Average number of points per batch           ...       62
Average number of grid points per atom       ...     1285
UseSFitting                                  ... on

GRIDX 3
-------
General Integration Accuracy     IntAcc      ... 4.338
Radial Grid Type                 RadialGrid  ... OptM3 with GC (2021)
Angular Grid (max. ang.)         AngularGrid ... 3 (Lebedev-194)
Angular grid pruning method      GridPruning ... 4 (adaptive)
Weight generation scheme         WeightScheme... Becke
Basis function cutoff            BFCut       ... 1.0000e-11
Integration weight cutoff        WCut        ... 1.0000e-14
Angular grids for H and He will be reduced by one unit
Partially contracted basis set               ... on
Rotationally invariant grid construction     ... off

Total number of grid points                  ...    76016
Total number of batches                      ...     1200
Average number of points per batch           ...       63
Average number of grid points per atom       ...     2815
UseSFitting                                  ... on

Time for X-Grid setup             =    0.592 sec

--------------
SCF ITERATIONS
--------------
ITER       Energy         Delta-E        Max-DP      RMS-DP      [F,P]     Damp
               ***  Starting incremental Fock matrix formation  ***
  0   -722.3381409254   0.000000000000 0.06453495  0.00102132  0.1311717 0.7000
  1   -722.5822673519  -0.244126426529 0.03746334  0.00066354  0.0512133 0.7000
                               ***Turning on DIIS***
  2   -722.6662477227  -0.083980370792 0.04525662  0.00098198  0.0184107 0.0000
  3   -722.8120555270  -0.145807804316 0.02552517  0.00047549  0.0247075 0.0000
  4   -722.8398748673  -0.027819340228 0.00747358  0.00016287  0.0071835 0.0000
  5   -722.8420748613  -0.002199994085 0.00327565  0.00005527  0.0029748 0.0000
  6   -722.8422829221  -0.000208060746 0.00228396  0.00003906  0.0006950 0.0000
               *** Restarting incremental Fock matrix formation ***
                                   *** Resetting DIIS ***
  7   -722.8423039360  -0.000021013929 0.00162372  0.00002216  0.0006387 0.0000
  8   -722.8422907016   0.000013234442 0.00074677  0.00000847  0.0011043 0.0000
  9   -722.8423149883  -0.000024286705 0.00036343  0.00000479  0.0002382 0.0000
 10   -722.8423167449  -0.000001756639 0.00019301  0.00000194  0.0000842 0.0000
 11   -722.8423168677  -0.000000122780 0.00009334  0.00000106  0.0000963 0.0000
 12   -722.8423169882  -0.000000120459 0.00003768  0.00000038  0.0000239 0.0000
 13   -722.8423169953  -0.000000007162 0.00002311  0.00000022  0.0000175 0.0000
 14   -722.8423169983  -0.000000002928 0.00001140  0.00000009  0.0000084 0.0000
 15   -722.8423170015  -0.000000003290 0.00000540  0.00000005  0.0000044 0.0000
 16   -722.8423169913   0.000000010215 0.00000175  0.00000002  0.0000013 0.0000
                            ***DIIS convergence achieved***

               *****************************************************
               *                     SUCCESS                       *
               *           SCF CONVERGED AFTER  17 CYCLES          *
               *****************************************************

Old exchange energy                            =    -18.445254724 Eh
New exchange energy                            =    -18.445236049 Eh
Exchange energy change after final integration =      0.000018674 Eh
Total energy after final integration           =   -722.842298299 Eh
Final COS-X integration done in                =     1.846 sec

----------------
TOTAL SCF ENERGY
----------------

Total Energy       :         -722.84229830 Eh          -19669.53892 eV

Components:
Nuclear Repulsion  :          930.69049571 Eh           25325.37591 eV
Electronic Energy  :        -1653.53279401 Eh          -44994.91482 eV
One Electron Energy:        -2833.45509737 Eh          -77102.23300 eV
Two Electron Energy:         1179.92230336 Eh           32107.31818 eV
Max COSX asymmetry :            0.00000198 Eh               0.00005 eV

Virial components:
Potential Energy   :        -1441.23108286 Eh          -39217.89156 eV
Kinetic Energy     :          718.38878456 Eh           19548.35265 eV
Virial Ratio       :            2.00619931


DFT components:
N(Alpha)           :       54.000034217492 electrons
N(Beta)            :       53.000037974215 electrons
N(Total)           :      107.000072191707 electrons
E(X)               :      -73.346052247773 Eh       
E(C)               :       -4.328889585294 Eh       
E(XC)              :      -77.674941833066 Eh       
DFET-embed. en.    :        0.000000000000 Eh       

---------------
SCF CONVERGENCE
---------------

  Last Energy change         ...    1.7480e-08  Tolerance :   1.0000e-08
  Last MAX-Density change    ...    0.0000e+00  Tolerance :   1.0000e-07
  Last RMS-Density change    ...    0.0000e+00  Tolerance :   5.0000e-09
  Last DIIS Error            ...    9.8699e-07  Tolerance :   5.0000e-07

             **** THE GBW FILE WAS UPDATED (opt.gbw) ****
             **** DENSITY opt.scfp WAS UPDATED ****
             **** ENERGY FILE WAS UPDATED (opt.en.tmp) ****
----------------------
UHF SPIN CONTAMINATION
----------------------

Warning: in a DFT calculation there is little theoretical justification to 
         calculate <S**2> as in Hartree-Fock theory. We will do it anyways
         but you should keep in mind that the values have only limited relevance

Expectation value of <S**2>     :     0.754228
Ideal value S*(S+1) for S=0.5   :     0.750000
Deviation                       :     0.004228

             **** THE GBW FILE WAS UPDATED (opt.gbw) ****
             **** DENSITY opt.scfp WAS UPDATED ****
----------------
ORBITAL ENERGIES
----------------
                 SPIN UP ORBITALS
  NO   OCC          E(Eh)            E(eV) 
   0   1.0000     -19.209095      -522.7060 
   1   1.0000     -19.156021      -521.2618 
   2   1.0000     -19.120073      -520.2836 
   3   1.0000     -19.105521      -519.8876 
   4   1.0000     -14.360838      -390.7783 
   5   1.0000     -14.352257      -390.5448 
   6   1.0000     -10.346104      -281.5318 
   7   1.0000     -10.298015      -280.2232 
   8   1.0000     -10.288986      -279.9776 
   9   1.0000     -10.244657      -278.7713 
  10   1.0000     -10.219194      -278.0784 
  11   1.0000     -10.218244      -278.0526 
  12   1.0000     -10.211514      -277.8694 
  13   1.0000     -10.188387      -277.2401 
  14   1.0000      -1.134560       -30.8729 
  15   1.0000      -1.052469       -28.6391 
  16   1.0000      -1.040948       -28.3256 
  17   1.0000      -1.035818       -28.1860 
  18   1.0000      -0.928800       -25.2739 
  19   1.0000      -0.924154       -25.1475 
  20   1.0000      -0.813229       -22.1291 
  21   1.0000      -0.762248       -20.7418 
  22   1.0000      -0.726540       -19.7702 
  23   1.0000      -0.699471       -19.0336 
  24   1.0000      -0.658171       -17.9097 
  25   1.0000      -0.609140       -16.5755 
  26   1.0000      -0.591463       -16.0945 
  27   1.0000      -0.560527       -15.2527 
  28   1.0000      -0.537080       -14.6147 
  29   1.0000      -0.515637       -14.0312 
  30   1.0000      -0.510401       -13.8887 
  31   1.0000      -0.495392       -13.4803 
  32   1.0000      -0.486777       -13.2459 
  33   1.0000      -0.474333       -12.9073 
  34   1.0000      -0.459479       -12.5031 
  35   1.0000      -0.451958       -12.2984 
  36   1.0000      -0.449237       -12.2243 
  37   1.0000      -0.438792       -11.9401 
  38   1.0000      -0.418933       -11.3997 
  39   1.0000      -0.411582       -11.1997 
  40   1.0000      -0.402433       -10.9508 
  41   1.0000      -0.401207       -10.9174 
  42   1.0000      -0.397513       -10.8169 
  43   1.0000      -0.393321       -10.7028 
  44   1.0000      -0.375871       -10.2280 
  45   1.0000      -0.373808       -10.1718 
  46   1.0000      -0.350589        -9.5400 
  47   1.0000      -0.344560        -9.3760 
  48   1.0000      -0.302216        -8.2237 
  49   1.0000      -0.284422        -7.7395 
  50   1.0000      -0.267969        -7.2918 
  51   1.0000      -0.257671        -7.0116 
  52   1.0000      -0.253897        -6.9089 
  53   1.0000      -0.204715        -5.5706 
  54   0.0000      -0.010974        -0.2986 
  55   0.0000       0.004035         0.1098 
  56   0.0000       0.012610         0.3431 
  57   0.0000       0.023075         0.6279 
  58   0.0000       0.029051         0.7905 
  59   0.0000       0.029325         0.7980 
  60   0.0000       0.044476         1.2103 
  61   0.0000       0.056023         1.5245 
  62   0.0000       0.063681         1.7329 
  63   0.0000       0.075611         2.0575 
  64   0.0000       0.094024         2.5585 
  65   0.0000       0.099626         2.7110 
  66   0.0000       0.123688         3.3657 
  67   0.0000       0.129189         3.5154 
  68   0.0000       0.149751         4.0749 
  69   0.0000       0.155470         4.2306 
  70   0.0000       0.167509         4.5582 
  71   0.0000       0.178278         4.8512 
  72   0.0000       0.181694         4.9442 
  73   0.0000       0.187554         5.1036 
  74   0.0000       0.194591         5.2951 
  75   0.0000       0.197856         5.3839 
  76   0.0000       0.201255         5.4764 
  77   0.0000       0.203317         5.5325 
  78   0.0000       0.217737         5.9249 
  79   0.0000       0.232674         6.3314 
  80   0.0000       0.235782         6.4159 
  81   0.0000       0.241743         6.5782 
  82   0.0000       0.246696         6.7129 
  83   0.0000       0.249775         6.7967 
  84   0.0000       0.265932         7.2364 
  85   0.0000       0.269534         7.3344 
  86   0.0000       0.275877         7.5070 
  87   0.0000       0.280955         7.6452 
  88   0.0000       0.288719         7.8564 
  89   0.0000       0.292407         7.9568 
  90   0.0000       0.296558         8.0698 
  91   0.0000       0.301306         8.1989 
  92   0.0000       0.309586         8.4243 
  93   0.0000       0.317191         8.6312 
  94   0.0000       0.327620         8.9150 
  95   0.0000       0.333645         9.0790 
  96   0.0000       0.342925         9.3315 
  97   0.0000       0.357224         9.7206 
  98   0.0000       0.366985         9.9862 
  99   0.0000       0.371527        10.1098 
 100   0.0000       0.379460        10.3256 
 101   0.0000       0.388853        10.5812 
 102   0.0000       0.398124        10.8335 
 103   0.0000       0.407000        11.0750 
 104   0.0000       0.427388        11.6298 
 105   0.0000       0.432162        11.7597 
 106   0.0000       0.446774        12.1573 
 107   0.0000       0.450174        12.2499 
 108   0.0000       0.457571        12.4511 
 109   0.0000       0.464170        12.6307 
 110   0.0000       0.480892        13.0857 
 111   0.0000       0.482114        13.1190 
 112   0.0000       0.509287        13.8584 
 113   0.0000       0.517096        14.0709 
 114   0.0000       0.528114        14.3707 
 115   0.0000       0.539961        14.6931 
 116   0.0000       0.562185        15.2978 
 117   0.0000       0.567217        15.4348 
 118   0.0000       0.592478        16.1221 
 119   0.0000       0.600334        16.3359 
 120   0.0000       0.616867        16.7858 
 121   0.0000       0.642518        17.4838 
 122   0.0000       0.666032        18.1237 
 123   0.0000       0.685008        18.6400 
 124   0.0000       0.693910        18.8823 
 125   0.0000       0.719784        19.5863 
 126   0.0000       0.728147        19.8139 
 127   0.0000       0.745657        20.2904 
 128   0.0000       0.773487        21.0477 
 129   0.0000       0.789930        21.4951 
 130   0.0000       0.794636        21.6231 
 131   0.0000       0.806717        21.9519 
 132   0.0000       0.817046        22.2329 
 133   0.0000       0.817689        22.2504 
 134   0.0000       0.823500        22.4086 
 135   0.0000       0.835196        22.7268 
 136   0.0000       0.850632        23.1469 
 137   0.0000       0.855218        23.2717 
 138   0.0000       0.864224        23.5167 
 139   0.0000       0.866534        23.5796 
 140   0.0000       0.872663        23.7464 
 141   0.0000       0.890485        24.2313 
 142   0.0000       0.891448        24.2575 
 143   0.0000       0.904726        24.6188 
 144   0.0000       0.912887        24.8409 
 145   0.0000       0.916482        24.9387 
 146   0.0000       0.920178        25.0393 
 147   0.0000       0.931189        25.3389 
 148   0.0000       0.942394        25.6438 
 149   0.0000       0.946683        25.7606 
 150   0.0000       0.962021        26.1779 
 151   0.0000       0.964766        26.2526 
 152   0.0000       0.979500        26.6535 
 153   0.0000       0.989014        26.9124 
 154   0.0000       1.008695        27.4480 
 155   0.0000       1.014465        27.6050 
 156   0.0000       1.020968        27.7820 
 157   0.0000       1.036268        28.1983 
 158   0.0000       1.061318        28.8799 
 159   0.0000       1.070481        29.1293 
 160   0.0000       1.082014        29.4431 
 161   0.0000       1.098154        29.8823 
 162   0.0000       1.109468        30.1902 
 163   0.0000       1.149016        31.2663 
 164   0.0000       1.154529        31.4163 
 165   0.0000       1.163565        31.6622 
 166   0.0000       1.173410        31.9301 
 167   0.0000       1.199368        32.6365 
 168   0.0000       1.207647        32.8618 
 169   0.0000       1.228335        33.4247 
 170   0.0000       1.279824        34.8258 
 171   0.0000       1.290478        35.1157 
 172   0.0000       1.317406        35.8484 
 173   0.0000       1.328767        36.1576 
 174   0.0000       1.341752        36.5109 
 175   0.0000       1.376157        37.4471 
 176   0.0000       1.378394        37.5080 
 177   0.0000       1.400324        38.1048 
 178   0.0000       1.406961        38.2854 
 179   0.0000       1.410567        38.3835 
 180   0.0000       1.414836        38.4996 
 181   0.0000       1.420268        38.6475 
 182   0.0000       1.440373        39.1945 
 183   0.0000       1.476994        40.1910 
 184   0.0000       1.483603        40.3709 
 185   0.0000       1.499254        40.7968 
 186   0.0000       1.503846        40.9217 
 187   0.0000       1.517106        41.2826 
 188   0.0000       1.519854        41.3573 
 189   0.0000       1.539809        41.9003 
 190   0.0000       1.560968        42.4761 
 191   0.0000       1.571504        42.7628 
 192   0.0000       1.571845        42.7721 
 193   0.0000       1.580032        42.9949 
 194   0.0000       1.603521        43.6340 
 195   0.0000       1.610754        43.8308 
 196   0.0000       1.622940        44.1624 
 197   0.0000       1.644206        44.7411 
 198   0.0000       1.650754        44.9193 
 199   0.0000       1.666282        45.3418 
 200   0.0000       1.680427        45.7268 
 201   0.0000       1.711641        46.5761 
 202   0.0000       1.720645        46.8211 
 203   0.0000       1.721230        46.8370 
 204   0.0000       1.740031        47.3487 
 205   0.0000       1.759394        47.8755 
 206   0.0000       1.776594        48.3436 
 207   0.0000       1.782696        48.5096 
 208   0.0000       1.807396        49.1818 
 209   0.0000       1.808662        49.2162 
 210   0.0000       1.835339        49.9421 
 211   0.0000       1.847213        50.2652 
 212   0.0000       1.850170        50.3457 
 213   0.0000       1.881008        51.1848 
 214   0.0000       1.892215        51.4898 
 215   0.0000       1.899936        51.6999 
 216   0.0000       1.925077        52.3840 
 217   0.0000       1.947569        52.9960 
 218   0.0000       1.981412        53.9170 
 219   0.0000       2.002863        54.5007 
 220   0.0000       2.024126        55.0793 
 221   0.0000       2.055737        55.9394 
 222   0.0000       2.064346        56.1737 
 223   0.0000       2.079747        56.5928 
 224   0.0000       2.103769        57.2465 
 225   0.0000       2.117446        57.6186 
 226   0.0000       2.130275        57.9677 
 227   0.0000       2.159640        58.7668 
 228   0.0000       2.187402        59.5222 
 229   0.0000       2.200629        59.8821 
 230   0.0000       2.206079        60.0305 
 231   0.0000       2.221312        60.4450 
 232   0.0000       2.270045        61.7711 
 233   0.0000       2.281422        62.0806 
 234   0.0000       2.294586        62.4389 
 235   0.0000       2.304212        62.7008 
 236   0.0000       2.376154        64.6584 
 237   0.0000       2.377099        64.6842 
 238   0.0000       2.391773        65.0834 
 239   0.0000       2.395204        65.1768 
 240   0.0000       2.427909        66.0667 
 241   0.0000       2.451924        66.7203 
 242   0.0000       2.470912        67.2369 
 243   0.0000       2.477701        67.4217 
 244   0.0000       2.490187        67.7614 
 245   0.0000       2.498491        67.9874 
 246   0.0000       2.504717        68.1568 
 247   0.0000       2.517840        68.5139 
 248   0.0000       2.596640        70.6582 
 249   0.0000       2.615084        71.1601 
 250   0.0000       2.635406        71.7130 
 251   0.0000       2.680678        72.9450 
 252   0.0000       2.693461        73.2928 
 253   0.0000       2.706619        73.6509 
 254   0.0000       2.715044        73.8801 
 255   0.0000       2.751186        74.8636 
 256   0.0000       2.776127        75.5422 
 257   0.0000       2.785267        75.7910 
 258   0.0000       2.824212        76.8507 
 259   0.0000       2.843441        77.3740 
 260   0.0000       2.894491        78.7631 
 261   0.0000       2.985963        81.2522 
 262   0.0000       3.028334        82.4052 
 263   0.0000       3.037316        82.6496 
 264   0.0000       3.099241        84.3346 
 265   0.0000       3.102993        84.4367 
 266   0.0000       3.120451        84.9118 
 267   0.0000       3.136028        85.3357 
 268   0.0000       3.359144        91.4070 
 269   0.0000       3.385736        92.1306 
 270   0.0000       3.435846        93.4941 
 271   0.0000       3.440063        93.6089 
 272   0.0000       3.450683        93.8979 
 273   0.0000       3.456186        94.0476 
 274   0.0000       3.601265        97.9954 
 275   0.0000       4.910005       133.6080 
 276   0.0000       4.983784       135.6157 
 277   0.0000       4.985363       135.6586 
 278   0.0000       4.995180       135.9258 
 279   0.0000       5.008491       136.2880 
 280   0.0000       5.019271       136.5813 
 281   0.0000       5.034580       136.9979 
 282   0.0000       5.111857       139.1007 
 283   0.0000       5.125785       139.4797 
 284   0.0000       5.179871       140.9515 
 285   0.0000       5.184557       141.0790 
 286   0.0000       5.255465       143.0085 
 287   0.0000       5.262335       143.1954 
 288   0.0000       5.288825       143.9162 
 289   0.0000       5.348106       145.5294 
 290   0.0000       5.358586       145.8145 
 291   0.0000       5.437258       147.9553 
 292   0.0000       5.610190       152.6610 
 293   0.0000       5.698715       155.0699 
 294   0.0000       5.726730       155.8322 
 295   0.0000       5.787675       157.4906 
 296   0.0000       7.306418       198.8177 
 297   0.0000       7.327906       199.4025 
 298   0.0000       8.888639       241.8722 
 299   0.0000       9.075940       246.9689 
 300   0.0000       9.107337       247.8232 
 301   0.0000       9.125266       248.3111 
 302   0.0000      29.519800       803.2746 
 303   0.0000      29.601150       805.4882 
 304   0.0000      29.637684       806.4824 
 305   0.0000      29.850076       812.2619 
 306   0.0000      29.941439       814.7480 
 307   0.0000      30.074519       818.3693 
 308   0.0000      30.147600       820.3579 
 309   0.0000      30.169012       820.9405 
 310   0.0000      36.529052       994.0060 
 311   0.0000      36.604648       996.0631 
 312   0.0000      36.615610       996.3614 
 313   0.0000      36.618898       996.4509 
 314   0.0000      36.625628       996.6340 
 315   0.0000      36.637358       996.9532 
 316   0.0000      36.714259       999.0458 
 317   0.0000      36.742545       999.8155 
 318   0.0000      36.774172      1000.6761 
 319   0.0000      36.821452      1001.9626 
 320   0.0000      36.891180      1003.8600 
 321   0.0000      36.904486      1004.2221 
 322   0.0000      36.918668      1004.6080 
 323   0.0000      41.243939      1122.3046 
 324   0.0000      41.275618      1123.1667 
 325   0.0000      53.436659      1454.0854 
 326   0.0000      53.615073      1458.9403 
 327   0.0000      53.645386      1459.7652 
 328   0.0000      53.662518      1460.2314 

                 SPIN DOWN ORBITALS
  NO   OCC          E(Eh)            E(eV) 
   0   1.0000     -19.209049      -522.7048 
   1   1.0000     -19.155956      -521.2601 
   2   1.0000     -19.119576      -520.2701 
   3   1.0000     -19.104925      -519.8714 
   4   1.0000     -14.360547      -390.7703 
   5   1.0000     -14.351396      -390.5213 
   6   1.0000     -10.345099      -281.5045 
   7   1.0000     -10.296990      -280.1953 
   8   1.0000     -10.288993      -279.9777 
   9   1.0000     -10.245611      -278.7973 
  10   1.0000     -10.220095      -278.1029 
  11   1.0000     -10.218254      -278.0528 
  12   1.0000     -10.197474      -277.4874 
  13   1.0000     -10.188278      -277.2371 
  14   1.0000      -1.134148       -30.8617 
  15   1.0000      -1.051331       -28.6082 
  16   1.0000      -1.040708       -28.3191 
  17   1.0000      -1.034845       -28.1596 
  18   1.0000      -0.927897       -25.2494 
  19   1.0000      -0.921978       -25.0883 
  20   1.0000      -0.801168       -21.8009 
  21   1.0000      -0.760632       -20.6978 
  22   1.0000      -0.725324       -19.7371 
  23   1.0000      -0.693930       -18.8828 
  24   1.0000      -0.651869       -17.7383 
  25   1.0000      -0.602750       -16.4017 
  26   1.0000      -0.589567       -16.0429 
  27   1.0000      -0.552949       -15.0465 
  28   1.0000      -0.532239       -14.4830 
  29   1.0000      -0.513584       -13.9753 
  30   1.0000      -0.508632       -13.8406 
  31   1.0000      -0.492141       -13.3918 
  32   1.0000      -0.485444       -13.2096 
  33   1.0000      -0.473433       -12.8828 
  34   1.0000      -0.457391       -12.4463 
  35   1.0000      -0.450911       -12.2699 
  36   1.0000      -0.447860       -12.1869 
  37   1.0000      -0.436481       -11.8772 
  38   1.0000      -0.415381       -11.3031 
  39   1.0000      -0.409594       -11.1456 
  40   1.0000      -0.401212       -10.9175 
  41   1.0000      -0.398125       -10.8335 
  42   1.0000      -0.396915       -10.8006 
  43   1.0000      -0.392032       -10.6677 
  44   1.0000      -0.374403       -10.1880 
  45   1.0000      -0.370322       -10.0770 
  46   1.0000      -0.349171        -9.5014 
  47   1.0000      -0.344459        -9.3732 
  48   1.0000      -0.301398        -8.2015 
  49   1.0000      -0.274734        -7.4759 
  50   1.0000      -0.266655        -7.2560 
  51   1.0000      -0.254843        -6.9346 
  52   1.0000      -0.249690        -6.7944 
  53   0.0000      -0.067282        -1.8308 
  54   0.0000      -0.009190        -0.2501 
  55   0.0000       0.004920         0.1339 
  56   0.0000       0.013706         0.3730 
  57   0.0000       0.023556         0.6410 
  58   0.0000       0.029380         0.7995 
  59   0.0000       0.030041         0.8175 
  60   0.0000       0.045250         1.2313 
  61   0.0000       0.056980         1.5505 
  62   0.0000       0.065506         1.7825 
  63   0.0000       0.075994         2.0679 
  64   0.0000       0.095616         2.6019 
  65   0.0000       0.101186         2.7534 
  66   0.0000       0.123915         3.3719 
  67   0.0000       0.130355         3.5471 
  68   0.0000       0.150710         4.1010 
  69   0.0000       0.156874         4.2688 
  70   0.0000       0.168153         4.5757 
  71   0.0000       0.180618         4.9149 
  72   0.0000       0.182579         4.9682 
  73   0.0000       0.188392         5.1264 
  74   0.0000       0.195561         5.3215 
  75   0.0000       0.199810         5.4371 
  76   0.0000       0.204649         5.5688 
  77   0.0000       0.205160         5.5827 
  78   0.0000       0.219189         5.9644 
  79   0.0000       0.236841         6.4448 
  80   0.0000       0.238001         6.4763 
  81   0.0000       0.245262         6.6739 
  82   0.0000       0.249687         6.7943 
  83   0.0000       0.256799         6.9879 
  84   0.0000       0.266893         7.2625 
  85   0.0000       0.272080         7.4037 
  86   0.0000       0.277263         7.5447 
  87   0.0000       0.281918         7.6714 
  88   0.0000       0.291040         7.9196 
  89   0.0000       0.293447         7.9851 
  90   0.0000       0.298741         8.1292 
  91   0.0000       0.302554         8.2329 
  92   0.0000       0.311442         8.4748 
  93   0.0000       0.319311         8.6889 
  94   0.0000       0.329251         8.9594 
  95   0.0000       0.335091         9.1183 
  96   0.0000       0.344991         9.3877 
  97   0.0000       0.359157         9.7732 
  98   0.0000       0.368148        10.0178 
  99   0.0000       0.375027        10.2050 
 100   0.0000       0.381628        10.3846 
 101   0.0000       0.389844        10.6082 
 102   0.0000       0.402366        10.9489 
 103   0.0000       0.409031        11.1303 
 104   0.0000       0.428995        11.6736 
 105   0.0000       0.437436        11.9032 
 106   0.0000       0.448124        12.1941 
 107   0.0000       0.452960        12.3257 
 108   0.0000       0.459921        12.5151 
 109   0.0000       0.470384        12.7998 
 110   0.0000       0.483616        13.1599 
 111   0.0000       0.488644        13.2967 
 112   0.0000       0.511444        13.9171 
 113   0.0000       0.532717        14.4960 
 114   0.0000       0.534408        14.5420 
 115   0.0000       0.541099        14.7241 
 116   0.0000       0.564627        15.3643 
 117   0.0000       0.569555        15.4984 
 118   0.0000       0.595574        16.2064 
 119   0.0000       0.602290        16.3891 
 120   0.0000       0.619862        16.8673 
 121   0.0000       0.643660        17.5149 
 122   0.0000       0.667912        18.1748 
 123   0.0000       0.687014        18.6946 
 124   0.0000       0.696036        18.9401 
 125   0.0000       0.722627        19.6637 
 126   0.0000       0.731054        19.8930 
 127   0.0000       0.747432        20.3387 
 128   0.0000       0.775332        21.0979 
 129   0.0000       0.791061        21.5259 
 130   0.0000       0.795669        21.6513 
 131   0.0000       0.808704        22.0060 
 132   0.0000       0.817611        22.2483 
 133   0.0000       0.820022        22.3139 
 134   0.0000       0.824103        22.4250 
 135   0.0000       0.835867        22.7451 
 136   0.0000       0.851290        23.1648 
 137   0.0000       0.856202        23.2984 
 138   0.0000       0.865185        23.5429 
 139   0.0000       0.867144        23.5962 
 140   0.0000       0.873281        23.7632 
 141   0.0000       0.891498        24.2589 
 142   0.0000       0.893138        24.3035 
 143   0.0000       0.906505        24.6673 
 144   0.0000       0.913752        24.8645 
 145   0.0000       0.917535        24.9674 
 146   0.0000       0.923957        25.1421 
 147   0.0000       0.931840        25.3566 
 148   0.0000       0.944417        25.6989 
 149   0.0000       0.947360        25.7790 
 150   0.0000       0.963553        26.2196 
 151   0.0000       0.966232        26.2925 
 152   0.0000       0.980997        26.6943 
 153   0.0000       0.991605        26.9830 
 154   0.0000       1.010397        27.4943 
 155   0.0000       1.017367        27.6840 
 156   0.0000       1.021903        27.8074 
 157   0.0000       1.040870        28.3235 
 158   0.0000       1.065386        28.9906 
 159   0.0000       1.075098        29.2549 
 160   0.0000       1.083678        29.4884 
 161   0.0000       1.103136        30.0178 
 162   0.0000       1.116429        30.3796 
 163   0.0000       1.151723        31.3400 
 164   0.0000       1.157340        31.4928 
 165   0.0000       1.166610        31.7451 
 166   0.0000       1.174252        31.9530 
 167   0.0000       1.202088        32.7105 
 168   0.0000       1.209339        32.9078 
 169   0.0000       1.229283        33.4505 
 170   0.0000       1.289477        35.0884 
 171   0.0000       1.299290        35.3555 
 172   0.0000       1.319212        35.8976 
 173   0.0000       1.331186        36.2234 
 174   0.0000       1.346069        36.6284 
 175   0.0000       1.377617        37.4869 
 176   0.0000       1.383622        37.6503 
 177   0.0000       1.402745        38.1706 
 178   0.0000       1.407406        38.2975 
 179   0.0000       1.410758        38.3887 
 180   0.0000       1.418724        38.6055 
 181   0.0000       1.423718        38.7413 
 182   0.0000       1.445950        39.3463 
 183   0.0000       1.478867        40.2420 
 184   0.0000       1.484322        40.3905 
 185   0.0000       1.500054        40.8185 
 186   0.0000       1.504727        40.9457 
 187   0.0000       1.518633        41.3241 
 188   0.0000       1.521097        41.3912 
 189   0.0000       1.541447        41.9449 
 190   0.0000       1.562435        42.5160 
 191   0.0000       1.573141        42.8073 
 192   0.0000       1.576947        42.9109 
 193   0.0000       1.584485        43.1160 
 194   0.0000       1.605602        43.6907 
 195   0.0000       1.612858        43.8881 
 196   0.0000       1.627354        44.2826 
 197   0.0000       1.646608        44.8065 
 198   0.0000       1.653089        44.9828 
 199   0.0000       1.668795        45.4102 
 200   0.0000       1.682500        45.7832 
 201   0.0000       1.714221        46.6463 
 202   0.0000       1.722726        46.8778 
 203   0.0000       1.724263        46.9196 
 204   0.0000       1.744378        47.4669 
 205   0.0000       1.761550        47.9342 
 206   0.0000       1.779741        48.4292 
 207   0.0000       1.787310        48.6352 
 208   0.0000       1.810634        49.2699 
 209   0.0000       1.815685        49.4073 
 210   0.0000       1.839360        50.0515 
 211   0.0000       1.850214        50.3469 
 212   0.0000       1.852365        50.4054 
 213   0.0000       1.885670        51.3117 
 214   0.0000       1.895844        51.5885 
 215   0.0000       1.902468        51.7688 
 216   0.0000       1.929329        52.4997 
 217   0.0000       1.954907        53.1957 
 218   0.0000       1.982689        53.9517 
 219   0.0000       2.003797        54.5261 
 220   0.0000       2.026913        55.1551 
 221   0.0000       2.057144        55.9777 
 222   0.0000       2.066768        56.2396 
 223   0.0000       2.083130        56.6849 
 224   0.0000       2.106797        57.3289 
 225   0.0000       2.119508        57.6747 
 226   0.0000       2.132762        58.0354 
 227   0.0000       2.161085        58.8061 
 228   0.0000       2.190041        59.5941 
 229   0.0000       2.201920        59.9173 
 230   0.0000       2.207493        60.0689 
 231   0.0000       2.224078        60.5202 
 232   0.0000       2.270933        61.7952 
 233   0.0000       2.285250        62.1848 
 234   0.0000       2.298211        62.5375 
 235   0.0000       2.306930        62.7747 
 236   0.0000       2.376817        64.6765 
 237   0.0000       2.378343        64.7180 
 238   0.0000       2.392071        65.0916 
 239   0.0000       2.395564        65.1866 
 240   0.0000       2.428487        66.0825 
 241   0.0000       2.454121        66.7800 
 242   0.0000       2.474547        67.3359 
 243   0.0000       2.478813        67.4519 
 244   0.0000       2.490863        67.7798 
 245   0.0000       2.499322        68.0100 
 246   0.0000       2.505606        68.1810 
 247   0.0000       2.519011        68.5458 
 248   0.0000       2.599129        70.7259 
 249   0.0000       2.616185        71.1900 
 250   0.0000       2.636794        71.7508 
 251   0.0000       2.682365        72.9909 
 252   0.0000       2.694172        73.3122 
 253   0.0000       2.708072        73.6904 
 254   0.0000       2.717458        73.9458 
 255   0.0000       2.752696        74.9047 
 256   0.0000       2.777549        75.5809 
 257   0.0000       2.786672        75.8292 
 258   0.0000       2.824321        76.8537 
 259   0.0000       2.844312        77.3977 
 260   0.0000       2.894754        78.7703 
 261   0.0000       2.987495        81.2939 
 262   0.0000       3.029152        82.4274 
 263   0.0000       3.038620        82.6850 
 264   0.0000       3.099523        84.3423 
 265   0.0000       3.103484        84.4501 
 266   0.0000       3.120953        84.9255 
 267   0.0000       3.136577        85.3506 
 268   0.0000       3.359434        91.4148 
 269   0.0000       3.386878        92.1616 
 270   0.0000       3.436778        93.5195 
 271   0.0000       3.440633        93.6244 
 272   0.0000       3.451816        93.9287 
 273   0.0000       3.457306        94.0781 
 274   0.0000       3.601631        98.0054 
 275   0.0000       4.911574       133.6507 
 276   0.0000       4.985367       135.6587 
 277   0.0000       4.985711       135.6681 
 278   0.0000       4.995261       135.9280 
 279   0.0000       5.008937       136.3001 
 280   0.0000       5.020197       136.6065 
 281   0.0000       5.039805       137.1401 
 282   0.0000       5.113018       139.1323 
 283   0.0000       5.127929       139.5381 
 284   0.0000       5.179579       140.9435 
 285   0.0000       5.184042       141.0650 
 286   0.0000       5.255998       143.0230 
 287   0.0000       5.263167       143.2181 
 288   0.0000       5.290278       143.9558 
 289   0.0000       5.348419       145.5379 
 290   0.0000       5.361516       145.8943 
 291   0.0000       5.449283       148.2825 
 292   0.0000       5.611167       152.6876 
 293   0.0000       5.699128       155.0812 
 294   0.0000       5.726658       155.8303 
 295   0.0000       5.799440       157.8108 
 296   0.0000       7.308027       198.8615 
 297   0.0000       7.328752       199.4255 
 298   0.0000       8.888786       241.8762 
 299   0.0000       9.077033       246.9986 
 300   0.0000       9.107907       247.8388 
 301   0.0000       9.126020       248.3316 
 302   0.0000      29.522579       803.3502 
 303   0.0000      29.602220       805.5174 
 304   0.0000      29.638649       806.5087 
 305   0.0000      29.857216       812.4562 
 306   0.0000      29.944617       814.8344 
 307   0.0000      30.074688       818.3739 
 308   0.0000      30.146768       820.3353 
 309   0.0000      30.175798       821.1252 
 310   0.0000      36.529515       994.0186 
 311   0.0000      36.604700       996.0645 
 312   0.0000      36.615786       996.3662 
 313   0.0000      36.620360       996.4907 
 314   0.0000      36.628258       996.7056 
 315   0.0000      36.640211       997.0308 
 316   0.0000      36.714244       999.0454 
 317   0.0000      36.742585       999.8166 
 318   0.0000      36.767797      1000.5026 
 319   0.0000      36.823589      1002.0208 
 320   0.0000      36.891795      1003.8768 
 321   0.0000      36.905035      1004.2371 
 322   0.0000      36.919888      1004.6412 
 323   0.0000      41.244988      1122.3332 
 324   0.0000      41.276024      1123.1777 
 325   0.0000      53.436724      1454.0872 
 326   0.0000      53.615677      1458.9567 
 327   0.0000      53.645700      1459.7737 
 328   0.0000      53.662918      1460.2422 

                    ********************************
                    * MULLIKEN POPULATION ANALYSIS *
                    ********************************

--------------------------------------------
MULLIKEN ATOMIC CHARGES AND SPIN POPULATIONS
--------------------------------------------
   0 N :   -0.130568    0.024360
   1 C :   -0.066729   -0.057124
   2 C :    0.016104    0.030975
   3 O :   -0.326002    0.015522
   4 C :   -0.130990    0.990716
   5 H :    0.125777   -0.049305
   6 C :   -0.274816   -0.046304
   7 H :    0.192106    0.031416
   8 H :    0.187158    0.001000
   9 C :    0.120551    0.024845
  10 O :   -0.246725    0.000523
  11 O :   -0.261752   -0.000515
  12 H :    0.248261   -0.000069
  13 H :    0.174434    0.004400
  14 C :    0.178858    0.000164
  15 N :   -0.065482    0.009307
  16 H :    0.290505    0.000905
  17 H :    0.254107    0.000475
  18 O :   -0.300277    0.014328
  19 C :   -0.560778    0.003826
  20 H :    0.183708    0.000488
  21 H :    0.185789   -0.000342
  22 H :    0.149594    0.000071
  23 C :   -0.443842   -0.000783
  24 H :    0.178518    0.000784
[...]

----------------------------------------------------
LOEWDIN REDUCED ORBITAL CHARGES AND SPIN POPULATIONS
----------------------------------------------------
CHARGE
  0 N s       :     3.075946  s :     3.075946
      pz      :     1.141249  p :     3.796469
      px      :     1.125509
      py      :     1.529711
      dz2     :     0.020225  d :     0.080092
      dxz     :     0.028576
      dyz     :     0.006244
      dx2y2   :     0.014515
      dxy     :     0.010533
  1 C s       :     2.841339  s :     2.841339
      pz      :     1.014547  p :     2.943504
      px      :     0.896071
      py      :     1.032887
      dz2     :     0.066179  d :     0.267793
      dxz     :     0.045271
      dyz     :     0.036114
      dx2y2   :     0.063101
      dxy     :     0.057128
  2 C s       :     2.844160  s :     2.844160
      pz      :     0.994015  p :     2.768280
      px      :     0.941743
      py      :     0.832522
      dz2     :     0.146301  d :     0.482651
      dxz     :     0.101576
      dyz     :     0.056854
      dx2y2   :     0.092330
      dxy     :     0.085590
  3 O s       :     3.584000  s :     3.584000
      pz      :     1.552208  p :     4.577439
      px      :     1.570893
      py      :     1.454338
      dz2     :     0.006912  d :     0.031990
      dxz     :     0.010436
      dyz     :     0.007063
      dx2y2   :     0.003202
      dxy     :     0.004376
  4 C s       :     2.925302  s :     2.925302
      pz      :     0.977054  p :     2.948328
      px      :     0.973881
      py      :     0.997393
      dz2     :     0.022859  d :     0.147115
      dxz     :     0.016283
      dyz     :     0.040178
      dx2y2   :     0.036173
      dxy     :     0.031621
  5 H s       :     0.862022  s :     0.862022
      pz      :     0.037584  p :     0.091385
      px      :     0.034658
      py      :     0.019143
  6 C s       :     2.849828  s :     2.849828
      pz      :     1.026606  p :     3.025888
      px      :     0.991955
      py      :     1.007327
      dz2     :     0.023934  d :     0.169614
      dxz     :     0.025073
      dyz     :     0.030936
      dx2y2   :     0.035253
      dxy     :     0.054419
  7 H s       :     0.840514  s :     0.840514
      pz      :     0.042237  p :     0.082810
      px      :     0.021943
      py      :     0.018630
  8 H s       :     0.837573  s :     0.837573
      pz      :     0.031894  p :     0.082808
      px      :     0.033871
      py      :     0.017043
  9 C s       :     2.853412  s :     2.853412
      pz      :     0.795954  p :     2.702477
      px      :     1.002127
      py      :     0.904395
      dz2     :     0.057218  d :     0.522037
      dxz     :     0.068734
      dyz     :     0.090862
      dx2y2   :     0.154867
      dxy     :     0.150356
 10 O s       :     3.460252  s :     3.460252
      pz      :     1.674466  p :     4.487646
      px      :     1.506878
      py      :     1.306301
      dz2     :     0.003268  d :     0.025571
      dxz     :     0.001602
      dyz     :     0.004916
      dx2y2   :     0.008792
      dxy     :     0.006993
 11 O s       :     3.584554  s :     3.584554
      pz      :     1.405250  p :     4.544935
      px      :     1.467880
      py      :     1.671804
      dz2     :     0.003853  d :     0.032601
      dxz     :     0.009812
      dyz     :     0.002431
      dx2y2   :     0.008639
      dxy     :     0.007865
 12 H s       :     0.756001  s :     0.756001
      pz      :     0.078485  p :     0.153080
      px      :     0.026437
      py      :     0.048159
 13 H s       :     0.843921  s :     0.843921
      pz      :     0.020712  p :     0.080121
      px      :     0.014682
      py      :     0.044727
 14 C s       :     2.845394  s :     2.845394
      pz      :     0.972885  p :     2.769246
      px      :     1.009527
      py      :     0.786834
      dz2     :     0.136274  d :     0.485208
      dxz     :     0.172486
      dyz     :     0.105300
      dx2y2   :     0.037565
      dxy     :     0.033583
 15 N s       :     3.068911  s :     3.068911
      pz      :     1.167020  p :     3.797002
      px      :     1.233378
      py      :     1.396604
      dz2     :     0.019568  d :     0.081415
      dxz     :     0.022665
      dyz     :     0.013064
      dx2y2   :     0.014434
      dxy     :     0.011684
 16 H s       :     0.703353  s :     0.703353
      pz      :     0.053318  p :     0.192276
      px      :     0.091271
      py      :     0.047686
 17 H s       :     0.750285  s :     0.750285
      pz      :     0.062402  p :     0.159200
      px      :     0.035824
      py      :     0.060974
 18 O s       :     3.582152  s :     3.582152
      pz      :     1.459344  p :     4.558522
      px      :     1.681107
      py      :     1.418070
      dz2     :     0.014883  d :     0.032123
      dxz     :     0.009768
      dyz     :     0.005808
      dx2y2   :     0.000926
      dxy     :     0.000737
 19 C s       :     2.871579  s :     2.871579
      pz      :     1.026520  p :     3.064569
      px      :     0.993627
      py      :     1.044422
      dz2     :     0.026119  d :     0.105502
      dxz     :     0.018375
      dyz     :     0.010964
      dx2y2   :     0.030712
      dxy     :     0.019331
 20 H s       :     0.864004  s :     0.864004
      pz      :     0.025780  p :     0.081620
      px      :     0.023532
      py      :     0.032308
 21 H s       :     0.862598  s :     0.862598
      pz      :     0.019698  p :     0.081621
      px      :     0.020312
      py      :     0.041612
 22 H s       :     0.883764  s :     0.883764
      pz      :     0.045508  p :     0.081580
      px      :     0.018249
      py      :     0.017823
 23 C s       :     2.857596  s :     2.857596
      pz      :     0.905277  p :     2.972354
      px      :     1.009592
      py      :     1.057485
      dz2     :     0.043037  d :     0.159248
      dxz     :     0.035708
      dyz     :     0.047289
      dx2y2   :     0.023671
      dxy     :     0.009544
 24 H s       :     0.875667  s :     0.875667
      pz      :     0.019859  p :     0.080436
      px      :     0.016409
      py      :     0.044167
 25 H s       :     0.886072  s :     0.886072
      pz      :     0.013350  p :     0.078779
      px      :     0.046370
      py      :     0.019059
 26 H s       :     0.885319  s :     0.885319
      pz      :     0.025518  p :     0.079153
      px      :     0.021720
      py      :     0.031915

SPIN
  0 N s       :     0.002973  s :     0.002973
      pz      :     0.000486  p :     0.017027
      px      :     0.014860
      py      :     0.001681
      dz2     :    -0.000068  d :    -0.000418
      dxz     :    -0.000352
      dyz     :     0.000001
      dx2y2   :     0.000035
      dxy     :    -0.000033
  1 C s       :    -0.003777  s :    -0.003777
      pz      :    -0.010107  p :    -0.022642
      px      :    -0.003715
      py      :    -0.008820
      dz2     :     0.023079  d :     0.037300
      dxz     :     0.003705
      dyz     :     0.004039
      dx2y2   :     0.002878
      dxy     :     0.003598
  2 C s       :     0.010593  s :     0.010593
      pz      :     0.023702  p :     0.028259
      px      :     0.002545
      py      :     0.002012
      dz2     :    -0.001025  d :    -0.000152
      dxz     :    -0.000031
      dyz     :    -0.000390
      dx2y2   :     0.000542
      dxy     :     0.000753
  3 O s       :     0.000884  s :     0.000884
      pz      :     0.012114  p :     0.016335
      px      :     0.005004
      py      :    -0.000783
      dz2     :     0.000132  d :     0.000207
      dxz     :     0.000012
      dyz     :     0.000012
      dx2y2   :     0.000022
      dxy     :     0.000029
  4 C s       :     0.025949  s :     0.025949
      pz      :     0.315042  p :     0.771701
      px      :     0.427764
      py      :     0.028895
      dz2     :    -0.000124  d :    -0.004446
      dxz     :    -0.001977
      dyz     :    -0.000691
      dx2y2   :    -0.001178
      dxy     :    -0.000475
  5 H s       :    -0.019473  s :    -0.019473
      pz      :     0.010857  p :     0.026928
      px      :     0.015214
      py      :     0.000857
  6 C s       :    -0.003451  s :    -0.003451
      pz      :    -0.003876  p :    -0.022877
      px      :    -0.005311
      py      :    -0.013691
      dz2     :     0.001862  d :     0.036389
      dxz     :     0.000627
      dyz     :     0.013078
      dx2y2   :     0.002151
      dxy     :     0.018672
  7 H s       :     0.025673  s :     0.025673
      pz      :    -0.000494  p :    -0.000796
      px      :    -0.000041
      py      :    -0.000260
  8 H s       :     0.000985  s :     0.000985
      pz      :    -0.000143  p :    -0.000623
      px      :    -0.000025
      py      :    -0.000455
  9 C s       :     0.009926  s :     0.009926
      pz      :     0.001807  p :     0.021807
      px      :     0.012362
      py      :     0.007638
      dz2     :     0.000119  d :     0.000359
      dxz     :     0.000450
      dyz     :    -0.000027
      dx2y2   :     0.000094
      dxy     :    -0.000277
 10 O s       :     0.000110  s :     0.000110
      pz      :     0.000025  p :     0.000807
      px      :     0.000181
      py      :     0.000600
      dz2     :     0.000023  d :     0.000194
      dxz     :     0.000009
      dyz     :     0.000005
      dx2y2   :     0.000050
      dxy     :     0.000108
 11 O s       :     0.000477  s :     0.000477
      pz      :    -0.001204  p :     0.000895
      px      :    -0.000045
      py      :     0.002144
      dz2     :     0.000010  d :     0.000182
      dxz     :     0.000016
      dyz     :     0.000008
      dx2y2   :     0.000142
      dxy     :     0.000005
 12 H s       :    -0.000184  s :    -0.000184
      pz      :     0.000020  p :     0.000787
      px      :     0.000788
      py      :    -0.000021
 13 H s       :     0.004215  s :     0.004215
      pz      :    -0.000408  p :    -0.000922
      px      :    -0.000215
      py      :    -0.000300
 14 C s       :    -0.000224  s :    -0.000224
      pz      :    -0.000482  p :    -0.000520
      px      :    -0.000788
      py      :     0.000750
      dz2     :     0.001450  d :     0.002355
      dxz     :     0.000439
      dyz     :    -0.000173
      dx2y2   :     0.000655
      dxy     :    -0.000016
 15 N s       :     0.000464  s :     0.000464
      pz      :     0.003631  p :     0.008207
      px      :     0.002524
      py      :     0.002052
      dz2     :     0.000062  d :     0.000409
      dxz     :     0.000175
      dyz     :     0.000114
      dx2y2   :     0.000038
      dxy     :     0.000020
 16 H s       :     0.000452  s :     0.000452
      pz      :     0.000058  p :     0.000243
      px      :    -0.000013
      py      :     0.000198
 17 H s       :     0.000810  s :     0.000810
      pz      :     0.004011  p :     0.004408
      px      :     0.000207
      py      :     0.000190
 18 O s       :     0.001879  s :     0.001879
      pz      :     0.000420  p :     0.015958
      px      :     0.015762
      py      :    -0.000224
      dz2     :    -0.000008  d :     0.000015
      dxz     :    -0.000012
      dyz     :     0.000005
      dx2y2   :     0.000005
      dxy     :     0.000025
 19 C s       :     0.000994  s :     0.000994
      pz      :     0.000052  p :     0.002216
      px      :     0.002039
      py      :     0.000125
      dz2     :     0.000002  d :     0.000030
      dxz     :    -0.000032
      dyz     :    -0.000004
      dx2y2   :     0.000013
      dxy     :     0.000051
 20 H s       :     0.000160  s :     0.000160
      pz      :    -0.000000  p :     0.000099
      px      :     0.000097
      py      :     0.000003
 21 H s       :    -0.000105  s :    -0.000105
      pz      :     0.000003  p :     0.000060
      px      :     0.000048
      py      :     0.000010
 22 H s       :     0.000021  s :     0.000021
      pz      :     0.000031  p :     0.000045
      px      :     0.000015
      py      :    -0.000001
 23 C s       :     0.000117  s :     0.000117
      pz      :    -0.000257  p :    -0.000464
      px      :    -0.000113
      py      :    -0.000093
      dz2     :     0.000123  d :     0.000592
      dxz     :     0.000143
      dyz     :     0.000166
      dx2y2   :     0.000138
      dxy     :     0.000023
 24 H s       :     0.000436  s :     0.000436
      pz      :     0.000019  p :     0.000007
      px      :    -0.000012
      py      :     0.000001
 25 H s       :     0.000238  s :     0.000238
      pz      :    -0.000006  p :    -0.000019
      px      :    -0.000010
      py      :    -0.000004
 26 H s       :    -0.000078  s :    -0.000078
      pz      :     0.000003  p :    -0.000008
      px      :    -0.000007
      py      :    -0.000004


                      *****************************
                      * MAYER POPULATION ANALYSIS *
                      *****************************

  NA   - Mulliken gross atomic population
  ZA   - Total nuclear charge
  QA   - Mulliken gross atomic charge
  VA   - Mayer's total valence
  BVA  - Mayer's bonded valence
  FA   - Mayer's free valence

  ATOM       NA         ZA         QA         VA         BVA        FA
  0 N      7.1505     7.0000    -0.1505     3.2601     3.2595     0.0005
  1 C      6.0504     6.0000    -0.0504     4.0556     4.0537     0.0019
  2 C      5.9833     6.0000     0.0167     4.0533     4.0518     0.0016
  3 O      8.3315     8.0000    -0.3315     2.0941     2.0937     0.0004
  4 C      6.1406     6.0000    -0.1406     3.9270     3.1919     0.7350
  5 H      0.8722     1.0000     0.1278     0.9732     0.9703     0.0029
  6 C      6.2680     6.0000    -0.2680     3.8651     3.8631     0.0019
  7 H      0.8025     1.0000     0.1975     0.9548     0.9539     0.0009
  8 H      0.8104     1.0000     0.1896     0.9722     0.9722     0.0000
  9 C      5.8722     6.0000     0.1278     4.0285     4.0276     0.0009
 10 O      8.2570     8.0000    -0.2570     2.1294     2.1294     0.0000
 11 O      8.2678     8.0000    -0.2678     2.1223     2.1223     0.0000
 12 H      0.7510     1.0000     0.2490     0.9723     0.9723     0.0000
 13 H      0.8246     1.0000     0.1754     0.9475     0.9474     0.0000
 14 C      5.8120     6.0000     0.1880     3.9773     3.9773    -0.0000
 15 N      7.0731     7.0000    -0.0731     3.1755     3.1753     0.0002
 16 H      0.7091     1.0000     0.2909     0.9557     0.9557     0.0000
 17 H      0.7489     1.0000     0.2511     0.9742     0.9742     0.0000
 18 O      8.3054     8.0000    -0.3054     2.1257     2.1252     0.0005
 19 C      6.5599     6.0000    -0.5599     3.8473     3.8473     0.0000
 20 H      0.8148     1.0000     0.1852     0.9598     0.9598     0.0000
 21 H      0.8128     1.0000     0.1872     0.9584     0.9584     0.0000
 22 H      0.8488     1.0000     0.1512     0.9706     0.9706     0.0000
 23 C      6.4408     6.0000    -0.4408     3.9384     3.9384     0.0000
 24 H      0.8149     1.0000     0.1851     0.9536     0.9536     0.0000
 25 H      0.8488     1.0000     0.1512     0.9653     0.9653     0.0000
 26 H      0.8287     1.0000     0.1713     0.9542     0.9542     0.0000

  Mayer bond orders larger than 0.100000
B(  0-N ,  1-C ) :   1.0122 B(  0-N , 12-H ) :   0.8881 B(  0-N , 14-C ) :   1.1861 
B(  1-C ,  2-C ) :   0.8686 B(  1-C ,  4-C ) :   1.0172 B(  1-C , 13-H ) :   0.9488 
B(  2-C ,  3-O ) :   1.8235 B(  2-C , 15-N ) :   1.2460 B(  4-C ,  5-H ) :   0.9783 
B(  4-C ,  6-C ) :   0.9870 B(  6-C ,  7-H ) :   0.9472 B(  6-C ,  8-H ) :   0.9519 
B(  6-C ,  9-C ) :   0.8834 B(  9-C , 10-O ) :   1.1604 B(  9-C , 11-O ) :   1.9216 
B( 10-O , 16-H ) :   0.8936 B( 14-C , 18-O ) :   1.8753 B( 14-C , 19-C ) :   0.8950 
B( 15-N , 17-H ) :   0.8854 B( 15-N , 23-C ) :   0.9520 B( 19-C , 20-H ) :   0.9603 
B( 19-C , 21-H ) :   0.9563 B( 19-C , 22-H ) :   0.9746 B( 23-C , 24-H ) :   0.9564 
B( 23-C , 25-H ) :   0.9666 B( 23-C , 26-H ) :   0.9541 

-------
TIMINGS
-------

Total SCF time: 0 days 0 hours 0 min 14 sec 

Total time                  ....      14.554 sec
Sum of individual times     ....      13.863 sec  ( 95.3%)

Fock matrix formation       ....      11.898 sec  ( 81.7%)
  Split-RI-J                ....       0.986 sec  (  8.3% of F)
  Chain of spheres X        ....       8.041 sec  ( 67.6% of F)
  XC integration            ....       2.553 sec  ( 21.5% of F)
    Basis function eval.    ....       0.247 sec  (  9.7% of XC)
    Density eval.           ....       0.344 sec  ( 13.5% of XC)
    XC-Functional eval.     ....       0.059 sec  (  2.3% of XC)
    XC-Potential eval.      ....       0.193 sec  (  7.5% of XC)
Diagonalization             ....       0.421 sec  (  2.9%)
Density matrix formation    ....       0.036 sec  (  0.2%)
Population analysis         ....       0.060 sec  (  0.4%)
Initial guess               ....       0.047 sec  (  0.3%)
Orbital Transformation      ....       0.000 sec  (  0.0%)
Orbital Orthonormalization  ....       0.030 sec  (  0.2%)
DIIS solution               ....       0.218 sec  (  1.5%)
Grid generation             ....       1.184 sec  (  8.1%)

Maximum memory used throughout the entire SCF-calculation: 77.7 MB

-------------------------   --------------------
FINAL SINGLE POINT ENERGY      -722.844521747913
-------------------------   --------------------

                                *** OPTIMIZATION RUN DONE ***

                            ***************************************
                            *     ORCA property calculations      *
                            ***************************************

                                    ---------------------
                                    Active property flags
                                    ---------------------
   (+) Dipole Moment


------------------------------------------------------------------------------
                       ORCA ELECTRIC PROPERTIES CALCULATION
------------------------------------------------------------------------------

Dipole Moment Calculation                       ... on
Quadrupole Moment Calculation                   ... off
Polarizability Calculation                      ... off
GBWName                                         ... opt.gbw
Electron density                                ... opt.scfp
The origin for moment calculation is the CENTER OF MASS  = (-5.595600, -7.207853 -1.203350)

-------------
DIPOLE MOMENT
-------------
                                X             Y             Z
Electronic contribution:      3.13878       2.64196      -3.09859
Nuclear contribution   :     -2.70369      -1.62696       3.54248
                        -----------------------------------------
Total Dipole Moment    :      0.43509       1.01500       0.44390
                        -----------------------------------------
Magnitude (a.u.)       :      1.19020
Magnitude (Debye)      :      3.02524



--------------------
Rotational spectrum 
--------------------
 
Rotational constants in cm-1:     0.024889     0.016427     0.010906 
Rotational constants in MHz :   746.159974   492.455390   326.968092 

 Dipole components along the rotational axes: 
x,y,z [a.u.] :     0.986776     0.207246     0.632370 
x,y,z [Debye]:     2.508186     0.526778     1.607357 

 

Timings for individual modules:

Sum of individual times         ...      641.032 sec (=  10.684 min)
GTO integral calculation        ...       93.498 sec (=   1.558 min)  14.6 %
SCF iterations                  ...      377.925 sec (=   6.299 min)  59.0 %
SCF Gradient evaluation         ...      168.928 sec (=   2.815 min)  26.4 %
Geometry relaxation             ...        0.681 sec (=   0.011 min)   0.1 %
                             ****ORCA TERMINATED NORMALLY****
TOTAL RUN TIME: 0 days 0 hours 11 minutes 32 seconds 654 msec
