
                                 *****************
                                 * O   R   C   A *
                                 *****************

                                            #,                                       
                                            ###                                      
                                            ####                                     
                                            #####                                    
                                            ######                                   
                                           ########,                                 
                                     ,,################,,,,,                         
                               ,,#################################,,                 
                          ,,##########################################,,             
                       ,#########################################, ''#####,          
                    ,#############################################,,   '####,        
                  ,##################################################,,,,####,       
                ,###########''''           ''''###############################       
              ,#####''   ,,,,##########,,,,          '''####'''          '####       
            ,##' ,,,,###########################,,,                        '##       
           ' ,,###''''                  '''############,,,                           
         ,,##''                                '''############,,,,        ,,,,,,###''
      ,#''                                            '''#######################'''  
     '                                                          ''''####''''         
             ,#######,   #######,   ,#######,      ##                                
            ,#'     '#,  ##    ##  ,#'     '#,    #''#        ######   ,####,        
            ##       ##  ##   ,#'  ##            #'  '#       #        #'  '#        
            ##       ##  #######   ##           ,######,      #####,   #    #        
            '#,     ,#'  ##    ##  '#,     ,#' ,#      #,         ##   #,  ,#        
             '#######'   ##     ##  '#######'  #'      '#     #####' # '####'        



                  #######################################################
                  #                        -***-                        #
                  #          Department of theory and spectroscopy      #
                  #    Directorship and core code : Frank Neese         #
                  #        Max Planck Institute fuer Kohlenforschung    #
                  #                Kaiser Wilhelm Platz 1               #
                  #                 D-45470 Muelheim/Ruhr               #
                  #                      Germany                        #
                  #                                                     #
                  #                  All rights reserved                #
                  #                        -***-                        #
                  #######################################################


                         Program Version 5.0.4 -  RELEASE  -


 With contributions from (in alphabetic order):
   Daniel Aravena         : Magnetic Suceptibility
   Michael Atanasov       : Ab Initio Ligand Field Theory (pilot matlab implementation)
   Alexander A. Auer      : GIAO ZORA, VPT2 properties, NMR spectrum
   Ute Becker             : Parallelization
   Giovanni Bistoni       : ED, misc. LED, open-shell LED, HFLD
   Martin Brehm           : Molecular dynamics
   Dmytro Bykov           : SCF Hessian
   Vijay G. Chilkuri      : MRCI spin determinant printing, contributions to CSF-ICE
   Dipayan Datta          : RHF DLPNO-CCSD density
   Achintya Kumar Dutta   : EOM-CC, STEOM-CC
   Dmitry Ganyushin       : Spin-Orbit,Spin-Spin,Magnetic field MRCI
   Miquel Garcia          : C-PCM and meta-GGA Hessian, CC/C-PCM, Gaussian charge scheme
   Yang Guo               : DLPNO-NEVPT2, F12-NEVPT2, CIM, IAO-localization
   Andreas Hansen         : Spin unrestricted coupled pair/coupled cluster methods
   Benjamin Helmich-Paris : MC-RPA, TRAH-SCF, COSX integrals
   Lee Huntington         : MR-EOM, pCC
   Robert Izsak           : Overlap fitted RIJCOSX, COSX-SCS-MP3, EOM
   Marcus Kettner         : VPT2
   Christian Kollmar      : KDIIS, OOCD, Brueckner-CCSD(T), CCSD density, CASPT2, CASPT2-K
   Simone Kossmann        : Meta GGA functionals, TD-DFT gradient, OOMP2, MP2 Hessian
   Martin Krupicka        : Initial AUTO-CI
   Lucas Lang             : DCDCAS
   Marvin Lechner         : AUTO-CI (C++ implementation), FIC-MRCC
   Dagmar Lenk            : GEPOL surface, SMD
   Dimitrios Liakos       : Extrapolation schemes; Compound Job, initial MDCI parallelization
   Dimitrios Manganas     : Further ROCIS development; embedding schemes
   Dimitrios Pantazis     : SARC Basis sets
   Anastasios Papadopoulos: AUTO-CI, single reference methods and gradients
   Taras Petrenko         : DFT Hessian,TD-DFT gradient, ASA, ECA, R-Raman, ABS, FL, XAS/XES, NRVS
   Peter Pinski           : DLPNO-MP2, DLPNO-MP2 Gradient
   Christoph Reimann      : Effective Core Potentials
   Marius Retegan         : Local ZFS, SOC
   Christoph Riplinger    : Optimizer, TS searches, QM/MM, DLPNO-CCSD(T), (RO)-DLPNO pert. Triples
   Tobias Risthaus        : Range-separated hybrids, TD-DFT gradient, RPA, STAB
   Michael Roemelt        : Original ROCIS implementation
   Masaaki Saitow         : Open-shell DLPNO-CCSD energy and density
   Barbara Sandhoefer     : DKH picture change effects
   Avijit Sen             : IP-ROCIS
   Kantharuban Sivalingam : CASSCF convergence, NEVPT2, FIC-MRCI
   Bernardo de Souza      : ESD, SOC TD-DFT
   Georgi Stoychev        : AutoAux, RI-MP2 NMR, DLPNO-MP2 response
   Willem Van den Heuvel  : Paramagnetic NMR
   Boris Wezisla          : Elementary symmetry handling
   Frank Wennmohs         : Technical directorship


 We gratefully acknowledge several colleagues who have allowed us to
 interface, adapt or use parts of their codes:
   Stefan Grimme, W. Hujo, H. Kruse, P. Pracht,  : VdW corrections, initial TS optimization,
                  C. Bannwarth, S. Ehlert          DFT functionals, gCP, sTDA/sTD-DF
   Ed Valeev, F. Pavosevic, A. Kumar             : LibInt (2-el integral package), F12 methods
   Garnet Chan, S. Sharma, J. Yang, R. Olivares  : DMRG
   Ulf Ekstrom                                   : XCFun DFT Library
   Mihaly Kallay                                 : mrcc  (arbitrary order and MRCC methods)
   Jiri Pittner, Ondrej Demel                    : Mk-CCSD
   Frank Weinhold                                : gennbo (NPA and NBO analysis)
   Christopher J. Cramer and Donald G. Truhlar   : smd solvation model
   Lars Goerigk                                  : TD-DFT with DH, B97 family of functionals
   V. Asgeirsson, H. Jonsson                     : NEB implementation
   FAccTs GmbH                                   : IRC, NEB, NEB-TS, DLPNO-Multilevel, CI-OPT
                                                   MM, QMMM, 2- and 3-layer-ONIOM, Crystal-QMMM,
                                                   LR-CPCM, SF, NACMEs, symmetry and pop. for TD-DFT,
                                                   nearIR, NL-DFT gradient (VV10), updates on ESD,
                                                   ML-optimized integration grids
   S Lehtola, MJT Oliveira, MAL Marques          : LibXC Library
   Liviu Ungur et al                             : ANISO software


 Your calculation uses the libint2 library for the computation of 2-el integrals
 For citations please refer to: http://libint.valeyev.net

 Your ORCA version has been built with support for libXC version: 5.1.0
 For citations please refer to: https://tddft.org/programs/libxc/

 This ORCA versions uses:
   CBLAS   interface :  Fast vector & matrix operations
   LAPACKE interface :  Fast linear algebra routines
   SCALAPACK package :  Parallel linear algebra routines
   Shared memory     :  Shared parallel matrices
   BLAS/LAPACK       :  OpenBLAS 0.3.15  USE64BITINT DYNAMIC_ARCH NO_AFFINITY Zen SINGLE_THREADED
        Core in use  :  Zen
   Copyright (c) 2011-2014, The OpenBLAS Project




***************************************
The coordinates will be read from file: opt.xyz
***************************************


================================================================================

----- Orbital basis set information -----
Your calculation utilizes the basis: EPR-II
   V. Barone, in Recent Advances in Density Functional Methods, Part 1 (ed. D. P. Chong), World Scientific, Singapore, 1995, p. 287.

----- AuxJ basis set information -----
Your calculation utilizes the AutoAux generation procedure.
  G. L. Stoychev, A. A. Auer, F. Neese, J. Chem. Theory Comput. 13, 554 (2017)

----- AuxC basis set information -----
Your calculation utilizes the AutoAux generation procedure.
  G. L. Stoychev, A. A. Auer, F. Neese, J. Chem. Theory Comput. 13, 554 (2017)

----- AuxJK basis set information -----
Your calculation utilizes the AutoAux generation procedure.
  G. L. Stoychev, A. A. Auer, F. Neese, J. Chem. Theory Comput. 13, 554 (2017)

================================================================================
                                        WARNINGS
                       Please study these warnings very carefully!
================================================================================


WARNING: your system is open-shell and RHF/RKS was chosen
  ===> : WILL SWITCH to UHF/UKS


INFO   : the flag for use of the SHARK integral package has been found!

================================================================================
                                       INPUT FILE
================================================================================
NAME = epr_info.inp
|  1> ! B3LYP EPR-II AUTOAUX
|  2> %pal nprocs 16 end
|  3> *XYZFile 0 2 opt.xyz
|  4> %EPRNMR
|  5>         GTENSOR   TRUE
|  6>         NUCLEI    = 1,9,10,11,12,13,14,15,16,17,30,31,32 {SHIFT, AISO, ADIP, AORB}
|  7>         ORI       GIAO
|  8> END
|  9> 
| 10>                          ****END OF INPUT****
================================================================================

                       ****************************
                       * Single Point Calculation *
                       ****************************

---------------------------------
CARTESIAN COORDINATES (ANGSTROEM)
---------------------------------
  N      1.798749   -0.544240    0.345043
  C      1.086202    0.344023   -0.557268
  C      0.783819    1.634613    0.232269
  O      0.902380    1.690630    1.458669
  C     -0.208401   -0.298798   -1.128978
  C     -1.262818   -0.595480   -0.103867
  C     -2.650034   -0.991108   -0.515497
  C     -3.669939   -0.928270    0.633786
  N     -5.011866   -1.304041    0.153957
  H     -0.950785   -0.778725    0.922683
  H     -2.642582   -2.021471   -0.921684
  H     -3.006195   -0.357225   -1.339199
  H     -3.720214    0.101081    1.006315
  H     -3.304395   -1.554414    1.466082
  H     -5.680877   -1.229316    0.915557
  H     -5.009081   -2.283029   -0.122414
  H      1.797475   -0.260400    1.316924
  C      2.641120   -1.519048   -0.113120
  N      0.364044    2.692601   -0.514298
  H      0.320314    2.593945   -1.516122
  O      2.771314   -1.767354   -1.313269
  C      3.402700   -2.294132    0.957609
  H      3.133567   -3.351001    0.877864
  H      4.472860   -2.208922    0.750904
  H      3.200363   -1.946534    1.974103
  C      0.001690    3.971592    0.090619
  H      0.886578    4.508770    0.447910
  H     -0.510710    4.582551   -0.655080
  H     -0.663804    3.806567    0.940942
  H      1.744180    0.574681   -1.403886
  H     -0.620166    0.353870   -1.913339
  H      0.109804   -1.216597   -1.650174

----------------------------
CARTESIAN COORDINATES (A.U.)
----------------------------
  NO LB      ZA    FRAG     MASS         X           Y           Z
   0 N     7.0000    0    14.007    3.399144   -1.028465    0.652036
   1 C     6.0000    0    12.011    2.052624    0.650109   -1.053083
   2 C     6.0000    0    12.011    1.481204    3.088971    0.438924
   3 O     8.0000    0    15.999    1.705252    3.194829    2.756484
   4 C     6.0000    0    12.011   -0.393822   -0.564646   -2.133459
   5 C     6.0000    0    12.011   -2.386379   -1.125295   -0.196279
   6 C     6.0000    0    12.011   -5.007839   -1.872923   -0.974149
   7 C     6.0000    0    12.011   -6.935179   -1.754176    1.197682
   8 N     7.0000    0    14.007   -9.471055   -2.464281    0.290937
   9 H     1.0000    0     1.008   -1.796723   -1.471576    1.743617
  10 H     1.0000    0     1.008   -4.993755   -3.820027   -1.741730
  11 H     1.0000    0     1.008   -5.680885   -0.675057   -2.530719
  12 H     1.0000    0     1.008   -7.030186    0.191016    1.901660
  13 H     1.0000    0     1.008   -6.244402   -2.937416    2.770493
  14 H     1.0000    0     1.008  -10.735301   -2.323070    1.730152
  15 H     1.0000    0     1.008   -9.465792   -4.314299   -0.231328
  16 H     1.0000    0     1.008    3.396735   -0.492085    2.488627
  17 C     6.0000    0    12.011    4.990994   -2.870585   -0.213766
  18 N     7.0000    0    14.007    0.687944    5.088278   -0.971883
  19 H     1.0000    0     1.008    0.605306    4.901845   -2.865056
  20 O     8.0000    0    15.999    5.237025   -3.339814   -2.481718
  21 C     6.0000    0    12.011    6.430170   -4.335282    1.809619
  22 H     1.0000    0     1.008    5.921583   -6.332475    1.658922
  23 H     1.0000    0     1.008    8.452480   -4.174257    1.419004
  24 H     1.0000    0     1.008    6.047809   -3.678416    3.730514
  25 C     6.0000    0    12.011    0.003193    7.505221    0.171246
  26 H     1.0000    0     1.008    1.675390    8.520340    0.846427
  27 H     1.0000    0     1.008   -0.965103    8.659767   -1.237923
  28 H     1.0000    0     1.008   -1.254408    7.193369    1.778123
  29 H     1.0000    0     1.008    3.296022    1.085990   -2.652961
  30 H     1.0000    0     1.008   -1.171943    0.668718   -3.615687
  31 H     1.0000    0     1.008    0.207499   -2.299035   -3.118377

--------------------------------
INTERNAL COORDINATES (ANGSTROEM)
--------------------------------
 N      0   0   0     0.000000000000     0.00000000     0.00000000
 C      1   0   0     1.452893363199     0.00000000     0.00000000
 C      2   1   0     1.542862954326   106.84113744     0.00000000
 O      3   2   1     1.233390277183   121.86948023   346.34876864
 C      2   1   3     1.554370550232   112.58531772   236.93127840
 C      5   2   1     1.500222533706   114.57221353    64.59203930
 C      6   5   2     1.500110392651   120.97088199   169.29287937
 C      7   6   5     1.537857392613   113.41852989   193.77511097
 N      8   7   6     1.473842073211   110.49460219   178.94058268
 H      6   5   2     1.088460330274   118.44060254   333.24603635
 H      7   6   5     1.107560728068   109.86230796    72.22446691
 H      7   6   5     1.098700400121   110.69121422   316.34691663
 H      8   7   6     1.095841603474   108.83600917    60.55734087
 H      8   7   6     1.103808906264   108.70492255   304.39633877
 H      9   8   7     1.016461061488   109.66922767   181.81780384
 H      9   8   7     1.017253738077   109.34933126    65.94978757
 H      1   2   3     1.012482699198   115.09553550    11.67127647
 C      1   2   3     1.367388578425   121.99780816   205.10536464
 N      3   2   1     1.361216675455   115.46291111   167.14448247
 H     19   3   2     1.007619342122   118.85439921   356.96454729
 O     18   1   2     1.232462199539   122.34286485   354.54810884
 C     18   1   2     1.525522980910   115.75845150   175.16550640
 H     22  18   1     1.093509902475   108.48155036   119.76574387
 H     22  18   1     1.093265997696   108.44350726   236.35815453
 H     22  18   1     1.093171590284   113.49619286   358.15013111
 C     19   3   2     1.460494811556   122.00500566   178.20925739
 H     26  19   3     1.095100110925   111.35977661    72.31564004
 H     26  19   3     1.091738657720   108.88161150   192.68113685
 H     26  19   3     1.092320529364   109.95488668   312.38901614
 H      2   1   3     1.096768698831   108.28538855   118.06630642
 H      5   2   1     1.100339821559   109.18148869   188.40588553
 H      5   2   1     1.102386606903   106.12855123   301.51482959

---------------------------
INTERNAL COORDINATES (A.U.)
---------------------------
 N      0   0   0     0.000000000000     0.00000000     0.00000000
 C      1   0   0     2.745570558238     0.00000000     0.00000000
 C      2   1   0     2.915588445848   106.84113744     0.00000000
 O      3   2   1     2.330769840117   121.86948023   346.34876864
 C      2   1   3     2.937334650570   112.58531772   236.93127840
 C      5   2   1     2.835009728642   114.57221353    64.59203930
 C      6   5   2     2.834797812759   120.97088199   169.29287937
 C      7   6   5     2.906129305064   113.41852989   193.77511097
 N      8   7   6     2.785157883019   110.49460219   178.94058268
 H      6   5   2     2.056891931856   118.44060254   333.24603635
 H      7   6   5     2.092986452736   109.86230796    72.22446691
 H      7   6   5     2.076242859458   110.69121422   316.34691663
 H      8   7   6     2.070840516722   108.83600917    60.55734087
 H      8   7   6     2.085896537022   108.70492255   304.39633877
 H      9   8   7     1.920833032008   109.66922767   181.81780384
 H      9   8   7     1.922330973674   109.34933126    65.94978757
 H      1   2   3     1.913315016818   115.09553550    11.67127647
 C      1   2   3     2.583989931874   121.99780816   205.10536464
 N      3   2   1     2.572326725537   115.46291111   167.14448247
 H     19   3   2     1.904124603853   118.85439921   356.96454729
 O     18   1   2     2.329016027539   122.34286485   354.54810884
 C     18   1   2     2.882820644923   115.75845150   175.16550640
 H     22  18   1     2.066434240408   108.48155036   119.76574387
 H     22  18   1     2.065973327173   108.44350726   236.35815453
 H     22  18   1     2.065794923020   113.49619286   358.15013111
 C     19   3   2     2.759935213854   122.00500566   178.20925739
 H     26  19   3     2.069439298875   111.35977661    72.31564004
 H     26  19   3     2.063087072905   108.88161150   192.68113685
 H     26  19   3     2.064186650958   109.95488668   312.38901614
 H      2   1   3     2.072592473047   108.28538855   118.06630642
 H      5   2   1     2.079340916995   109.18148869   188.40588553
 H      5   2   1     2.083208780750   106.12855123   301.51482959

---------------------
BASIS SET INFORMATION
---------------------
There are 4 groups of distinct atoms

 Group   1 Type N   : 10s5p1d contracted to 6s2p1d pattern {511111/41/1}
 Group   2 Type C   : 10s5p1d contracted to 6s2p1d pattern {511111/41/1}
 Group   3 Type O   : 10s5p1d contracted to 6s2p1d pattern {511111/41/1}
 Group   4 Type H   : 6s1p contracted to 4s1p pattern {3111/1}

Atom   0N    basis set group =>   1
Atom   1C    basis set group =>   2
Atom   2C    basis set group =>   2
Atom   3O    basis set group =>   3
Atom   4C    basis set group =>   2
Atom   5C    basis set group =>   2
Atom   6C    basis set group =>   2
Atom   7C    basis set group =>   2
Atom   8N    basis set group =>   1
Atom   9H    basis set group =>   4
Atom  10H    basis set group =>   4
Atom  11H    basis set group =>   4
Atom  12H    basis set group =>   4
Atom  13H    basis set group =>   4
Atom  14H    basis set group =>   4
Atom  15H    basis set group =>   4
Atom  16H    basis set group =>   4
Atom  17C    basis set group =>   2
Atom  18N    basis set group =>   1
Atom  19H    basis set group =>   4
Atom  20O    basis set group =>   3
Atom  21C    basis set group =>   2
Atom  22H    basis set group =>   4
Atom  23H    basis set group =>   4
Atom  24H    basis set group =>   4
Atom  25C    basis set group =>   2
Atom  26H    basis set group =>   4
Atom  27H    basis set group =>   4
Atom  28H    basis set group =>   4
Atom  29H    basis set group =>   4
Atom  30H    basis set group =>   4
Atom  31H    basis set group =>   4
---------------------------------
AUXILIARY/J BASIS SET INFORMATION
---------------------------------
There are 4 groups of distinct atoms

 Group   1 Type N   : 17s13p12d2f contracted to 17s13p12d2f pattern {11111111111111111/1111111111111/111111111111/11}
 Group   2 Type C   : 17s13p12d2f contracted to 17s13p12d2f pattern {11111111111111111/1111111111111/111111111111/11}
 Group   3 Type O   : 17s13p12d2f contracted to 17s13p12d2f pattern {11111111111111111/1111111111111/111111111111/11}
 Group   4 Type H   : 15s6p1d contracted to 15s6p1d pattern {111111111111111/111111/1}

Atom   0N    basis set group =>   1
Atom   1C    basis set group =>   2
Atom   2C    basis set group =>   2
Atom   3O    basis set group =>   3
Atom   4C    basis set group =>   2
Atom   5C    basis set group =>   2
Atom   6C    basis set group =>   2
Atom   7C    basis set group =>   2
Atom   8N    basis set group =>   1
Atom   9H    basis set group =>   4
Atom  10H    basis set group =>   4
Atom  11H    basis set group =>   4
Atom  12H    basis set group =>   4
Atom  13H    basis set group =>   4
Atom  14H    basis set group =>   4
Atom  15H    basis set group =>   4
Atom  16H    basis set group =>   4
Atom  17C    basis set group =>   2
Atom  18N    basis set group =>   1
Atom  19H    basis set group =>   4
Atom  20O    basis set group =>   3
Atom  21C    basis set group =>   2
Atom  22H    basis set group =>   4
Atom  23H    basis set group =>   4
Atom  24H    basis set group =>   4
Atom  25C    basis set group =>   2
Atom  26H    basis set group =>   4
Atom  27H    basis set group =>   4
Atom  28H    basis set group =>   4
Atom  29H    basis set group =>   4
Atom  30H    basis set group =>   4
Atom  31H    basis set group =>   4
---------------------------------
AUXILIARY/C BASIS SET INFORMATION
---------------------------------
There are 4 groups of distinct atoms

 Group   1 Type N   : 17s13p12d2f contracted to 17s13p12d2f pattern {11111111111111111/1111111111111/111111111111/11}
 Group   2 Type C   : 17s13p12d2f contracted to 17s13p12d2f pattern {11111111111111111/1111111111111/111111111111/11}
 Group   3 Type O   : 17s13p12d2f contracted to 17s13p12d2f pattern {11111111111111111/1111111111111/111111111111/11}
 Group   4 Type H   : 15s6p1d contracted to 15s6p1d pattern {111111111111111/111111/1}

Atom   0N    basis set group =>   1
Atom   1C    basis set group =>   2
Atom   2C    basis set group =>   2
Atom   3O    basis set group =>   3
Atom   4C    basis set group =>   2
Atom   5C    basis set group =>   2
Atom   6C    basis set group =>   2
Atom   7C    basis set group =>   2
Atom   8N    basis set group =>   1
Atom   9H    basis set group =>   4
Atom  10H    basis set group =>   4
Atom  11H    basis set group =>   4
Atom  12H    basis set group =>   4
Atom  13H    basis set group =>   4
Atom  14H    basis set group =>   4
Atom  15H    basis set group =>   4
Atom  16H    basis set group =>   4
Atom  17C    basis set group =>   2
Atom  18N    basis set group =>   1
Atom  19H    basis set group =>   4
Atom  20O    basis set group =>   3
Atom  21C    basis set group =>   2
Atom  22H    basis set group =>   4
Atom  23H    basis set group =>   4
Atom  24H    basis set group =>   4
Atom  25C    basis set group =>   2
Atom  26H    basis set group =>   4
Atom  27H    basis set group =>   4
Atom  28H    basis set group =>   4
Atom  29H    basis set group =>   4
Atom  30H    basis set group =>   4
Atom  31H    basis set group =>   4
----------------------------------
AUXILIARY/JK BASIS SET INFORMATION
----------------------------------
There are 4 groups of distinct atoms

 Group   1 Type N   : 17s13p12d2f contracted to 17s13p12d2f pattern {11111111111111111/1111111111111/111111111111/11}
 Group   2 Type C   : 17s13p12d2f contracted to 17s13p12d2f pattern {11111111111111111/1111111111111/111111111111/11}
 Group   3 Type O   : 17s13p12d2f contracted to 17s13p12d2f pattern {11111111111111111/1111111111111/111111111111/11}
 Group   4 Type H   : 15s6p1d contracted to 15s6p1d pattern {111111111111111/111111/1}

Atom   0N    basis set group =>   1
Atom   1C    basis set group =>   2
Atom   2C    basis set group =>   2
Atom   3O    basis set group =>   3
Atom   4C    basis set group =>   2
Atom   5C    basis set group =>   2
Atom   6C    basis set group =>   2
Atom   7C    basis set group =>   2
Atom   8N    basis set group =>   1
Atom   9H    basis set group =>   4
Atom  10H    basis set group =>   4
Atom  11H    basis set group =>   4
Atom  12H    basis set group =>   4
Atom  13H    basis set group =>   4
Atom  14H    basis set group =>   4
Atom  15H    basis set group =>   4
Atom  16H    basis set group =>   4
Atom  17C    basis set group =>   2
Atom  18N    basis set group =>   1
Atom  19H    basis set group =>   4
Atom  20O    basis set group =>   3
Atom  21C    basis set group =>   2
Atom  22H    basis set group =>   4
Atom  23H    basis set group =>   4
Atom  24H    basis set group =>   4
Atom  25C    basis set group =>   2
Atom  26H    basis set group =>   4
Atom  27H    basis set group =>   4
Atom  28H    basis set group =>   4
Atom  29H    basis set group =>   4
Atom  30H    basis set group =>   4
Atom  31H    basis set group =>   4


           ************************************************************
           *        Program running with 16 parallel MPI-processes    *
           *              working on a common directory               *
           ************************************************************
------------------------------------------------------------------------------
                           ORCA GTO INTEGRAL CALCULATION
                           -- RI-GTO INTEGRALS CHOSEN --
------------------------------------------------------------------------------
------------------------------------------------------------------------------
                   ___                                                        
                  /   \      - P O W E R E D   B Y -                         
                 /     \                                                     
                 |  |  |   _    _      __       _____    __    __             
                 |  |  |  | |  | |    /  \     |  _  \  |  |  /  |          
                  \  \/   | |  | |   /    \    | | | |  |  | /  /          
                 / \  \   | |__| |  /  /\  \   | |_| |  |  |/  /          
                |  |  |   |  __  | /  /__\  \  |    /   |      \           
                |  |  |   | |  | | |   __   |  |    \   |  |\   \          
                \     /   | |  | | |  |  |  |  | |\  \  |  | \   \       
                 \___/    |_|  |_| |__|  |__|  |_| \__\ |__|  \__/        
                                                                              
                      - O R C A' S   B I G   F R I E N D -                    
                                      &                                       
                       - I N T E G R A L  F E E D E R -                       
                                                                              
 v1 FN, 2020, v2 2021                                                         
------------------------------------------------------------------------------


Reading SHARK input file epr_info.SHARKINP.tmp ... ok
----------------------
SHARK INTEGRAL PACKAGE
----------------------

Number of atoms                             ...     32
Number of basis functions                   ...    364
Number of shells                            ...    216
Maximum angular momentum                    ...      2
Integral batch strategy                     ... SHARK/LIBINT Hybrid
RI-J (if used) integral strategy            ... SPLIT-RIJ (Revised 2003 algorithm where possible)
Printlevel                                  ...      1
Contraction scheme used                     ... SEGMENTED contraction
Coulomb Range Separation                    ... NOT USED
Exchange Range Separation                   ... NOT USED
Finite Nucleus Model                        ... NOT USED
Auxiliary Coulomb fitting basis             ... AVAILABLE
   # of basis functions in Aux-J            ...   2504
   # of shells in Aux-J                     ...   1012
   Maximum angular momentum in Aux-J        ...      3
Auxiliary J/K fitting basis                 ... AVAILABLE
   # of basis functions in Aux-JK           ...   2504
   # of shells in Aux-JK                    ...   1012
   Maximum angular momentum in Aux-JK       ...      3
Auxiliary Correlation fitting basis         ... AVAILABLE
   # of basis functions in Aux-C            ...   2504
   # of shells in Aux-C                     ...   1012
   Maximum angular momentum in Aux-C        ...      3
Auxiliary 'external' fitting basis          ... NOT available
Integral threshold                          ...     1.000000e-10
Primitive cut-off                           ...     1.000000e-11
Primitive pair pre-selection threshold      ...     1.000000e-11

Calculating pre-screening integrals         ... done (  0.0 sec) Dimension = 216
Organizing shell pair data                  ... done (  0.0 sec)
Shell pair information
Total number of shell pairs                 ...     23436
Shell pairs after pre-screening             ...     14911
Total number of primitive shell pairs       ...     61703
Primitive shell pairs kept                  ...     28465
          la=0 lb=0:   6999 shell pairs
          la=1 lb=0:   5088 shell pairs
          la=1 lb=1:    879 shell pairs
          la=2 lb=0:   1369 shell pairs
          la=2 lb=1:    496 shell pairs
          la=2 lb=2:     80 shell pairs

Calculating one electron integrals          ... done (  0.0 sec)
Calculating RI/J V-Matrix + Cholesky decomp.... done (  0.3 sec)
Calculating RI/JK V-Matrix + Cholesky decomp... done (  0.3 sec)
Calculating RI/C V-Matrix + Cholesky decomp.... done (  0.3 sec)
Calculating Nuclear repulsion               ... done (  0.0 sec) ENN=    914.774887219838 Eh

SHARK setup successfully completed in   1.1 seconds

Maximum memory used throughout the entire GTOINT-calculation: 27.9 MB


           ************************************************************
           *        Program running with 16 parallel MPI-processes    *
           *              working on a common directory               *
           ************************************************************
-------------------------------------------------------------------------------
                                 ORCA SCF
-------------------------------------------------------------------------------

------------
SCF SETTINGS
------------
Hamiltonian:
 Density Functional     Method          .... DFT(GTOs)
 Exchange Functional    Exchange        .... B88
   X-Alpha parameter    XAlpha          ....  0.666667
   Becke's b parameter  XBeta           ....  0.004200
 Correlation Functional Correlation     .... LYP
 LDA part of GGA corr.  LDAOpt          .... VWN-5
 Gradients option       PostSCFGGA      .... off
 Hybrid DFT is turned on
   Fraction HF Exchange ScalHFX         ....  0.200000
   Scaling of DF-GGA-X  ScalDFX         ....  0.720000
   Scaling of DF-GGA-C  ScalDFC         ....  0.810000
   Scaling of DF-LDA-C  ScalLDAC        ....  1.000000
   Perturbative correction              ....  0.000000
   Density functional embedding theory  .... OFF
   NL short-range parameter             ....  4.800000
 RI-approximation to the Coulomb term is turned on
   Number of AuxJ basis functions       .... 2504
   RIJ-COSX (HFX calculated with COS-X)).... on


General Settings:
 Integral files         IntName         .... epr_info
 Hartree-Fock type      HFTyp           .... UHF
 Total Charge           Charge          ....    0
 Multiplicity           Mult            ....    2
 Number of Electrons    NEL             ....  109
 Basis Dimension        Dim             ....  364
 Nuclear Repulsion      ENuc            ....    914.7748872198 Eh

Convergence Acceleration:
 DIIS                   CNVDIIS         .... on
   Start iteration      DIISMaxIt       ....    12
   Startup error        DIISStart       ....  0.200000
   # of expansion vecs  DIISMaxEq       ....     5
   Bias factor          DIISBfac        ....   1.050
   Max. coefficient     DIISMaxC        ....  10.000
 Trust-Rad. Augm. Hess. CNVTRAH         .... auto
   Auto Start mean grad. ratio tolernc. ....  1.125000
   Auto Start start iteration           ....    20
   Auto Start num. interpolation iter.  ....    10
   Max. Number of Micro iterations      ....    16
   Max. Number of Macro iterations      .... Maxiter - #DIIS iter
   Number of Davidson start vectors     ....     2
   Converg. threshold I  (grad. norm)   ....   5.000e-05
   Converg. threshold II (energy diff.) ....   1.000e-06
   Grad. Scal. Fac. for Micro threshold ....   0.100
   Minimum threshold for Micro iter.    ....   0.010
   NR start threshold (gradient norm)   ....   0.001
   Initial trust radius                 ....   0.400
   Minimum AH scaling param. (alpha)    ....   1.000
   Maximum AH scaling param. (alpha)    .... 1000.000
   Orbital update algorithm             .... Taylor
   White noise on init. David. guess    .... on
   Maximum white noise                  ....   0.010
   Quad. conv. algorithm                .... NR
 SOSCF                  CNVSOSCF        .... off
 Level Shifting         CNVShift        .... on
   Level shift para.    LevelShift      ....    0.2500
   Turn off err/grad.   ShiftErr        ....    0.0010
 Zerner damping         CNVZerner       .... off
 Static damping         CNVDamp         .... on
   Fraction old density DampFac         ....    0.7000
   Max. Damping (<1)    DampMax         ....    0.9800
   Min. Damping (>=0)   DampMin         ....    0.0000
   Turn off err/grad.   DampErr         ....    0.1000
 Fernandez-Rico         CNVRico         .... off

SCF Procedure:
 Maximum # iterations   MaxIter         ....   125
 SCF integral mode      SCFMode         .... Direct
   Integral package                     .... SHARK and LIBINT hybrid scheme
 Reset frequency        DirectResetFreq ....    20
 Integral Threshold     Thresh          ....  1.000e-10 Eh
 Primitive CutOff       TCut            ....  1.000e-11 Eh

Convergence Tolerance:
 Convergence Check Mode ConvCheckMode   .... Total+1el-Energy
 Convergence forced     ConvForced      .... 0
 Energy Change          TolE            ....  1.000e-06 Eh
 1-El. energy change                    ....  1.000e-03 Eh
 DIIS Error             TolErr          ....  1.000e-06


Diagonalization of the overlap matrix:
Smallest eigenvalue                        ... 9.485e-04
Time for diagonalization                   ...    0.014 sec
Threshold for overlap eigenvalues          ... 1.000e-08
Number of eigenvalues below threshold      ... 0
Time for construction of square roots      ...    0.011 sec
Total time needed                          ...    0.025 sec

Time for model grid setup =    0.108 sec

------------------------------
INITIAL GUESS: MODEL POTENTIAL
------------------------------
Loading Hartree-Fock densities                     ... done
Calculating cut-offs                               ... done
Initializing the effective Hamiltonian             ... done
Setting up the integral package (SHARK)            ... done
Starting the Coulomb interaction                   ... done (   0.0 sec)
Reading the grid                                   ... done
Mapping shells                                     ... done
Starting the XC term evaluation                    ... done (   0.0 sec)
  promolecular density results
     # of electrons  =    108.987579905
     EX              =    -87.712933355
     EC              =     -3.656076467
     EX+EC           =    -91.369009821
Transforming the Hamiltonian                       ... done (   0.0 sec)
Diagonalizing the Hamiltonian                      ... done (   0.0 sec)
Back transforming the eigenvectors                 ... done (   0.0 sec)
Now organizing SCF variables                       ... done
                      ------------------
                      INITIAL GUESS DONE (   0.3 sec)
                      ------------------
-------------------
DFT GRID GENERATION
-------------------

General Integration Accuracy     IntAcc      ... 4.388
Radial Grid Type                 RadialGrid  ... OptM3 with GC (2021)
Angular Grid (max. ang.)         AngularGrid ... 4 (Lebedev-302)
Angular grid pruning method      GridPruning ... 4 (adaptive)
Weight generation scheme         WeightScheme... Becke
Basis function cutoff            BFCut       ... 1.0000e-10
Integration weight cutoff        WCut        ... 1.0000e-14
Angular grids for H and He will be reduced by one unit
Partially contracted basis set               ... off
Rotationally invariant grid construction     ... off

Total number of grid points                  ...   141806
Total number of batches                      ...     2235
Average number of points per batch           ...       63
Average number of grid points per atom       ...     4431
Time for grid setup =    0.576 sec

--------------------
COSX GRID GENERATION
--------------------

GRIDX 1
-------
General Integration Accuracy     IntAcc      ... 3.816
Radial Grid Type                 RadialGrid  ... OptM3 with GC (2021)
Angular Grid (max. ang.)         AngularGrid ... 1 (Lebedev-50)
Angular grid pruning method      GridPruning ... 4 (adaptive)
Weight generation scheme         WeightScheme... Becke
Basis function cutoff            BFCut       ... 1.0000e-10
Integration weight cutoff        WCut        ... 1.0000e-14
Angular grids for H and He will be reduced by one unit
Partially contracted basis set               ... on
Rotationally invariant grid construction     ... off

Total number of grid points                  ...    18095
Total number of batches                      ...      303
Average number of points per batch           ...       59
Average number of grid points per atom       ...      565
UseSFitting                                  ... on

GRIDX 2
-------
General Integration Accuracy     IntAcc      ... 4.020
Radial Grid Type                 RadialGrid  ... OptM3 with GC (2021)
Angular Grid (max. ang.)         AngularGrid ... 2 (Lebedev-110)
Angular grid pruning method      GridPruning ... 4 (adaptive)
Weight generation scheme         WeightScheme... Becke
Basis function cutoff            BFCut       ... 1.0000e-10
Integration weight cutoff        WCut        ... 1.0000e-14
Angular grids for H and He will be reduced by one unit
Partially contracted basis set               ... on
Rotationally invariant grid construction     ... off

Total number of grid points                  ...    38394
Total number of batches                      ...      615
Average number of points per batch           ...       62
Average number of grid points per atom       ...     1200
UseSFitting                                  ... on

GRIDX 3
-------
General Integration Accuracy     IntAcc      ... 4.338
Radial Grid Type                 RadialGrid  ... OptM3 with GC (2021)
Angular Grid (max. ang.)         AngularGrid ... 3 (Lebedev-194)
Angular grid pruning method      GridPruning ... 4 (adaptive)
Weight generation scheme         WeightScheme... Becke
Basis function cutoff            BFCut       ... 1.0000e-10
Integration weight cutoff        WCut        ... 1.0000e-14
Angular grids for H and He will be reduced by one unit
Partially contracted basis set               ... on
Rotationally invariant grid construction     ... off

Total number of grid points                  ...    83705
Total number of batches                      ...     1326
Average number of points per batch           ...       63
Average number of grid points per atom       ...     2616
UseSFitting                                  ... on

Time for X-Grid setup             =    0.723 sec

--------------
SCF ITERATIONS
--------------
ITER       Energy         Delta-E        Max-DP      RMS-DP      [F,P]     Damp
               ***  Starting incremental Fock matrix formation  ***
  0   -667.6908770861   0.000000000000 0.06202014  0.00098485  0.1285152 0.7000
  1   -667.9436492452  -0.252772159064 0.05342212  0.00070484  0.0532239 0.7000
                               ***Turning on DIIS***
  2   -668.0342311969  -0.090581951715 0.08383097  0.00108037  0.0167021 0.0000
  3   -668.1824957433  -0.148264546422 0.04680496  0.00052570  0.0320351 0.0000
  4   -668.2152892460  -0.032793502669 0.01753759  0.00018289  0.0086331 0.0000
  5   -668.2172050224  -0.001915776429 0.00788404  0.00007227  0.0050139 0.0000
  6   -668.2175786642  -0.000373641741 0.00485839  0.00004550  0.0007474 0.0000
               *** Restarting incremental Fock matrix formation ***
                                   *** Resetting DIIS ***
  7   -668.2175813334  -0.000002669282 0.00167690  0.00001983  0.0006832 0.0000
  8   -668.2175679411   0.000013392360 0.00076736  0.00000787  0.0010492 0.0000
  9   -668.2175912044  -0.000023263268 0.00030877  0.00000497  0.0002817 0.0000
 10   -668.2175927996  -0.000001595275 0.00013214  0.00000146  0.0000753 0.0000
                 **** Energy Check signals convergence ****

               *****************************************************
               *                     SUCCESS                       *
               *           SCF CONVERGED AFTER  11 CYCLES          *
               *****************************************************

Old exchange energy                            =    -17.858436138 Eh
New exchange energy                            =    -17.858512387 Eh
Exchange energy change after final integration =     -0.000076248 Eh
Total energy after final integration           =   -668.217669058 Eh
Final COS-X integration done in                =     2.069 sec

----------------
TOTAL SCF ENERGY
----------------

Total Energy       :         -668.21766906 Eh          -18183.12719 eV

Components:
Nuclear Repulsion  :          914.77488722 Eh           24892.29018 eV
Electronic Energy  :        -1582.99255628 Eh          -43075.41737 eV
One Electron Energy:        -2723.60399320 Eh          -74113.03249 eV
Two Electron Energy:         1140.61143692 Eh           31037.61512 eV
Max COSX asymmetry :            0.00000305 Eh               0.00008 eV

Virial components:
Potential Energy   :        -1331.81632097 Eh          -36240.56453 eV
Kinetic Energy     :          663.59865191 Eh           18057.43734 eV
Virial Ratio       :            2.00696056


DFT components:
N(Alpha)           :       55.000001764535 electrons
N(Beta)            :       54.000031355805 electrons
N(Total)           :      109.000033120340 electrons
E(X)               :      -70.932506089025 Eh       
E(C)               :       -4.311504579019 Eh       
E(XC)              :      -75.244010668044 Eh       
DFET-embed. en.    :        0.000000000000 Eh       

---------------
SCF CONVERGENCE
---------------

  Last Energy change         ...   -1.0495e-08  Tolerance :   1.0000e-06
  Last MAX-Density change    ...    0.0000e+00  Tolerance :   1.0000e-05
  Last RMS-Density change    ...    0.0000e+00  Tolerance :   1.0000e-06
  Last DIIS Error            ...    8.6066e-05  Tolerance :   1.0000e-06

             **** THE GBW FILE WAS UPDATED (epr_info.gbw) ****
             **** DENSITY epr_info.scfp WAS UPDATED ****
             **** ENERGY FILE WAS UPDATED (epr_info.en.tmp) ****
----------------------
UHF SPIN CONTAMINATION
----------------------

Warning: in a DFT calculation there is little theoretical justification to 
         calculate <S**2> as in Hartree-Fock theory. We will do it anyways
         but you should keep in mind that the values have only limited relevance

Expectation value of <S**2>     :     0.753970
Ideal value S*(S+1) for S=0.5   :     0.750000
Deviation                       :     0.003970

             **** THE GBW FILE WAS UPDATED (epr_info.gbw) ****
             **** DENSITY epr_info.scfp WAS UPDATED ****
----------------
ORBITAL ENERGIES
----------------
                 SPIN UP ORBITALS
  NO   OCC          E(Eh)            E(eV) 
   0   1.0000     -19.121079      -520.3110 
   1   1.0000     -19.100209      -519.7431 
   2   1.0000     -14.370699      -391.0466 
   3   1.0000     -14.349787      -390.4776 
   4   1.0000     -14.308263      -389.3476 
   5   1.0000     -10.301536      -280.3190 
   6   1.0000     -10.288299      -279.9589 
   7   1.0000     -10.239888      -278.6415 
   8   1.0000     -10.225351      -278.2460 
   9   1.0000     -10.206289      -277.7272 
  10   1.0000     -10.195593      -277.4362 
  11   1.0000     -10.191458      -277.3237 
  12   1.0000     -10.185820      -277.1703 
  13   1.0000     -10.184398      -277.1316 
  14   1.0000      -1.044032       -28.4096 
  15   1.0000      -1.022127       -27.8135 
  16   1.0000      -0.929854       -25.3026 
  17   1.0000      -0.916878       -24.9495 
  18   1.0000      -0.876116       -23.8403 
  19   1.0000      -0.800589       -21.7851 
  20   1.0000      -0.760342       -20.6900 
  21   1.0000      -0.727106       -19.7856 
  22   1.0000      -0.714127       -19.4324 
  23   1.0000      -0.666950       -18.1486 
  24   1.0000      -0.616261       -16.7693 
  25   1.0000      -0.597574       -16.2608 
  26   1.0000      -0.584230       -15.8977 
  27   1.0000      -0.558302       -15.1922 
  28   1.0000      -0.536890       -14.6095 
  29   1.0000      -0.489395       -13.3171 
  30   1.0000      -0.480867       -13.0851 
  31   1.0000      -0.472271       -12.8512 
  32   1.0000      -0.463361       -12.6087 
  33   1.0000      -0.456536       -12.4230 
  34   1.0000      -0.453313       -12.3353 
  35   1.0000      -0.446588       -12.1523 
  36   1.0000      -0.433934       -11.8079 
  37   1.0000      -0.426266       -11.5993 
  38   1.0000      -0.422172       -11.4879 
  39   1.0000      -0.405578       -11.0363 
  40   1.0000      -0.401334       -10.9209 
  41   1.0000      -0.396420       -10.7871 
  42   1.0000      -0.387258       -10.5378 
  43   1.0000      -0.374983       -10.2038 
  44   1.0000      -0.370765       -10.0890 
  45   1.0000      -0.361835        -9.8460 
  46   1.0000      -0.348915        -9.4945 
  47   1.0000      -0.343768        -9.3544 
  48   1.0000      -0.331154        -9.0111 
  49   1.0000      -0.270208        -7.3527 
  50   1.0000      -0.268611        -7.3093 
  51   1.0000      -0.252038        -6.8583 
  52   1.0000      -0.246225        -6.7001 
  53   1.0000      -0.238150        -6.4804 
  54   1.0000      -0.185921        -5.0592 
  55   0.0000       0.006375         0.1735 
  56   0.0000       0.012074         0.3285 
  57   0.0000       0.025352         0.6899 
  58   0.0000       0.026829         0.7300 
  59   0.0000       0.030786         0.8377 
  60   0.0000       0.033804         0.9199 
  61   0.0000       0.046550         1.2667 
  62   0.0000       0.058480         1.5913 
  63   0.0000       0.065629         1.7859 
  64   0.0000       0.079684         2.1683 
  65   0.0000       0.088157         2.3989 
  66   0.0000       0.093170         2.5353 
  67   0.0000       0.115386         3.1398 
  68   0.0000       0.126093         3.4312 
  69   0.0000       0.148343         4.0366 
  70   0.0000       0.152704         4.1553 
  71   0.0000       0.162487         4.4215 
  72   0.0000       0.164974         4.4892 
  73   0.0000       0.175922         4.7871 
  74   0.0000       0.181745         4.9455 
  75   0.0000       0.187521         5.1027 
  76   0.0000       0.191496         5.2109 
  77   0.0000       0.196781         5.3547 
  78   0.0000       0.201097         5.4721 
  79   0.0000       0.203882         5.5479 
  80   0.0000       0.213510         5.8099 
  81   0.0000       0.222542         6.0557 
  82   0.0000       0.227301         6.1852 
  83   0.0000       0.230050         6.2600 
  84   0.0000       0.232755         6.3336 
  85   0.0000       0.243597         6.6286 
  86   0.0000       0.248452         6.7607 
  87   0.0000       0.250013         6.8032 
  88   0.0000       0.253026         6.8852 
  89   0.0000       0.263968         7.1829 
  90   0.0000       0.266845         7.2612 
  91   0.0000       0.273625         7.4457 
  92   0.0000       0.278270         7.5721 
  93   0.0000       0.281207         7.6520 
  94   0.0000       0.288061         7.8385 
  95   0.0000       0.291554         7.9336 
  96   0.0000       0.302858         8.2412 
  97   0.0000       0.305378         8.3098 
  98   0.0000       0.313587         8.5331 
  99   0.0000       0.319604         8.6969 
 100   0.0000       0.325978         8.8703 
 101   0.0000       0.330434         8.9916 
 102   0.0000       0.332782         9.0555 
 103   0.0000       0.348917         9.4945 
 104   0.0000       0.364876         9.9288 
 105   0.0000       0.369858        10.0643 
 106   0.0000       0.379542        10.3279 
 107   0.0000       0.383939        10.4475 
 108   0.0000       0.391978        10.6663 
 109   0.0000       0.403429        10.9779 
 110   0.0000       0.409183        11.1344 
 111   0.0000       0.423767        11.5313 
 112   0.0000       0.435368        11.8470 
 113   0.0000       0.443166        12.0592 
 114   0.0000       0.450522        12.2593 
 115   0.0000       0.458907        12.4875 
 116   0.0000       0.470270        12.7967 
 117   0.0000       0.485685        13.2162 
 118   0.0000       0.492859        13.4114 
 119   0.0000       0.509950        13.8765 
 120   0.0000       0.522004        14.2045 
 121   0.0000       0.527390        14.3510 
 122   0.0000       0.538063        14.6414 
 123   0.0000       0.557534        15.1713 
 124   0.0000       0.563419        15.3314 
 125   0.0000       0.567876        15.4527 
 126   0.0000       0.587178        15.9779 
 127   0.0000       0.609789        16.5932 
 128   0.0000       0.615171        16.7396 
 129   0.0000       0.622884        16.9495 
 130   0.0000       0.665143        18.0995 
 131   0.0000       0.671582        18.2747 
 132   0.0000       0.675949        18.3935 
 133   0.0000       0.686407        18.6781 
 134   0.0000       0.700017        19.0484 
 135   0.0000       0.730212        19.8701 
 136   0.0000       0.758335        20.6353 
 137   0.0000       0.774052        21.0630 
 138   0.0000       0.782348        21.2888 
 139   0.0000       0.791381        21.5346 
 140   0.0000       0.801713        21.8157 
 141   0.0000       0.816772        22.2255 
 142   0.0000       0.819722        22.3058 
 143   0.0000       0.830829        22.6080 
 144   0.0000       0.834575        22.7099 
 145   0.0000       0.850422        23.1411 
 146   0.0000       0.857478        23.3332 
 147   0.0000       0.864312        23.5191 
 148   0.0000       0.873487        23.7688 
 149   0.0000       0.877151        23.8685 
 150   0.0000       0.882976        24.0270 
 151   0.0000       0.885934        24.1075 
 152   0.0000       0.894160        24.3313 
 153   0.0000       0.913327        24.8529 
 154   0.0000       0.915850        24.9216 
 155   0.0000       0.923204        25.1217 
 156   0.0000       0.927220        25.2309 
 157   0.0000       0.931686        25.3525 
 158   0.0000       0.933772        25.4092 
 159   0.0000       0.943475        25.6733 
 160   0.0000       0.950794        25.8724 
 161   0.0000       0.961729        26.1700 
 162   0.0000       0.972768        26.4704 
 163   0.0000       0.975041        26.5322 
 164   0.0000       0.984111        26.7790 
 165   0.0000       1.004037        27.3212 
 166   0.0000       1.020753        27.7761 
 167   0.0000       1.029874        28.0243 
 168   0.0000       1.038326        28.2543 
 169   0.0000       1.045326        28.4448 
 170   0.0000       1.063555        28.9408 
 171   0.0000       1.082035        29.4437 
 172   0.0000       1.088843        29.6289 
 173   0.0000       1.137911        30.9641 
 174   0.0000       1.138497        30.9801 
 175   0.0000       1.152751        31.3679 
 176   0.0000       1.159648        31.5556 
 177   0.0000       1.167046        31.7569 
 178   0.0000       1.170551        31.8523 
 179   0.0000       1.185190        32.2507 
 180   0.0000       1.198083        32.6015 
 181   0.0000       1.211248        32.9597 
 182   0.0000       1.223455        33.2919 
 183   0.0000       1.232965        33.5507 
 184   0.0000       1.277322        34.7577 
 185   0.0000       1.297881        35.3172 
 186   0.0000       1.309250        35.6265 
 187   0.0000       1.335742        36.3474 
 188   0.0000       1.349269        36.7155 
 189   0.0000       1.359812        37.0024 
 190   0.0000       1.365858        37.1669 
 191   0.0000       1.376658        37.4608 
 192   0.0000       1.395846        37.9829 
 193   0.0000       1.407342        38.2957 
 194   0.0000       1.411989        38.4222 
 195   0.0000       1.413441        38.4617 
 196   0.0000       1.426339        38.8127 
 197   0.0000       1.461405        39.7668 
 198   0.0000       1.478316        40.2270 
 199   0.0000       1.486861        40.4595 
 200   0.0000       1.496497        40.7217 
 201   0.0000       1.503138        40.9025 
 202   0.0000       1.523364        41.4528 
 203   0.0000       1.528953        41.6049 
 204   0.0000       1.537045        41.8251 
 205   0.0000       1.559328        42.4315 
 206   0.0000       1.562260        42.5113 
 207   0.0000       1.572304        42.7846 
 208   0.0000       1.579346        42.9762 
 209   0.0000       1.588121        43.2150 
 210   0.0000       1.610684        43.8289 
 211   0.0000       1.620019        44.0830 
 212   0.0000       1.620837        44.1052 
 213   0.0000       1.632931        44.4343 
 214   0.0000       1.645961        44.7889 
 215   0.0000       1.654440        45.0196 
 216   0.0000       1.662831        45.2479 
 217   0.0000       1.681939        45.7679 
 218   0.0000       1.685506        45.8649 
 219   0.0000       1.693754        46.0894 
 220   0.0000       1.698563        46.2203 
 221   0.0000       1.710851        46.5546 
 222   0.0000       1.728520        47.0354 
 223   0.0000       1.735026        47.2124 
 224   0.0000       1.740373        47.3580 
 225   0.0000       1.752215        47.6802 
 226   0.0000       1.765649        48.0458 
 227   0.0000       1.781367        48.4735 
 228   0.0000       1.788089        48.6564 
 229   0.0000       1.822981        49.6058 
 230   0.0000       1.830968        49.8232 
 231   0.0000       1.834783        49.9270 
 232   0.0000       1.840067        50.0708 
 233   0.0000       1.866023        50.7771 
 234   0.0000       1.871786        50.9339 
 235   0.0000       1.889126        51.4057 
 236   0.0000       1.911209        52.0067 
 237   0.0000       1.937943        52.7341 
 238   0.0000       1.945851        52.9493 
 239   0.0000       1.976528        53.7841 
 240   0.0000       1.990291        54.1586 
 241   0.0000       2.011284        54.7298 
 242   0.0000       2.038582        55.4726 
 243   0.0000       2.040590        55.5273 
 244   0.0000       2.053383        55.8754 
 245   0.0000       2.064644        56.1818 
 246   0.0000       2.084601        56.7249 
 247   0.0000       2.101768        57.1920 
 248   0.0000       2.130193        57.9655 
 249   0.0000       2.140927        58.2576 
 250   0.0000       2.156704        58.6869 
 251   0.0000       2.158438        58.7341 
 252   0.0000       2.163918        58.8832 
 253   0.0000       2.202359        59.9292 
 254   0.0000       2.219815        60.4042 
 255   0.0000       2.237810        60.8939 
 256   0.0000       2.258643        61.4608 
 257   0.0000       2.261683        61.5435 
 258   0.0000       2.272753        61.8448 
 259   0.0000       2.287137        62.2362 
 260   0.0000       2.339440        63.6594 
 261   0.0000       2.340620        63.6915 
 262   0.0000       2.369603        64.4802 
 263   0.0000       2.383516        64.8588 
 264   0.0000       2.389235        65.0144 
 265   0.0000       2.396049        65.1998 
 266   0.0000       2.404208        65.4218 
 267   0.0000       2.419877        65.8482 
 268   0.0000       2.427261        66.0491 
 269   0.0000       2.441752        66.4434 
 270   0.0000       2.442228        66.4564 
 271   0.0000       2.456835        66.8539 
 272   0.0000       2.481506        67.5252 
 273   0.0000       2.494656        67.8830 
 274   0.0000       2.497566        67.9622 
 275   0.0000       2.499900        68.0257 
 276   0.0000       2.519814        68.5676 
 277   0.0000       2.555457        69.5375 
 278   0.0000       2.562832        69.7382 
 279   0.0000       2.597245        70.6746 
 280   0.0000       2.621358        71.3308 
 281   0.0000       2.632604        71.6368 
 282   0.0000       2.660530        72.3967 
 283   0.0000       2.682336        72.9901 
 284   0.0000       2.701556        73.5131 
 285   0.0000       2.714469        73.8644 
 286   0.0000       2.748357        74.7866 
 287   0.0000       2.756184        74.9996 
 288   0.0000       2.774515        75.4984 
 289   0.0000       2.782307        75.7104 
 290   0.0000       2.817989        76.6814 
 291   0.0000       2.904747        79.0422 
 292   0.0000       2.986905        81.2778 
 293   0.0000       3.025177        82.3192 
 294   0.0000       3.088269        84.0361 
 295   0.0000       3.112797        84.7035 
 296   0.0000       3.363573        91.5275 
 297   0.0000       3.417386        92.9918 
 298   0.0000       3.436068        93.5002 
 299   0.0000       3.440051        93.6085 
 300   0.0000       4.920385       133.8905 
 301   0.0000       4.970432       135.2523 
 302   0.0000       4.989823       135.7800 
 303   0.0000       4.992480       135.8523 
 304   0.0000       5.002329       136.1203 
 305   0.0000       5.010040       136.3301 
 306   0.0000       5.019943       136.5996 
 307   0.0000       5.046251       137.3155 
 308   0.0000       5.050619       137.4343 
 309   0.0000       5.078380       138.1898 
 310   0.0000       5.131999       139.6488 
 311   0.0000       5.159318       140.3922 
 312   0.0000       5.173340       140.7737 
 313   0.0000       5.205032       141.6361 
 314   0.0000       5.256475       143.0360 
 315   0.0000       5.267610       143.3389 
 316   0.0000       5.294027       144.0578 
 317   0.0000       5.306940       144.4092 
 318   0.0000       5.335105       145.1756 
 319   0.0000       5.353839       145.6854 
 320   0.0000       5.371955       146.1783 
 321   0.0000       5.476664       149.0276 
 322   0.0000       5.575217       151.7094 
 323   0.0000       5.636777       153.3845 
 324   0.0000       5.710166       155.3815 
 325   0.0000       5.738530       156.1533 
 326   0.0000       5.852382       159.2514 
 327   0.0000       7.210182       196.1990 
 328   0.0000       7.295204       198.5126 
 329   0.0000       7.326980       199.3773 
 330   0.0000       9.082878       247.1577 
 331   0.0000       9.106280       247.7945 
 332   0.0000      29.584058       805.0231 
 333   0.0000      29.631511       806.3144 
 334   0.0000      29.760147       809.8148 
 335   0.0000      29.895108       813.4872 
 336   0.0000      29.907480       813.8239 
 337   0.0000      30.046454       817.6056 
 338   0.0000      30.082124       818.5762 
 339   0.0000      30.152748       820.4980 
 340   0.0000      30.258916       823.3870 
 341   0.0000      36.540321       994.3127 
 342   0.0000      36.607202       996.1326 
 343   0.0000      36.610670       996.2270 
 344   0.0000      36.614989       996.3445 
 345   0.0000      36.625463       996.6295 
 346   0.0000      36.639374       997.0081 
 347   0.0000      36.641763       997.0730 
 348   0.0000      36.664251       997.6850 
 349   0.0000      36.702296       998.7202 
 350   0.0000      36.716947       999.1189 
 351   0.0000      36.730665       999.4922 
 352   0.0000      36.791877      1001.1579 
 353   0.0000      36.807825      1001.5918 
 354   0.0000      36.854153      1002.8525 
 355   0.0000      36.886534      1003.7336 
 356   0.0000      36.897523      1004.0327 
 357   0.0000      36.924301      1004.7613 
 358   0.0000      36.929071      1004.8911 
 359   0.0000      41.154896      1119.8817 
 360   0.0000      41.233350      1122.0165 
 361   0.0000      41.266163      1122.9094 
 362   0.0000      53.618958      1459.0460 
 363   0.0000      53.641640      1459.6632 

                 SPIN DOWN ORBITALS
  NO   OCC          E(Eh)            E(eV) 
   0   1.0000     -19.120992      -520.3086 
   1   1.0000     -19.100111      -519.7404 
   2   1.0000     -14.370684      -391.0462 
   3   1.0000     -14.349747      -390.4765 
   4   1.0000     -14.308218      -389.3464 
   5   1.0000     -10.301545      -280.3193 
   6   1.0000     -10.288306      -279.9590 
   7   1.0000     -10.239712      -278.6367 
   8   1.0000     -10.225350      -278.2459 
   9   1.0000     -10.206059      -277.7210 
  10   1.0000     -10.196426      -277.4589 
  11   1.0000     -10.185820      -277.1703 
  12   1.0000     -10.185236      -277.1544 
  13   1.0000     -10.177700      -276.9493 
  14   1.0000      -1.043883       -28.4055 
  15   1.0000      -1.021990       -27.8098 
  16   1.0000      -0.929793       -25.3009 
  17   1.0000      -0.916641       -24.9431 
  18   1.0000      -0.875723       -23.8296 
  19   1.0000      -0.792116       -21.5546 
  20   1.0000      -0.754573       -20.5330 
  21   1.0000      -0.727014       -19.7831 
  22   1.0000      -0.712987       -19.4014 
  23   1.0000      -0.662723       -18.0336 
  24   1.0000      -0.611512       -16.6401 
  25   1.0000      -0.597518       -16.2593 
  26   1.0000      -0.579922       -15.7805 
  27   1.0000      -0.547580       -14.9004 
  28   1.0000      -0.536424       -14.5968 
  29   1.0000      -0.488179       -13.2840 
  30   1.0000      -0.479704       -13.0534 
  31   1.0000      -0.471971       -12.8430 
  32   1.0000      -0.462135       -12.5753 
  33   1.0000      -0.455944       -12.4069 
  34   1.0000      -0.449457       -12.2304 
  35   1.0000      -0.445735       -12.1291 
  36   1.0000      -0.427675       -11.6376 
  37   1.0000      -0.424065       -11.5394 
  38   1.0000      -0.419764       -11.4224 
  39   1.0000      -0.405226       -11.0268 
  40   1.0000      -0.399291       -10.8653 
  41   1.0000      -0.394889       -10.7455 
  42   1.0000      -0.385179       -10.4812 
  43   1.0000      -0.372371       -10.1327 
  44   1.0000      -0.368916       -10.0387 
  45   1.0000      -0.359069        -9.7708 
  46   1.0000      -0.344324        -9.3695 
  47   1.0000      -0.340342        -9.2612 
  48   1.0000      -0.328852        -8.9485 
  49   1.0000      -0.269988        -7.3468 
  50   1.0000      -0.267988        -7.2923 
  51   1.0000      -0.250679        -6.8213 
  52   1.0000      -0.246006        -6.6942 
  53   1.0000      -0.237651        -6.4668 
  54   0.0000      -0.044594        -1.2135 
  55   0.0000       0.007282         0.1982 
  56   0.0000       0.012244         0.3332 
  57   0.0000       0.025564         0.6956 
  58   0.0000       0.027738         0.7548 
  59   0.0000       0.030961         0.8425 
  60   0.0000       0.034173         0.9299 
  61   0.0000       0.046818         1.2740 
  62   0.0000       0.060221         1.6387 
  63   0.0000       0.065995         1.7958 
  64   0.0000       0.080032         2.1778 
  65   0.0000       0.088984         2.4214 
  66   0.0000       0.094287         2.5657 
  67   0.0000       0.116706         3.1757 
  68   0.0000       0.127730         3.4757 
  69   0.0000       0.149960         4.0806 
  70   0.0000       0.153532         4.1778 
  71   0.0000       0.162934         4.4337 
  72   0.0000       0.165914         4.5147 
  73   0.0000       0.176945         4.8149 
  74   0.0000       0.182018         4.9530 
  75   0.0000       0.187751         5.1090 
  76   0.0000       0.193880         5.2757 
  77   0.0000       0.197888         5.3848 
  78   0.0000       0.203205         5.5295 
  79   0.0000       0.205933         5.6037 
  80   0.0000       0.215261         5.8576 
  81   0.0000       0.224003         6.0954 
  82   0.0000       0.229060         6.2330 
  83   0.0000       0.231002         6.2859 
  84   0.0000       0.235792         6.4162 
  85   0.0000       0.246348         6.7035 
  86   0.0000       0.249468         6.7884 
  87   0.0000       0.251302         6.8383 
  88   0.0000       0.255253         6.9458 
  89   0.0000       0.265568         7.2265 
  90   0.0000       0.268241         7.2992 
  91   0.0000       0.276052         7.5118 
  92   0.0000       0.279702         7.6111 
  93   0.0000       0.285022         7.7558 
  94   0.0000       0.291246         7.9252 
  95   0.0000       0.294284         8.0079 
  96   0.0000       0.304229         8.2785 
  97   0.0000       0.307396         8.3647 
  98   0.0000       0.314784         8.5657 
  99   0.0000       0.322523         8.7763 
 100   0.0000       0.328151         8.9294 
 101   0.0000       0.332890         9.0584 
 102   0.0000       0.333648         9.0790 
 103   0.0000       0.353790         9.6271 
 104   0.0000       0.366324         9.9682 
 105   0.0000       0.374741        10.1972 
 106   0.0000       0.382451        10.4070 
 107   0.0000       0.389275        10.5927 
 108   0.0000       0.392881        10.6908 
 109   0.0000       0.406855        11.0711 
 110   0.0000       0.411913        11.2087 
 111   0.0000       0.425977        11.5914 
 112   0.0000       0.437053        11.8928 
 113   0.0000       0.443883        12.0787 
 114   0.0000       0.451923        12.2975 
 115   0.0000       0.459514        12.5040 
 116   0.0000       0.473419        12.8824 
 117   0.0000       0.490274        13.3410 
 118   0.0000       0.493819        13.4375 
 119   0.0000       0.511746        13.9253 
 120   0.0000       0.525872        14.3097 
 121   0.0000       0.529822        14.4172 
 122   0.0000       0.540332        14.7032 
 123   0.0000       0.558227        15.1901 
 124   0.0000       0.570418        15.5219 
 125   0.0000       0.577282        15.7086 
 126   0.0000       0.590782        16.0760 
 127   0.0000       0.611936        16.6516 
 128   0.0000       0.616937        16.7877 
 129   0.0000       0.624943        17.0056 
 130   0.0000       0.666710        18.1421 
 131   0.0000       0.673368        18.3233 
 132   0.0000       0.677417        18.4335 
 133   0.0000       0.687656        18.7121 
 134   0.0000       0.701498        19.0887 
 135   0.0000       0.731721        19.9111 
 136   0.0000       0.759482        20.6666 
 137   0.0000       0.777540        21.1579 
 138   0.0000       0.783955        21.3325 
 139   0.0000       0.793498        21.5922 
 140   0.0000       0.804495        21.8914 
 141   0.0000       0.818128        22.2624 
 142   0.0000       0.821558        22.3557 
 143   0.0000       0.831861        22.6361 
 144   0.0000       0.835684        22.7401 
 145   0.0000       0.851703        23.1760 
 146   0.0000       0.858320        23.3561 
 147   0.0000       0.865431        23.5496 
 148   0.0000       0.876905        23.8618 
 149   0.0000       0.879246        23.9255 
 150   0.0000       0.886511        24.1232 
 151   0.0000       0.888174        24.1684 
 152   0.0000       0.896965        24.4077 
 153   0.0000       0.914052        24.8726 
 154   0.0000       0.917133        24.9565 
 155   0.0000       0.925065        25.1723 
 156   0.0000       0.927829        25.2475 
 157   0.0000       0.932258        25.3680 
 158   0.0000       0.936305        25.4781 
 159   0.0000       0.947095        25.7718 
 160   0.0000       0.952744        25.9255 
 161   0.0000       0.966936        26.3117 
 162   0.0000       0.974104        26.5067 
 163   0.0000       0.976757        26.5789 
 164   0.0000       0.986550        26.8454 
 165   0.0000       1.005187        27.3525 
 166   0.0000       1.022370        27.8201 
 167   0.0000       1.033121        28.1126 
 168   0.0000       1.039570        28.2881 
 169   0.0000       1.047518        28.5044 
 170   0.0000       1.064455        28.9653 
 171   0.0000       1.083418        29.4813 
 172   0.0000       1.094220        29.7752 
 173   0.0000       1.138675        30.9849 
 174   0.0000       1.143295        31.1106 
 175   0.0000       1.156107        31.4593 
 176   0.0000       1.161821        31.6148 
 177   0.0000       1.168759        31.8035 
 178   0.0000       1.172579        31.9075 
 179   0.0000       1.188189        32.3323 
 180   0.0000       1.200122        32.6570 
 181   0.0000       1.212801        33.0020 
 182   0.0000       1.225360        33.3437 
 183   0.0000       1.237243        33.6671 
 184   0.0000       1.280596        34.8468 
 185   0.0000       1.305572        35.5264 
 186   0.0000       1.311199        35.6795 
 187   0.0000       1.337465        36.3943 
 188   0.0000       1.350875        36.7592 
 189   0.0000       1.364569        37.1318 
 190   0.0000       1.370754        37.3001 
 191   0.0000       1.379177        37.5293 
 192   0.0000       1.403939        38.2031 
 193   0.0000       1.409042        38.3420 
 194   0.0000       1.412449        38.4347 
 195   0.0000       1.414222        38.4829 
 196   0.0000       1.431348        38.9490 
 197   0.0000       1.463603        39.8267 
 198   0.0000       1.480065        40.2746 
 199   0.0000       1.487227        40.4695 
 200   0.0000       1.498285        40.7704 
 201   0.0000       1.505150        40.9572 
 202   0.0000       1.525324        41.5062 
 203   0.0000       1.531632        41.6778 
 204   0.0000       1.539312        41.8868 
 205   0.0000       1.560546        42.4646 
 206   0.0000       1.564019        42.5591 
 207   0.0000       1.574314        42.8393 
 208   0.0000       1.580812        43.0161 
 209   0.0000       1.591304        43.3016 
 210   0.0000       1.613865        43.9155 
 211   0.0000       1.621605        44.1261 
 212   0.0000       1.625067        44.2203 
 213   0.0000       1.635587        44.5066 
 214   0.0000       1.648437        44.8562 
 215   0.0000       1.659106        45.1466 
 216   0.0000       1.663975        45.2791 
 217   0.0000       1.683839        45.8196 
 218   0.0000       1.689692        45.9788 
 219   0.0000       1.698246        46.2116 
 220   0.0000       1.701275        46.2941 
 221   0.0000       1.714719        46.6599 
 222   0.0000       1.728980        47.0479 
 223   0.0000       1.736143        47.2428 
 224   0.0000       1.741895        47.3994 
 225   0.0000       1.754841        47.7517 
 226   0.0000       1.767992        48.1095 
 227   0.0000       1.786606        48.6160 
 228   0.0000       1.792730        48.7827 
 229   0.0000       1.825787        49.6822 
 230   0.0000       1.832704        49.8704 
 231   0.0000       1.836942        49.9857 
 232   0.0000       1.843378        50.1609 
 233   0.0000       1.870784        50.9066 
 234   0.0000       1.876121        51.0519 
 235   0.0000       1.890444        51.4416 
 236   0.0000       1.915395        52.1205 
 237   0.0000       1.938790        52.7571 
 238   0.0000       1.948422        53.0193 
 239   0.0000       1.977124        53.8003 
 240   0.0000       1.991336        54.1870 
 241   0.0000       2.012336        54.7584 
 242   0.0000       2.041082        55.5407 
 243   0.0000       2.042791        55.5872 
 244   0.0000       2.054942        55.9178 
 245   0.0000       2.067222        56.2520 
 246   0.0000       2.085271        56.7431 
 247   0.0000       2.104232        57.2591 
 248   0.0000       2.134197        58.0744 
 249   0.0000       2.143215        58.3198 
 250   0.0000       2.157989        58.7219 
 251   0.0000       2.161724        58.8235 
 252   0.0000       2.170199        59.0541 
 253   0.0000       2.203317        59.9553 
 254   0.0000       2.220915        60.4342 
 255   0.0000       2.241268        60.9880 
 256   0.0000       2.261309        61.5333 
 257   0.0000       2.264931        61.6319 
 258   0.0000       2.275436        61.9178 
 259   0.0000       2.289005        62.2870 
 260   0.0000       2.340342        63.6839 
 261   0.0000       2.344057        63.7850 
 262   0.0000       2.371777        64.5393 
 263   0.0000       2.384308        64.8803 
 264   0.0000       2.390729        65.0551 
 265   0.0000       2.396248        65.2052 
 266   0.0000       2.405163        65.4478 
 267   0.0000       2.420860        65.8750 
 268   0.0000       2.427706        66.0612 
 269   0.0000       2.442044        66.4514 
 270   0.0000       2.443918        66.5024 
 271   0.0000       2.460993        66.9670 
 272   0.0000       2.483039        67.5669 
 273   0.0000       2.496796        67.9413 
 274   0.0000       2.498128        67.9775 
 275   0.0000       2.501648        68.0733 
 276   0.0000       2.522879        68.6510 
 277   0.0000       2.556626        69.5693 
 278   0.0000       2.565628        69.8143 
 279   0.0000       2.599105        70.7252 
 280   0.0000       2.621935        71.3465 
 281   0.0000       2.633448        71.6598 
 282   0.0000       2.661856        72.4328 
 283   0.0000       2.683353        73.0177 
 284   0.0000       2.703309        73.5608 
 285   0.0000       2.714833        73.8744 
 286   0.0000       2.748660        74.7948 
 287   0.0000       2.756534        75.0091 
 288   0.0000       2.774878        75.5083 
 289   0.0000       2.784105        75.7594 
 290   0.0000       2.818101        76.6844 
 291   0.0000       2.905089        79.0515 
 292   0.0000       2.987105        81.2833 
 293   0.0000       3.025316        82.3230 
 294   0.0000       3.088473        84.0416 
 295   0.0000       3.112982        84.7085 
 296   0.0000       3.363654        91.5297 
 297   0.0000       3.417491        92.9946 
 298   0.0000       3.436178        93.5031 
 299   0.0000       3.440160        93.6115 
 300   0.0000       4.920697       133.8990 
 301   0.0000       4.971952       135.2937 
 302   0.0000       4.989865       135.7811 
 303   0.0000       4.992754       135.8598 
 304   0.0000       5.009074       136.3038 
 305   0.0000       5.012224       136.3895 
 306   0.0000       5.020367       136.6111 
 307   0.0000       5.047338       137.3450 
 308   0.0000       5.058286       137.6430 
 309   0.0000       5.082904       138.3128 
 310   0.0000       5.132983       139.6756 
 311   0.0000       5.159662       140.4015 
 312   0.0000       5.176947       140.8719 
 313   0.0000       5.206114       141.6656 
 314   0.0000       5.256593       143.0392 
 315   0.0000       5.268829       143.3721 
 316   0.0000       5.295792       144.1058 
 317   0.0000       5.314184       144.6063 
 318   0.0000       5.339752       145.3020 
 319   0.0000       5.354964       145.7160 
 320   0.0000       5.376233       146.2948 
 321   0.0000       5.480858       149.1417 
 322   0.0000       5.577567       151.7733 
 323   0.0000       5.638448       153.4300 
 324   0.0000       5.710145       155.3809 
 325   0.0000       5.738870       156.1626 
 326   0.0000       5.860203       159.4642 
 327   0.0000       7.210331       196.2031 
 328   0.0000       7.295260       198.5141 
 329   0.0000       7.327052       199.3792 
 330   0.0000       9.083080       247.1632 
 331   0.0000       9.106454       247.7992 
 332   0.0000      29.587766       805.1241 
 333   0.0000      29.632187       806.3328 
 334   0.0000      29.765237       809.9533 
 335   0.0000      29.895169       813.4889 
 336   0.0000      29.912018       813.9474 
 337   0.0000      30.047218       817.6264 
 338   0.0000      30.082327       818.5817 
 339   0.0000      30.152787       820.4990 
 340   0.0000      30.262625       823.4879 
 341   0.0000      36.540363       994.3138 
 342   0.0000      36.607472       996.1400 
 343   0.0000      36.610730       996.2286 
 344   0.0000      36.615156       996.3491 
 345   0.0000      36.638715       996.9901 
 346   0.0000      36.639502       997.0115 
 347   0.0000      36.645225       997.1673 
 348   0.0000      36.673531       997.9375 
 349   0.0000      36.705202       998.7993 
 350   0.0000      36.717696       999.1393 
 351   0.0000      36.730978       999.5007 
 352   0.0000      36.786452      1001.0103 
 353   0.0000      36.810336      1001.6602 
 354   0.0000      36.856608      1002.9193 
 355   0.0000      36.893543      1003.9243 
 356   0.0000      36.901657      1004.1451 
 357   0.0000      36.925798      1004.8020 
 358   0.0000      36.937102      1005.1096 
 359   0.0000      41.154956      1119.8833 
 360   0.0000      41.233382      1122.0174 
 361   0.0000      41.266197      1122.9103 
 362   0.0000      53.619070      1459.0491 
 363   0.0000      53.641741      1459.6660 

                    ********************************
                    * MULLIKEN POPULATION ANALYSIS *
                    ********************************

--------------------------------------------
MULLIKEN ATOMIC CHARGES AND SPIN POPULATIONS
--------------------------------------------
   0 N :   -0.111633    0.000108
   1 C :   -0.146455    0.002223
   2 C :    0.118964    0.011616
   3 O :   -0.335713    0.001377
   4 C :   -0.271333   -0.060850
   5 C :   -0.078666    0.998473
   6 C :   -0.316928   -0.060801
   7 C :   -0.287544    0.009472
   8 N :   -0.459165    0.001335
   9 H :    0.127242   -0.048169
  10 H :    0.148090    0.054733
  11 H :    0.163027    0.019562
  12 H :    0.166388   -0.000823
  13 H :    0.136337   -0.000692
  14 H :    0.210293   -0.000257
  15 H :    0.210370    0.000123
  16 H :    0.251838    0.000094
  17 C :    0.175070    0.000095
  18 N :   -0.104252   -0.002630
  19 H :    0.233863    0.000228
  20 O :   -0.327443    0.003130
  21 C :   -0.555494   -0.000043
  22 H :    0.185401    0.000013
  23 H :    0.186490    0.000007
  24 H :    0.149312    0.000024
  25 C :   -0.443533    0.000359
  26 H :    0.177212    0.000035
  27 H :    0.144837    0.000011
  28 H :    0.188744    0.000125
  29 H :    0.156516   -0.000160
  30 H :    0.127154    0.020386
  31 H :    0.181012    0.050896
Sum of atomic charges         :    0.0000000
Sum of atomic spin populations:    1.0000000

-----------------------------------------------------
MULLIKEN REDUCED ORBITAL CHARGES AND SPIN POPULATIONS
-----------------------------------------------------
CHARGE
  0 N s       :     3.364015  s :     3.364015
      pz      :     1.114348  p :     3.713831
      px      :     1.367983
      py      :     1.231501
      dz2     :     0.010279  d :     0.033787
      dxz     :     0.004660
      dyz     :     0.008048
      dx2y2   :     0.004878
      dxy     :     0.005923
  1 C s       :     3.189794  s :     3.189794
      pz      :     0.994508  p :     2.852389
      px      :     0.961801
      py      :     0.896080
      dz2     :     0.011501  d :     0.104272
      dxz     :     0.028419
      dyz     :     0.024068
      dx2y2   :     0.022140
      dxy     :     0.018144
  2 C s       :     3.082248  s :     3.082248
      pz      :     0.869284  p :     2.605606
      px      :     0.814777
      py      :     0.921545
      dz2     :     0.036168  d :     0.193181
      dxz     :     0.046157
      dyz     :     0.080623
      dx2y2   :     0.014936
      dxy     :     0.015298
  3 O s       :     3.901004  s :     3.901004
      pz      :     1.209300  p :     4.416471
      px      :     1.468310
[...]
                 0.3223              -1.6904               0.3166
                 1.9144               0.3161              -0.8002

 A(FC)          -0.1384              -0.1384              -0.1384
 A(SD)          -1.4653              -1.7437               3.2089
 A(ORB+DIA)      0.0001               0.0001               0.0016    A(PC) =   0.0006
 A(ORB)         -0.0000              -0.0001               0.0013    A(PC) =   0.0004
 A(DIA)          0.0001               0.0002               0.0003    A(PC) =   0.0002
             ----------           ----------           ----------
 A(Tot)         -1.6035              -1.8819               3.0722    A(iso)=   -0.1377
 Orientation: 
  X          -0.3612267           -0.2786899            0.8898579
  Y           0.7375832           -0.6692570            0.0898116
  Z           0.5705141            0.6887866            0.4473105

Notes:  (1) The A matrix conforms to the "SAI" spin Hamiltonian convention.
        (2) Tensor is right-handed.

 -----------------------------------------------------------
 Nucleus  29H : A:ISTP=    1 I=  0.5 P=533.5514 MHz/au**3
                Q:ISTP=    2 I=  1.0 Q=  0.0029 barn     
 -----------------------------------------------------------
 Solving for nuclear perturbation:
Forming RHS of the CP-SCF equations         ... 
Calc. nucleus orbit integrals (SHARK)       ... done

------------------------------------------------------------------------------
                           ORCA CP-SCF CALCULATION
------------------------------------------------------------------------------

Input orbitals are from        ... epr_info.gbw
Input Perturbation             ... epr_info.pin.tmp
Wavefunction output            ... epr_info.pout.tmp
Perturbation mode              ... Imaginary perturbation
Solver                         ... POPLE
Max. number of iterations      ... 64
Convergence tolerance          ... 1.000e-03
Integral handling              ... Direct
DFT GridXC                     ... 1
COSX GridX                     ... 1
COSX IntAccX                   ... 3.067
COSX Algorithm                 ... Auto
Number of perturbations        ... 3
Number of operators            ... 2
Orbital ranges used for CP-SCF:
 Operator 0:  Orbitals   0... 54  to  55...363
 Operator 1:  Orbitals   0... 53  to  54...363
Variables per perturbation     ... 33735
DFT calculation                         ... on
XC functional terms                     ... off
Hybrid DFT                              ... on
   Exchange mixing (SCF)                ...  0.200
   Exchange mixing (CP-SCF)             ...  0.200
   GGA exch. scaling(SCF)               ...  0.720
   GGA exch. scaling (CP-SCF)           ...  0.720
   GGA corr. scaling (SCF)              ...  0.810
   GGA corr. scaling (CP-SCF)           ...  0.810

CP-SCF GRID
-----------

General Integration Accuracy     IntAcc      ... 3.467
Radial Grid Type                 RadialGrid  ... OptM3 with GC (2021)
Angular Grid (max. ang.)         AngularGrid ... 1 (Lebedev-50)
Angular grid pruning method      GridPruning ... 4 (adaptive)
Weight generation scheme         WeightScheme... Becke
Basis function cutoff            BFCut       ... 1.0000e-10
Integration weight cutoff        WCut        ... 1.0000e-14
Angular grids for H and He will be reduced by one unit
Partially contracted basis set               ... off
Rotationally invariant grid construction     ... off

Total number of grid points                  ...    19992
Total number of batches                      ...      328
Average number of points per batch           ...       60
Average number of grid points per atom       ...      625

CP-SCF GRIDX
------------

General Integration Accuracy     IntAcc      ... 3.067
Radial Grid Type                 RadialGrid  ... OptM3 with GC (2021)
Angular Grid (max. ang.)         AngularGrid ... 1 (Lebedev-50)
Angular grid pruning method      GridPruning ... 4 (adaptive)
Weight generation scheme         WeightScheme... Becke
Basis function cutoff            BFCut       ... 1.0000e-10
Integration weight cutoff        WCut        ... 1.0000e-14
Angular grids for H and He will be reduced by one unit
Partially contracted basis set               ... on
Rotationally invariant grid construction     ... off

Total number of grid points                  ...     9437
Total number of batches                      ...      166
Average number of points per batch           ...       56
Average number of grid points per atom       ...      295

Memory available               ... 921.9 MB
Memory needed per perturbation ...   8.0 MB
Perturbations treated per batch... 3
Number of batches              ... 1
     CP-SCF ITERATION   0:   4.1469e-02 (   0.5 sec   0/  3 done)
     CP-SCF ITERATION   1:   1.2536e-03 (   0.5 sec   1/  3 done)
     CP-SCF ITERATION   2:   1.1893e-04 (   0.4 sec   3/  3 done)
                    *** THE CP-SCF HAS CONVERGED ***

Forming final perturbed densities           ... done
Transforming perturbed density to AO basis  ... done

 Raw HFC matrix (all values in MHz): 
 -----------------------------------
                 1.4886               1.5222              -1.5520
                 1.5216              -1.7510              -0.4447
                -1.5508              -0.4446              -1.8755

 A(FC)          -0.7133              -0.7133              -0.7133
 A(SD)          -1.5310              -1.8415               3.3725
 A(ORB+DIA)      0.0005               0.0000               0.0015    A(PC) =   0.0007
 A(ORB)          0.0003              -0.0003               0.0012    A(PC) =   0.0004
 A(DIA)          0.0002               0.0003               0.0003    A(PC) =   0.0003
             ----------           ----------           ----------
 A(Tot)         -2.2438              -2.5548               2.6607    A(iso)=   -0.7126
 Orientation: 
  X          -0.1030111            0.4635860            0.8800436
  Y           0.8225899           -0.4577185            0.3374012
  Z           0.5592268            0.7586710           -0.3341911

Notes:  (1) The A matrix conforms to the "SAI" spin Hamiltonian convention.
        (2) Tensor is right-handed.

 -----------------------------------------------------------
 Nucleus  30H : A:ISTP=    1 I=  0.5 P=533.5514 MHz/au**3
                Q:ISTP=    2 I=  1.0 Q=  0.0029 barn     
 -----------------------------------------------------------
 Solving for nuclear perturbation:
Forming RHS of the CP-SCF equations         ... 
Calc. nucleus orbit integrals (SHARK)       ... done

------------------------------------------------------------------------------
                           ORCA CP-SCF CALCULATION
------------------------------------------------------------------------------

Input orbitals are from        ... epr_info.gbw
Input Perturbation             ... epr_info.pin.tmp
Wavefunction output            ... epr_info.pout.tmp
Perturbation mode              ... Imaginary perturbation
Solver                         ... POPLE
Max. number of iterations      ... 64
Convergence tolerance          ... 1.000e-03
Integral handling              ... Direct
DFT GridXC                     ... 1
COSX GridX                     ... 1
COSX IntAccX                   ... 3.067
COSX Algorithm                 ... Auto
Number of perturbations        ... 3
Number of operators            ... 2
Orbital ranges used for CP-SCF:
 Operator 0:  Orbitals   0... 54  to  55...363
 Operator 1:  Orbitals   0... 53  to  54...363
Variables per perturbation     ... 33735
DFT calculation                         ... on
XC functional terms                     ... off
Hybrid DFT                              ... on
   Exchange mixing (SCF)                ...  0.200
   Exchange mixing (CP-SCF)             ...  0.200
   GGA exch. scaling(SCF)               ...  0.720
   GGA exch. scaling (CP-SCF)           ...  0.720
   GGA corr. scaling (SCF)              ...  0.810
   GGA corr. scaling (CP-SCF)           ...  0.810

CP-SCF GRID
-----------

General Integration Accuracy     IntAcc      ... 3.467
Radial Grid Type                 RadialGrid  ... OptM3 with GC (2021)
Angular Grid (max. ang.)         AngularGrid ... 1 (Lebedev-50)
Angular grid pruning method      GridPruning ... 4 (adaptive)
Weight generation scheme         WeightScheme... Becke
Basis function cutoff            BFCut       ... 1.0000e-10
Integration weight cutoff        WCut        ... 1.0000e-14
Angular grids for H and He will be reduced by one unit
Partially contracted basis set               ... off
Rotationally invariant grid construction     ... off

Total number of grid points                  ...    19992
Total number of batches                      ...      328
Average number of points per batch           ...       60
Average number of grid points per atom       ...      625

CP-SCF GRIDX
------------

General Integration Accuracy     IntAcc      ... 3.067
Radial Grid Type                 RadialGrid  ... OptM3 with GC (2021)
Angular Grid (max. ang.)         AngularGrid ... 1 (Lebedev-50)
Angular grid pruning method      GridPruning ... 4 (adaptive)
Weight generation scheme         WeightScheme... Becke
Basis function cutoff            BFCut       ... 1.0000e-10
Integration weight cutoff        WCut        ... 1.0000e-14
Angular grids for H and He will be reduced by one unit
Partially contracted basis set               ... on
Rotationally invariant grid construction     ... off

Total number of grid points                  ...     9437
Total number of batches                      ...      166
Average number of points per batch           ...       56
Average number of grid points per atom       ...      295

Memory available               ... 921.6 MB
Memory needed per perturbation ...   8.0 MB
Perturbations treated per batch... 3
Number of batches              ... 1
     CP-SCF ITERATION   0:   4.0282e-02 (   0.5 sec   0/  3 done)
     CP-SCF ITERATION   1:   1.1409e-03 (   0.5 sec   1/  3 done)
     CP-SCF ITERATION   2:   9.5337e-05 (   0.4 sec   3/  3 done)
                    *** THE CP-SCF HAS CONVERGED ***

Forming final perturbed densities           ... done
Transforming perturbed density to AO basis  ... done

 Raw HFC matrix (all values in MHz): 
 -----------------------------------
                46.8223               1.9941              -4.1033
                 1.9955              46.7924              -3.9620
                -4.1054              -3.9648              55.7112

 A(FC)          49.7736              49.7736              49.7736
 A(SD)          -4.9646              -4.1847               9.1493
 A(ORB+DIA)      0.0013               0.0002               0.0036    A(PC) =   0.0017
 A(ORB)          0.0009              -0.0004               0.0027    A(PC) =   0.0011
 A(DIA)          0.0004               0.0006               0.0009    A(PC) =   0.0006
             ----------           ----------           ----------
 A(Tot)         44.8103              45.5892              58.9265    A(iso)=   49.7753
 Orientation: 
  X           0.7325051            0.5828187           -0.3517935
  Y          -0.6801641            0.6482142           -0.3423379
  Z           0.0285166            0.4900415            0.8712325

Notes:  (1) The A matrix conforms to the "SAI" spin Hamiltonian convention.
        (2) Tensor is right-handed.

 -----------------------------------------------------------
 Nucleus  31H : A:ISTP=    1 I=  0.5 P=533.5514 MHz/au**3
                Q:ISTP=    2 I=  1.0 Q=  0.0029 barn     
 -----------------------------------------------------------
 Solving for nuclear perturbation:
Forming RHS of the CP-SCF equations         ... 
Calc. nucleus orbit integrals (SHARK)       ... done

------------------------------------------------------------------------------
                           ORCA CP-SCF CALCULATION
------------------------------------------------------------------------------

Input orbitals are from        ... epr_info.gbw
Input Perturbation             ... epr_info.pin.tmp
Wavefunction output            ... epr_info.pout.tmp
Perturbation mode              ... Imaginary perturbation
Solver                         ... POPLE
Max. number of iterations      ... 64
Convergence tolerance          ... 1.000e-03
Integral handling              ... Direct
DFT GridXC                     ... 1
COSX GridX                     ... 1
COSX IntAccX                   ... 3.067
COSX Algorithm                 ... Auto
Number of perturbations        ... 3
Number of operators            ... 2
Orbital ranges used for CP-SCF:
 Operator 0:  Orbitals   0... 54  to  55...363
 Operator 1:  Orbitals   0... 53  to  54...363
Variables per perturbation     ... 33735
DFT calculation                         ... on
XC functional terms                     ... off
Hybrid DFT                              ... on
   Exchange mixing (SCF)                ...  0.200
   Exchange mixing (CP-SCF)             ...  0.200
   GGA exch. scaling(SCF)               ...  0.720
   GGA exch. scaling (CP-SCF)           ...  0.720
   GGA corr. scaling (SCF)              ...  0.810
   GGA corr. scaling (CP-SCF)           ...  0.810

CP-SCF GRID
-----------

General Integration Accuracy     IntAcc      ... 3.467
Radial Grid Type                 RadialGrid  ... OptM3 with GC (2021)
Angular Grid (max. ang.)         AngularGrid ... 1 (Lebedev-50)
Angular grid pruning method      GridPruning ... 4 (adaptive)
Weight generation scheme         WeightScheme... Becke
Basis function cutoff            BFCut       ... 1.0000e-10
Integration weight cutoff        WCut        ... 1.0000e-14
Angular grids for H and He will be reduced by one unit
Partially contracted basis set               ... off
Rotationally invariant grid construction     ... off

Total number of grid points                  ...    19992
Total number of batches                      ...      328
Average number of points per batch           ...       60
Average number of grid points per atom       ...      625

CP-SCF GRIDX
------------

General Integration Accuracy     IntAcc      ... 3.067
Radial Grid Type                 RadialGrid  ... OptM3 with GC (2021)
Angular Grid (max. ang.)         AngularGrid ... 1 (Lebedev-50)
Angular grid pruning method      GridPruning ... 4 (adaptive)
Weight generation scheme         WeightScheme... Becke
Basis function cutoff            BFCut       ... 1.0000e-10
Integration weight cutoff        WCut        ... 1.0000e-14
Angular grids for H and He will be reduced by one unit
Partially contracted basis set               ... on
Rotationally invariant grid construction     ... off

Total number of grid points                  ...     9437
Total number of batches                      ...      166
Average number of points per batch           ...       56
Average number of grid points per atom       ...      295

Memory available               ... 921.2 MB
Memory needed per perturbation ...   8.0 MB
Perturbations treated per batch... 3
Number of batches              ... 1
     CP-SCF ITERATION   0:   4.0304e-02 (   0.5 sec   0/  3 done)
     CP-SCF ITERATION   1:   1.0120e-03 (   0.5 sec   2/  3 done)
     CP-SCF ITERATION   2:   8.2562e-05 (   0.3 sec   3/  3 done)
                    *** THE CP-SCF HAS CONVERGED ***

Forming final perturbed densities           ... done
Transforming perturbed density to AO basis  ... done

 Raw HFC matrix (all values in MHz): 
 -----------------------------------
               129.9330              -0.8790              -6.1296
                -0.8784             126.7977               1.9489
                -6.1313               1.9516             131.3126

 A(FC)         129.3471             129.3471             129.3471
 A(SD)          -5.0814              -2.7623               7.8437
 A(ORB+DIA)     -0.0007               0.0003               0.0027    A(PC) =   0.0007
 A(ORB)         -0.0010              -0.0002               0.0020    A(PC) =   0.0003
 A(DIA)          0.0003               0.0004               0.0007    A(PC) =   0.0005
             ----------           ----------           ----------
 A(Tot)        124.2649             126.5850             137.1934    A(iso)=  129.3478
 Orientation: 
  X          -0.6844489            0.3368817            0.6465605
  Y           0.2804236            0.9402619           -0.1930545
  Z          -0.6729728            0.0491749           -0.7380308

Notes:  (1) The A matrix conforms to the "SAI" spin Hamiltonian convention.
        (2) Tensor is right-handed.


--------------------------------------------------------------------------------
----------------------------------------------------------------------------
                           ORCA EULER ANGLE PROGRAM
----------------------------------------------------------------------------

Only g-tensor available        -->  using g-tensor as reference tensor

Reference tensor               ...  g

g-tensor ordering              ...  |g_min> --> |gx>
                                    |g_mid> --> |gy>
                                    |g_max> --> |gz>

A- and EFG-tensor ordering     ...  the axes |Ax>, |Qx>, |Ay>, etc. are assigned
                                    such that the Euler rotation is minimal. You
                                    can find the respective eigenvalues as Ax,
                                    EFGx, Ay, etc. in the tables below.
                                    The relation of |Ax>, |Ay>,  etc. to Amin, Amid, etc.
                                    (as printed in the ORCA EPR/NMR CALCULATION Output)
                                    is obtained in the detailed printout.

Euler rotation around          ...  z - y - z
   First rotation              -->  by alpha around z
   Second rotation             -->  by beta around y'
   Third rotation              -->  by gamma around z''
   Positive / Negative angle   -->  clockwise / counterclockwise rotation

Plot EFG-tensors                    (-)
Plot HFC-tensors                    (-)
Detailed Printout                   (-)

-------------------------------------------------------------------------
          Euler rotation of hyperfine tensor to g-tensor
-------------------------------------------------------------------------

-------------------------------------------------------------------
 Atom  |   Alpha    Beta    Gamma   |   Ax       Ay       Az 
       |          [degrees]         |           [MHz]         
-------------------------------------------------------------------
  0N      -28.2     22.5     12.8      -4.13     2.82    -5.96
  8N      -22.6     29.1     61.1       3.51    -1.30    -3.68
  9H     -117.3     24.7    115.7     -59.41   -96.49   -19.75
 10H      148.4     26.5   -177.7     126.03   137.19   124.00
 11H       58.2     35.3    -44.4      43.29    57.20    44.03
 12H     -126.3     39.7    159.7      -4.36     4.47    -5.78
 13H      100.4     44.9   -105.1      -4.23    -4.45     3.99
 14H     -128.3     34.7    139.2      -1.18     1.14    -1.40
 15H     -155.2     35.5    150.0      -0.06     2.78    -0.78
 16H      149.2     39.2   -151.6      -1.60     3.07    -1.88
 29H     -136.4     42.8    136.2      -2.24     2.66    -2.55
 30H       90.3     20.8   -126.4      44.81    45.59    58.93
 31H       82.8     37.6    -53.5     126.59   124.26   137.19
-------------------------------------------------------------------


Maximum memory used throughout the entire EPRNMR-calculation: 135.8 MB

Timings for individual modules:

Sum of individual times         ...      401.025 sec (=   6.684 min)
GTO integral calculation        ...        3.468 sec (=   0.058 min)   0.9 %
Spin-Orbit-Coupling Matrices    ...        4.594 sec (=   0.077 min)   1.1 %
SCF iterations                  ...       23.912 sec (=   0.399 min)   6.0 %
EPR/NMR calculation             ...      369.052 sec (=   6.151 min)  92.0 %
                             ****ORCA TERMINATED NORMALLY****
TOTAL RUN TIME: 0 days 0 hours 6 minutes 43 seconds 550 msec
