
                                 *****************
                                 * O   R   C   A *
                                 *****************

                                            #,                                       
                                            ###                                      
                                            ####                                     
                                            #####                                    
                                            ######                                   
                                           ########,                                 
                                     ,,################,,,,,                         
                               ,,#################################,,                 
                          ,,##########################################,,             
                       ,#########################################, ''#####,          
                    ,#############################################,,   '####,        
                  ,##################################################,,,,####,       
                ,###########''''           ''''###############################       
              ,#####''   ,,,,##########,,,,          '''####'''          '####       
            ,##' ,,,,###########################,,,                        '##       
           ' ,,###''''                  '''############,,,                           
         ,,##''                                '''############,,,,        ,,,,,,###''
      ,#''                                            '''#######################'''  
     '                                                          ''''####''''         
             ,#######,   #######,   ,#######,      ##                                
            ,#'     '#,  ##    ##  ,#'     '#,    #''#        ######   ,####,        
            ##       ##  ##   ,#'  ##            #'  '#       #        #'  '#        
            ##       ##  #######   ##           ,######,      #####,   #    #        
            '#,     ,#'  ##    ##  '#,     ,#' ,#      #,         ##   #,  ,#        
             '#######'   ##     ##  '#######'  #'      '#     #####' # '####'        



                  #######################################################
                  #                        -***-                        #
                  #          Department of theory and spectroscopy      #
                  #    Directorship and core code : Frank Neese         #
                  #        Max Planck Institute fuer Kohlenforschung    #
                  #                Kaiser Wilhelm Platz 1               #
                  #                 D-45470 Muelheim/Ruhr               #
                  #                      Germany                        #
                  #                                                     #
                  #                  All rights reserved                #
                  #                        -***-                        #
                  #######################################################


                         Program Version 5.0.4 -  RELEASE  -


 With contributions from (in alphabetic order):
   Daniel Aravena         : Magnetic Suceptibility
   Michael Atanasov       : Ab Initio Ligand Field Theory (pilot matlab implementation)
   Alexander A. Auer      : GIAO ZORA, VPT2 properties, NMR spectrum
   Ute Becker             : Parallelization
   Giovanni Bistoni       : ED, misc. LED, open-shell LED, HFLD
   Martin Brehm           : Molecular dynamics
   Dmytro Bykov           : SCF Hessian
   Vijay G. Chilkuri      : MRCI spin determinant printing, contributions to CSF-ICE
   Dipayan Datta          : RHF DLPNO-CCSD density
   Achintya Kumar Dutta   : EOM-CC, STEOM-CC
   Dmitry Ganyushin       : Spin-Orbit,Spin-Spin,Magnetic field MRCI
   Miquel Garcia          : C-PCM and meta-GGA Hessian, CC/C-PCM, Gaussian charge scheme
   Yang Guo               : DLPNO-NEVPT2, F12-NEVPT2, CIM, IAO-localization
   Andreas Hansen         : Spin unrestricted coupled pair/coupled cluster methods
   Benjamin Helmich-Paris : MC-RPA, TRAH-SCF, COSX integrals
   Lee Huntington         : MR-EOM, pCC
   Robert Izsak           : Overlap fitted RIJCOSX, COSX-SCS-MP3, EOM
   Marcus Kettner         : VPT2
   Christian Kollmar      : KDIIS, OOCD, Brueckner-CCSD(T), CCSD density, CASPT2, CASPT2-K
   Simone Kossmann        : Meta GGA functionals, TD-DFT gradient, OOMP2, MP2 Hessian
   Martin Krupicka        : Initial AUTO-CI
   Lucas Lang             : DCDCAS
   Marvin Lechner         : AUTO-CI (C++ implementation), FIC-MRCC
   Dagmar Lenk            : GEPOL surface, SMD
   Dimitrios Liakos       : Extrapolation schemes; Compound Job, initial MDCI parallelization
   Dimitrios Manganas     : Further ROCIS development; embedding schemes
   Dimitrios Pantazis     : SARC Basis sets
   Anastasios Papadopoulos: AUTO-CI, single reference methods and gradients
   Taras Petrenko         : DFT Hessian,TD-DFT gradient, ASA, ECA, R-Raman, ABS, FL, XAS/XES, NRVS
   Peter Pinski           : DLPNO-MP2, DLPNO-MP2 Gradient
   Christoph Reimann      : Effective Core Potentials
   Marius Retegan         : Local ZFS, SOC
   Christoph Riplinger    : Optimizer, TS searches, QM/MM, DLPNO-CCSD(T), (RO)-DLPNO pert. Triples
   Tobias Risthaus        : Range-separated hybrids, TD-DFT gradient, RPA, STAB
   Michael Roemelt        : Original ROCIS implementation
   Masaaki Saitow         : Open-shell DLPNO-CCSD energy and density
   Barbara Sandhoefer     : DKH picture change effects
   Avijit Sen             : IP-ROCIS
   Kantharuban Sivalingam : CASSCF convergence, NEVPT2, FIC-MRCI
   Bernardo de Souza      : ESD, SOC TD-DFT
   Georgi Stoychev        : AutoAux, RI-MP2 NMR, DLPNO-MP2 response
   Willem Van den Heuvel  : Paramagnetic NMR
   Boris Wezisla          : Elementary symmetry handling
   Frank Wennmohs         : Technical directorship


 We gratefully acknowledge several colleagues who have allowed us to
 interface, adapt or use parts of their codes:
   Stefan Grimme, W. Hujo, H. Kruse, P. Pracht,  : VdW corrections, initial TS optimization,
                  C. Bannwarth, S. Ehlert          DFT functionals, gCP, sTDA/sTD-DF
   Ed Valeev, F. Pavosevic, A. Kumar             : LibInt (2-el integral package), F12 methods
   Garnet Chan, S. Sharma, J. Yang, R. Olivares  : DMRG
   Ulf Ekstrom                                   : XCFun DFT Library
   Mihaly Kallay                                 : mrcc  (arbitrary order and MRCC methods)
   Jiri Pittner, Ondrej Demel                    : Mk-CCSD
   Frank Weinhold                                : gennbo (NPA and NBO analysis)
   Christopher J. Cramer and Donald G. Truhlar   : smd solvation model
   Lars Goerigk                                  : TD-DFT with DH, B97 family of functionals
   V. Asgeirsson, H. Jonsson                     : NEB implementation
   FAccTs GmbH                                   : IRC, NEB, NEB-TS, DLPNO-Multilevel, CI-OPT
                                                   MM, QMMM, 2- and 3-layer-ONIOM, Crystal-QMMM,
                                                   LR-CPCM, SF, NACMEs, symmetry and pop. for TD-DFT,
                                                   nearIR, NL-DFT gradient (VV10), updates on ESD,
                                                   ML-optimized integration grids
   S Lehtola, MJT Oliveira, MAL Marques          : LibXC Library
   Liviu Ungur et al                             : ANISO software


 Your calculation uses the libint2 library for the computation of 2-el integrals
 For citations please refer to: http://libint.valeyev.net

 Your ORCA version has been built with support for libXC version: 5.1.0
 For citations please refer to: https://tddft.org/programs/libxc/

 This ORCA versions uses:
   CBLAS   interface :  Fast vector & matrix operations
   LAPACKE interface :  Fast linear algebra routines
   SCALAPACK package :  Parallel linear algebra routines
   Shared memory     :  Shared parallel matrices
   BLAS/LAPACK       :  OpenBLAS 0.3.15  USE64BITINT DYNAMIC_ARCH NO_AFFINITY Zen SINGLE_THREADED
        Core in use  :  Zen
   Copyright (c) 2011-2014, The OpenBLAS Project




***************************************
The coordinates will be read from file: opt.xyz
***************************************


XCFun DFT library Copyright 2009-2010 Ulf Ekstrom and contributors.
See http://admol.org/xcfun for more information.
This is free software; see the source code for copying conditions.
There is ABSOLUTELY NO WARRANTY; not even for MERCHANTABILITY or FITNESS FOR A PARTICULAR PURPOSE.
For details see the documentation.
Scientific users of this library should cite U. Ekstrom, L. Visscher, R. Bast, A. J. Thorvaldsen and K. Ruud;
J.Chem.Theor.Comp. 2010, DOI: 10.1021/ct100117s
XCFun Version 0.99 

================================================================================

----- Orbital basis set information -----
Your calculation utilizes the basis: def2-TZVP
   F. Weigend and R. Ahlrichs, Phys. Chem. Chem. Phys. 7, 3297 (2005).

----- AuxJ basis set information -----
Your calculation utilizes the auxiliary basis: def2/J
   F. Weigend, Phys. Chem. Chem. Phys. 8, 1057 (2006).

================================================================================
                                        WARNINGS
                       Please study these warnings very carefully!
================================================================================


WARNING: your system is open-shell and RHF/RKS was chosen
  ===> : WILL SWITCH to UHF/UKS


WARNING: Geometry Optimization
  ===> : Switching off AutoStart
         For restart on a previous wavefunction, please use MOREAD

WARNING: Minnesota functionals are quite sensitive to the integration grid.
         see SE Wheeler, KN Houk, JCTC 2010, 6, 395,
             N Mardirossian, M Head-Gordon, JCTC 2016, 12, 4303.
         DEFGRID3 seems to be a minimum grid for reliable results with these functionals!
  ===> : Please increase the integration grid!


INFO   : the flag for use of the SHARK integral package has been found!

================================================================================
                                       INPUT FILE
================================================================================
NAME = freq.inp
|  1> ! M062X def2-TZVP OPT FREQ
|  2> %pal nprocs 16 end
|  3> *XYZFile 0 2 opt.xyz
|  4> 
|  5>                          ****END OF INPUT****
================================================================================

                       *****************************
                       * Geometry Optimization Run *
                       *****************************

Geometry optimization settings:
Update method            Update   .... BFGS
Choice of coordinates    CoordSys .... Z-matrix Internals
Initial Hessian          InHess   .... Almoef's Model

Convergence Tolerances:
Energy Change            TolE     ....  5.0000e-06 Eh
Max. Gradient            TolMAXG  ....  3.0000e-04 Eh/bohr
RMS Gradient             TolRMSG  ....  1.0000e-04 Eh/bohr
Max. Displacement        TolMAXD  ....  4.0000e-03 bohr
RMS Displacement         TolRMSD  ....  2.0000e-03 bohr
Strict Convergence                ....  False
------------------------------------------------------------------------------
                        ORCA OPTIMIZATION COORDINATE SETUP
------------------------------------------------------------------------------

The optimization will be done in new redundant internal coordinates
Making redundant internal coordinates   ...  (new redundants) done
Evaluating the initial hessian          ...  (Almloef) done
Evaluating the coordinates              ...  done
Calculating the B-matrix                .... done
Calculating the G-matrix                .... done
Diagonalizing the G-matrix              .... done
Small eigenvalue found = 5.782e-03
Small eigenvalue found = 6.632e-03
Small eigenvalue found = 1.018e-02
Small eigenvalue found = 2.477e-02
Small eigenvalue found = 2.712e-02
The first mode is                       ....   63
The number of degrees of freedom        ....   90

    -----------------------------------------------------------------
                    Redundant Internal Coordinates


    -----------------------------------------------------------------
         Definition                    Initial Value    Approx d2E/dq
    -----------------------------------------------------------------
      1. B(C   1,N   0)                  1.4529         0.444154   
      2. B(C   2,C   1)                  1.5429         0.356333   
      3. B(O   3,C   2)                  1.2334         0.994801   
      4. B(C   4,C   1)                  1.5544         0.341583   
      5. B(C   5,C   4)                  1.5002         0.416760   
      6. B(C   6,C   5)                  1.5001         0.416931   
      7. B(C   7,C   6)                  1.5379         0.362946   
      8. B(N   8,C   7)                  1.4738         0.411255   
      9. B(H   9,C   5)                  1.0885         0.362143   
     10. B(H  10,C   6)                  1.1076         0.337603   
     11. B(H  11,C   6)                  1.0987         0.348772   
     12. B(H  12,C   7)                  1.0958         0.352455   
     13. B(H  13,C   7)                  1.1038         0.342288   
     14. B(H  14,N   8)                  1.0165         0.422558   
     15. B(H  15,N   8)                  1.0173         0.421330   
     16. B(H  16,N   0)                  1.0125         0.428779   
     17. B(C  17,N   0)                  1.3674         0.608066   
     18. B(N  18,C   2)                  1.3612         0.622010   
     19. B(H  19,N  18)                  1.0076         0.436509   
     20. B(O  20,C  17)                  1.2325         0.998199   
     21. B(C  21,C  17)                  1.5255         0.379770   
     22. B(H  22,C  21)                  1.0935         0.355487   
     23. B(H  23,C  21)                  1.0933         0.355805   
     24. B(H  24,C  21)                  1.0932         0.355929   
     25. B(C  25,N  18)                  1.4605         0.431922   
     26. B(H  26,C  25)                  1.0951         0.353416   
     27. B(H  27,C  25)                  1.0917         0.357807   
     28. B(H  28,C  25)                  1.0923         0.357043   
     29. B(H  29,C   1)                  1.0968         0.351256   
     30. B(H  30,C   4)                  1.1003         0.346678   
     31. B(H  31,C   4)                  1.1024         0.344081   
     32. A(C   1,N   0,H  16)          115.0955         0.338544   
     33. A(H  16,N   0,C  17)          121.4838         0.356931   
     34. A(C   1,N   0,C  17)          121.9978         0.402349   
     35. A(C   2,C   1,H  29)          109.6745         0.320509   
     36. A(C   2,C   1,C   4)          111.7725         0.354988   
     37. A(C   4,C   1,H  29)          107.6210         0.318304   
     38. A(N   0,C   1,H  29)          108.2854         0.330343   
     39. A(N   0,C   1,C   4)          112.5853         0.366287   
     40. A(N   0,C   1,C   2)          106.8411         0.368953   
     41. A(C   1,C   2,N  18)          115.4629         0.391127   
     42. A(C   1,C   2,O   3)          121.8695         0.425007   
     43. A(O   3,C   2,N  18)          122.6626         0.467025   
     44. A(C   1,C   4,H  30)          109.1815         0.317624   
     45. A(C   1,C   4,H  31)          106.1286         0.317236   
     46. A(C   5,C   4,H  31)          111.1794         0.327746   
     47. A(H  30,C   4,H  31)          105.3568         0.287061   
     48. A(C   1,C   4,C   5)          114.5722         0.364588   
     49. A(C   5,C   4,H  30)          109.9605         0.328153   
     50. A(C   4,C   5,C   6)          120.9709         0.377306   
     51. A(C   6,C   5,H   9)          118.6522         0.330549   
     52. A(C   4,C   5,H   9)          118.4406         0.330527   
     53. A(H  10,C   6,H  11)          105.3052         0.286480   
     54. A(C   7,C   6,H  11)          108.7667         0.321101   
     55. A(C   5,C   6,C   7)          113.4185         0.368424   
     56. A(C   5,C   6,H  11)          110.6912         0.328501   
     57. A(C   7,C   6,H  10)          108.4544         0.319398   
     58. A(C   5,C   6,H  10)          109.8623         0.326744   
     59. A(H  12,C   7,H  13)          106.9600         0.287568   
     60. A(N   8,C   7,H  13)          113.7270         0.324791   
     61. A(C   6,C   7,H  13)          108.7049         0.320117   
     62. A(N   8,C   7,H  12)          107.9624         0.326358   
     63. A(C   6,C   7,H  12)          108.8360         0.321654   
     64. A(C   6,C   7,N   8)          110.4946         0.365266   
     65. A(H  14,N   8,H  15)          106.0285         0.300828   
     66. A(C   7,N   8,H  15)          109.3493         0.333264   
     67. A(C   7,N   8,H  14)          109.6692         0.333425   
     68. A(N   0,C  17,C  21)          115.7585         0.393946   
     69. A(N   0,C  17,O  20)          122.3429         0.465381   
     70. A(O  20,C  17,C  21)          121.8957         0.430150   
     71. A(C   2,N  18,H  19)          118.8544         0.359401   
     72. A(H  19,N  18,C  25)          119.1291         0.337976   
     73. A(C   2,N  18,C  25)          122.0050         0.401977   
     74. A(H  23,C  21,H  24)          109.4027         0.289762   
     75. A(H  22,C  21,H  24)          109.2430         0.289721   
     76. A(C  17,C  21,H  24)          113.4962         0.324574   
     77. A(H  22,C  21,H  23)          107.6053         0.289705   
     78. A(C  17,C  21,H  23)          108.4435         0.324556   
     79. A(C  17,C  21,H  22)          108.4816         0.324508   
     80. A(H  27,C  25,H  28)          109.2879         0.290159   
     81. A(H  26,C  25,H  28)          108.2055         0.289598   
     82. A(N  18,C  25,H  28)          109.9549         0.329711   
     83. A(H  26,C  25,H  27)          109.1226         0.289695   
     84. A(N  18,C  25,H  27)          108.8816         0.329827   
     85. A(N  18,C  25,H  26)          111.3598         0.329155   
     86. D(C   4,C   1,N   0,C  17)     82.0366         0.016824   
     87. D(H  29,C   1,N   0,H  16)    129.7376         0.016824   
     88. D(C   4,C   1,N   0,H  16)   -111.3974         0.016824   
     89. D(C   2,C   1,N   0,H  16)     11.6713         0.016824   
     90. D(C   2,C   1,N   0,C  17)   -154.8946         0.016824   
     91. D(H  29,C   1,N   0,C  17)    -36.8283         0.016824   
     92. D(O   3,C   2,C   1,N   0)    -13.6512         0.009564   
     93. D(O   3,C   2,C   1,C   4)    109.9215         0.009564   
     94. D(N  18,C   2,C   1,H  29)     49.9917         0.009564   
     95. D(N  18,C   2,C   1,C   4)    -69.2827         0.009564   
     96. D(O   3,C   2,C   1,H  29)   -130.8040         0.009564   
     97. D(N  18,C   2,C   1,N   0)    167.1445         0.009564   
     98. D(C   5,C   4,C   1,H  29)   -176.1556         0.009439   
     99. D(C   5,C   4,C   1,C   2)    -55.6748         0.009439   
    100. D(H  31,C   4,C   1,C   2)   -178.7520         0.009439   
    101. D(H  31,C   4,C   1,N   0)    -58.4852         0.009439   
    102. D(H  30,C   4,C   1,H  29)    -52.3417         0.009439   
    103. D(H  31,C   4,C   1,H  29)     60.7672         0.009439   
    104. D(H  30,C   4,C   1,C   2)     68.1391         0.009439   
    105. D(H  30,C   4,C   1,N   0)   -171.5941         0.009439   
    106. D(C   5,C   4,C   1,N   0)     64.5920         0.009439   
    107. D(H   9,C   5,C   4,H  30)   -150.1510         0.012849   
    108. D(H   9,C   5,C   4,C   1)    -26.7540         0.012849   
    109. D(C   6,C   5,C   4,H  31)    -70.3924         0.012849   
    110. D(C   6,C   5,C   4,H  30)     45.8958         0.012849   
    111. D(H   9,C   5,C   4,H  31)     93.5608         0.012849   
    112. D(C   6,C   5,C   4,C   1)    169.2929         0.012849   
    113. D(H  10,C   6,C   5,C   4)     72.2245         0.012860   
    114. D(C   7,C   6,C   5,H   9)     29.8551         0.012860   
    115. D(C   7,C   6,C   5,C   4)   -166.2249         0.012860   
    116. D(H  10,C   6,C   5,H   9)    -91.6955         0.012860   
    117. D(H  11,C   6,C   5,H   9)    152.4269         0.012860   
    118. D(H  11,C   6,C   5,C   4)    -43.6531         0.012860   
    119. D(H  13,C   7,C   6,H  11)   -179.2342         0.010557   
    120. D(H  13,C   7,C   6,H  10)     66.7315         0.010557   
    121. D(H  13,C   7,C   6,C   5)    -55.6037         0.010557   
    122. D(H  12,C   7,C   6,H  11)    -63.0732         0.010557   
    123. D(H  12,C   7,C   6,H  10)   -177.1075         0.010557   
    124. D(H  12,C   7,C   6,C   5)     60.5573         0.010557   
    125. D(N   8,C   7,C   6,H  11)     55.3100         0.010557   
    126. D(N   8,C   7,C   6,H  10)    -58.7242         0.010557   
    127. D(N   8,C   7,C   6,C   5)    178.9406         0.010557   
    128. D(H  15,N   8,C   7,H  13)    -56.6156         0.014427   
    129. D(H  15,N   8,C   7,H  12)   -175.1351         0.014427   
    130. D(H  15,N   8,C   7,C   6)     65.9498         0.014427   
    131. D(H  14,N   8,C   7,H  13)     59.2524         0.014427   
    132. D(H  14,N   8,C   7,H  12)    -59.2670         0.014427   
    133. D(H  14,N   8,C   7,C   6)   -178.1822         0.014427   
    134. D(C  21,C  17,N   0,H  16)      9.4487         0.029851   
    135. D(C  21,C  17,N   0,C   1)    175.1655         0.029851   
    136. D(O  20,C  17,N   0,H  16)   -171.1687         0.029851   
    137. D(O  20,C  17,N   0,C   1)     -5.4519         0.029851   
    138. D(C  25,N  18,C   2,O   3)     -0.9880         0.031345   
    139. D(C  25,N  18,C   2,C   1)    178.2093         0.031345   
    140. D(H  19,N  18,C   2,O   3)    177.7672         0.031345   
    141. D(H  19,N  18,C   2,C   1)     -3.0355         0.031345   
    142. D(H  24,C  21,C  17,O  20)    178.7645         0.010763   
    143. D(H  24,C  21,C  17,N   0)     -1.8499         0.010763   
    144. D(H  23,C  21,C  17,O  20)     56.9725         0.010763   
    145. D(H  23,C  21,C  17,N   0)   -123.6418         0.010763   
    146. D(H  22,C  21,C  17,O  20)    -59.6199         0.010763   
    147. D(H  22,C  21,C  17,N   0)    119.7657         0.010763   
    148. D(H  26,C  25,N  18,C   2)     72.3156         0.015905   
    149. D(H  28,C  25,N  18,H  19)    133.6370         0.015905   
    150. D(H  28,C  25,N  18,C   2)    -47.6110         0.015905   
    151. D(H  27,C  25,N  18,H  19)     13.9292         0.015905   
    152. D(H  27,C  25,N  18,C   2)   -167.3189         0.015905   
    153. D(H  26,C  25,N  18,H  19)   -106.4363         0.015905   
    -----------------------------------------------------------------

Number of atoms                         .... 32
Number of degrees of freedom            .... 153

         *************************************************************
         *                GEOMETRY OPTIMIZATION CYCLE   1            *
         *************************************************************
---------------------------------
CARTESIAN COORDINATES (ANGSTROEM)
---------------------------------
  N      1.798749   -0.544240    0.345043
  C      1.086202    0.344023   -0.557268
  C      0.783819    1.634613    0.232269
  O      0.902380    1.690630    1.458669
  C     -0.208401   -0.298798   -1.128978
  C     -1.262818   -0.595480   -0.103867
  C     -2.650034   -0.991108   -0.515497
  C     -3.669939   -0.928270    0.633786
  N     -5.011866   -1.304041    0.153957
  H     -0.950785   -0.778725    0.922683
  H     -2.642582   -2.021471   -0.921684
  H     -3.006195   -0.357225   -1.339199
  H     -3.720214    0.101081    1.006315
  H     -3.304395   -1.554414    1.466082
  H     -5.680877   -1.229316    0.915557
  H     -5.009081   -2.283029   -0.122414
  H      1.797475   -0.260400    1.316924
  C      2.641120   -1.519048   -0.113120
  N      0.364044    2.692601   -0.514298
  H      0.320314    2.593945   -1.516122
  O      2.771314   -1.767354   -1.313269
  C      3.402700   -2.294132    0.957609
  H      3.133567   -3.351001    0.877864
  H      4.472860   -2.208922    0.750904
  H      3.200363   -1.946534    1.974103
  C      0.001690    3.971592    0.090619
  H      0.886578    4.508770    0.447910
  H     -0.510710    4.582551   -0.655080
  H     -0.663804    3.806567    0.940942
  H      1.744180    0.574681   -1.403886
  H     -0.620166    0.353870   -1.913339
  H      0.109804   -1.216597   -1.650174

----------------------------
CARTESIAN COORDINATES (A.U.)
----------------------------
  NO LB      ZA    FRAG     MASS         X           Y           Z
   0 N     7.0000    0    14.007    3.399144   -1.028465    0.652036
   1 C     6.0000    0    12.011    2.052624    0.650109   -1.053083
   2 C     6.0000    0    12.011    1.481204    3.088971    0.438924
   3 O     8.0000    0    15.999    1.705252    3.194829    2.756484
   4 C     6.0000    0    12.011   -0.393822   -0.564646   -2.133459
   5 C     6.0000    0    12.011   -2.386379   -1.125295   -0.196279
   6 C     6.0000    0    12.011   -5.007839   -1.872923   -0.974149
   7 C     6.0000    0    12.011   -6.935179   -1.754176    1.197682
   8 N     7.0000    0    14.007   -9.471055   -2.464281    0.290937
   9 H     1.0000    0     1.008   -1.796723   -1.471576    1.743617
  10 H     1.0000    0     1.008   -4.993755   -3.820027   -1.741730
  11 H     1.0000    0     1.008   -5.680885   -0.675057   -2.530719
  12 H     1.0000    0     1.008   -7.030186    0.191016    1.901660
  13 H     1.0000    0     1.008   -6.244402   -2.937416    2.770493
  14 H     1.0000    0     1.008  -10.735301   -2.323070    1.730152
  15 H     1.0000    0     1.008   -9.465792   -4.314299   -0.231328
  16 H     1.0000    0     1.008    3.396735   -0.492085    2.488627
  17 C     6.0000    0    12.011    4.990994   -2.870585   -0.213766
  18 N     7.0000    0    14.007    0.687944    5.088278   -0.971883
  19 H     1.0000    0     1.008    0.605306    4.901845   -2.865056
  20 O     8.0000    0    15.999    5.237025   -3.339814   -2.481718
  21 C     6.0000    0    12.011    6.430170   -4.335282    1.809619
  22 H     1.0000    0     1.008    5.921583   -6.332475    1.658922
  23 H     1.0000    0     1.008    8.452480   -4.174257    1.419004
  24 H     1.0000    0     1.008    6.047809   -3.678416    3.730514
  25 C     6.0000    0    12.011    0.003193    7.505221    0.171246
  26 H     1.0000    0     1.008    1.675390    8.520340    0.846427
  27 H     1.0000    0     1.008   -0.965103    8.659767   -1.237923
  28 H     1.0000    0     1.008   -1.254408    7.193369    1.778123
  29 H     1.0000    0     1.008    3.296022    1.085990   -2.652961
  30 H     1.0000    0     1.008   -1.171943    0.668718   -3.615687
  31 H     1.0000    0     1.008    0.207499   -2.299035   -3.118377

--------------------------------
INTERNAL COORDINATES (ANGSTROEM)
--------------------------------
 N      0   0   0     0.000000000000     0.00000000     0.00000000
 C      1   0   0     1.452893363199     0.00000000     0.00000000
 C      2   1   0     1.542862954326   106.84113744     0.00000000
 O      3   2   1     1.233390277183   121.86948023   346.34876864
 C      2   1   3     1.554370550232   112.58531772   236.93127840
 C      5   2   1     1.500222533706   114.57221353    64.59203930
 C      6   5   2     1.500110392651   120.97088199   169.29287937
 C      7   6   5     1.537857392613   113.41852989   193.77511097
 N      8   7   6     1.473842073211   110.49460219   178.94058268
 H      6   5   2     1.088460330274   118.44060254   333.24603635
 H      7   6   5     1.107560728068   109.86230796    72.22446691
 H      7   6   5     1.098700400121   110.69121422   316.34691663
 H      8   7   6     1.095841603474   108.83600917    60.55734087
 H      8   7   6     1.103808906264   108.70492255   304.39633877
 H      9   8   7     1.016461061488   109.66922767   181.81780384
 H      9   8   7     1.017253738077   109.34933126    65.94978757
 H      1   2   3     1.012482699198   115.09553550    11.67127647
 C      1   2   3     1.367388578425   121.99780816   205.10536464
 N      3   2   1     1.361216675455   115.46291111   167.14448247
 H     19   3   2     1.007619342122   118.85439921   356.96454729
 O     18   1   2     1.232462199539   122.34286485   354.54810884
 C     18   1   2     1.525522980910   115.75845150   175.16550640
 H     22  18   1     1.093509902475   108.48155036   119.76574387
 H     22  18   1     1.093265997696   108.44350726   236.35815453
 H     22  18   1     1.093171590284   113.49619286   358.15013111
 C     19   3   2     1.460494811556   122.00500566   178.20925739
 H     26  19   3     1.095100110925   111.35977661    72.31564004
 H     26  19   3     1.091738657720   108.88161150   192.68113685
 H     26  19   3     1.092320529364   109.95488668   312.38901614
 H      2   1   3     1.096768698831   108.28538855   118.06630642
 H      5   2   1     1.100339821559   109.18148869   188.40588553
 H      5   2   1     1.102386606903   106.12855123   301.51482959

---------------------------
INTERNAL COORDINATES (A.U.)
---------------------------
 N      0   0   0     0.000000000000     0.00000000     0.00000000
 C      1   0   0     2.745570558238     0.00000000     0.00000000
 C      2   1   0     2.915588445848   106.84113744     0.00000000
 O      3   2   1     2.330769840117   121.86948023   346.34876864
 C      2   1   3     2.937334650570   112.58531772   236.93127840
 C      5   2   1     2.835009728642   114.57221353    64.59203930
 C      6   5   2     2.834797812759   120.97088199   169.29287937
 C      7   6   5     2.906129305064   113.41852989   193.77511097
 N      8   7   6     2.785157883019   110.49460219   178.94058268
 H      6   5   2     2.056891931856   118.44060254   333.24603635
 H      7   6   5     2.092986452736   109.86230796    72.22446691
 H      7   6   5     2.076242859458   110.69121422   316.34691663
 H      8   7   6     2.070840516722   108.83600917    60.55734087
 H      8   7   6     2.085896537022   108.70492255   304.39633877
 H      9   8   7     1.920833032008   109.66922767   181.81780384
 H      9   8   7     1.922330973674   109.34933126    65.94978757
 H      1   2   3     1.913315016818   115.09553550    11.67127647
 C      1   2   3     2.583989931874   121.99780816   205.10536464
 N      3   2   1     2.572326725537   115.46291111   167.14448247
 H     19   3   2     1.904124603853   118.85439921   356.96454729
 O     18   1   2     2.329016027539   122.34286485   354.54810884
 C     18   1   2     2.882820644923   115.75845150   175.16550640
 H     22  18   1     2.066434240408   108.48155036   119.76574387
 H     22  18   1     2.065973327173   108.44350726   236.35815453
 H     22  18   1     2.065794923020   113.49619286   358.15013111
 C     19   3   2     2.759935213854   122.00500566   178.20925739
 H     26  19   3     2.069439298875   111.35977661    72.31564004
 H     26  19   3     2.063087072905   108.88161150   192.68113685
 H     26  19   3     2.064186650958   109.95488668   312.38901614
 H      2   1   3     2.072592473047   108.28538855   118.06630642
 H      5   2   1     2.079340916995   109.18148869   188.40588553
 H      5   2   1     2.083208780750   106.12855123   301.51482959

---------------------
BASIS SET INFORMATION
---------------------
There are 4 groups of distinct atoms

 Group   1 Type N   : 11s6p2d1f contracted to 5s3p2d1f pattern {62111/411/11/1}
 Group   2 Type C   : 11s6p2d1f contracted to 5s3p2d1f pattern {62111/411/11/1}
 Group   3 Type O   : 11s6p2d1f contracted to 5s3p2d1f pattern {62111/411/11/1}
 Group   4 Type H   : 5s1p contracted to 3s1p pattern {311/1}

Atom   0N    basis set group =>   1
Atom   1C    basis set group =>   2
Atom   2C    basis set group =>   2
Atom   3O    basis set group =>   3
Atom   4C    basis set group =>   2
Atom   5C    basis set group =>   2
Atom   6C    basis set group =>   2
Atom   7C    basis set group =>   2
Atom   8N    basis set group =>   1
Atom   9H    basis set group =>   4
Atom  10H    basis set group =>   4
Atom  11H    basis set group =>   4
Atom  12H    basis set group =>   4
Atom  13H    basis set group =>   4
Atom  14H    basis set group =>   4
Atom  15H    basis set group =>   4
Atom  16H    basis set group =>   4
Atom  17C    basis set group =>   2
Atom  18N    basis set group =>   1
Atom  19H    basis set group =>   4
Atom  20O    basis set group =>   3
Atom  21C    basis set group =>   2
Atom  22H    basis set group =>   4
Atom  23H    basis set group =>   4
Atom  24H    basis set group =>   4
Atom  25C    basis set group =>   2
Atom  26H    basis set group =>   4
Atom  27H    basis set group =>   4
Atom  28H    basis set group =>   4
Atom  29H    basis set group =>   4
Atom  30H    basis set group =>   4
Atom  31H    basis set group =>   4
---------------------------------
AUXILIARY/J BASIS SET INFORMATION
---------------------------------
There are 4 groups of distinct atoms

 Group   1 Type N   : 12s5p4d2f1g contracted to 6s4p3d1f1g pattern {711111/2111/211/2/1}
 Group   2 Type C   : 12s5p4d2f1g contracted to 6s4p3d1f1g pattern {711111/2111/211/2/1}
 Group   3 Type O   : 12s5p4d2f1g contracted to 6s4p3d1f1g pattern {711111/2111/211/2/1}
 Group   4 Type H   : 5s2p1d contracted to 3s1p1d pattern {311/2/1}

Atom   0N    basis set group =>   1
Atom   1C    basis set group =>   2
Atom   2C    basis set group =>   2
Atom   3O    basis set group =>   3
Atom   4C    basis set group =>   2
Atom   5C    basis set group =>   2
Atom   6C    basis set group =>   2
Atom   7C    basis set group =>   2
Atom   8N    basis set group =>   1
Atom   9H    basis set group =>   4
Atom  10H    basis set group =>   4
Atom  11H    basis set group =>   4
Atom  12H    basis set group =>   4
Atom  13H    basis set group =>   4
Atom  14H    basis set group =>   4
Atom  15H    basis set group =>   4
Atom  16H    basis set group =>   4
Atom  17C    basis set group =>   2
Atom  18N    basis set group =>   1
Atom  19H    basis set group =>   4
Atom  20O    basis set group =>   3
Atom  21C    basis set group =>   2
Atom  22H    basis set group =>   4
Atom  23H    basis set group =>   4
Atom  24H    basis set group =>   4
Atom  25C    basis set group =>   2
Atom  26H    basis set group =>   4
Atom  27H    basis set group =>   4
Atom  28H    basis set group =>   4
Atom  29H    basis set group =>   4
Atom  30H    basis set group =>   4
Atom  31H    basis set group =>   4


           ************************************************************
           *        Program running with 16 parallel MPI-processes    *
           *              working on a common directory               *
           ************************************************************
------------------------------------------------------------------------------
                           ORCA GTO INTEGRAL CALCULATION
                           -- RI-GTO INTEGRALS CHOSEN --
------------------------------------------------------------------------------
------------------------------------------------------------------------------
                   ___                                                        
                  /   \      - P O W E R E D   B Y -                         
                 /     \                                                     
                 |  |  |   _    _      __       _____    __    __             
                 |  |  |  | |  | |    /  \     |  _  \  |  |  /  |          
                  \  \/   | |  | |   /    \    | | | |  |  | /  /          
                 / \  \   | |__| |  /  /\  \   | |_| |  |  |/  /          
                |  |  |   |  __  | /  /__\  \  |    /   |      \           
                |  |  |   | |  | | |   __   |  |    \   |  |\   \          
                \     /   | |  | | |  |  |  |  | |\  \  |  | \   \       
                 \___/    |_|  |_| |__|  |__|  |_| \__\ |__|  \__/        
                                                                              
                      - O R C A' S   B I G   F R I E N D -                    
                                      &                                       
                       - I N T E G R A L  F E E D E R -                       
                                                                              
 v1 FN, 2020, v2 2021                                                         
------------------------------------------------------------------------------


Reading SHARK input file freq.SHARKINP.tmp ... ok
----------------------
SHARK INTEGRAL PACKAGE
----------------------

Number of atoms                             ...     32
Number of basis functions                   ...    542
Number of shells                            ...    226
Maximum angular momentum                    ...      3
Integral batch strategy                     ... SHARK/LIBINT Hybrid
RI-J (if used) integral strategy            ... SPLIT-RIJ (Revised 2003 algorithm where possible)
Printlevel                                  ...      1
Contraction scheme used                     ... SEGMENTED contraction
Coulomb Range Separation                    ... NOT USED
Exchange Range Separation                   ... NOT USED
Finite Nucleus Model                        ... NOT USED
Auxiliary Coulomb fitting basis             ... AVAILABLE
   # of basis functions in Aux-J            ...    884
   # of shells in Aux-J                     ...    300
   Maximum angular momentum in Aux-J        ...      4
Auxiliary J/K fitting basis                 ... NOT available
Auxiliary Correlation fitting basis         ... NOT available
Auxiliary 'external' fitting basis          ... NOT available
Integral threshold                          ...     2.500000e-11
Primitive cut-off                           ...     2.500000e-12
Primitive pair pre-selection threshold      ...     2.500000e-12

Calculating pre-screening integrals         ... done (  0.0 sec) Dimension = 226
Organizing shell pair data                  ... done (  0.1 sec)
Shell pair information
Total number of shell pairs                 ...     25651
Shell pairs after pre-screening             ...     19206
Total number of primitive shell pairs       ...     75828
Primitive shell pairs kept                  ...     39500
          la=0 lb=0:   5737 shell pairs
          la=1 lb=0:   5696 shell pairs
          la=1 lb=1:   1441 shell pairs
          la=2 lb=0:   2566 shell pairs
          la=2 lb=1:   1278 shell pairs
          la=2 lb=2:    307 shell pairs
          la=3 lb=0:   1213 shell pairs
          la=3 lb=1:    616 shell pairs
          la=3 lb=2:    279 shell pairs
          la=3 lb=3:     73 shell pairs

Calculating one electron integrals          ... done (  0.0 sec)
Calculating RI/J V-Matrix + Cholesky decomp.... done (  0.0 sec)
Calculating Nuclear repulsion               ... done (  0.0 sec) ENN=    914.774887219838 Eh

SHARK setup successfully completed in   0.3 seconds

Maximum memory used throughout the entire GTOINT-calculation: 30.9 MB


           ************************************************************
           *        Program running with 16 parallel MPI-processes    *
           *              working on a common directory               *
           ************************************************************
-------------------------------------------------------------------------------
                                 ORCA SCF
-------------------------------------------------------------------------------

------------
SCF SETTINGS
------------
Hamiltonian:
 Density Functional     Method          .... DFT(GTOs)
 Exchange Functional    Exchange        .... M062X
 Correlation Functional Correlation     .... M062X
 Gradients option       PostSCFGGA      .... off
 Hybrid DFT is turned on
   Fraction HF Exchange ScalHFX         ....  0.540000
   Scaling of DF-GGA-X  ScalDFX         ....  0.460000
   Scaling of DF-GGA-C  ScalDFC         ....  1.000000
   Scaling of DF-LDA-C  ScalLDAC        ....  1.000000
   Perturbative correction              ....  0.000000
   Density functional embedding theory  .... OFF
 RI-approximation to the Coulomb term is turned on
   Number of AuxJ basis functions       .... 884
   RIJ-COSX (HFX calculated with COS-X)).... on


General Settings:
 Integral files         IntName         .... freq
 Hartree-Fock type      HFTyp           .... UHF
 Total Charge           Charge          ....    0
 Multiplicity           Mult            ....    2
 Number of Electrons    NEL             ....  109
 Basis Dimension        Dim             ....  542
 Nuclear Repulsion      ENuc            ....    914.7748872198 Eh

Convergence Acceleration:
 DIIS                   CNVDIIS         .... on
   Start iteration      DIISMaxIt       ....    12
   Startup error        DIISStart       ....  0.200000
   # of expansion vecs  DIISMaxEq       ....     5
   Bias factor          DIISBfac        ....   1.050
   Max. coefficient     DIISMaxC        ....  10.000
 Trust-Rad. Augm. Hess. CNVTRAH         .... auto
   Auto Start mean grad. ratio tolernc. ....  1.125000
   Auto Start start iteration           ....    20
   Auto Start num. interpolation iter.  ....    10
   Max. Number of Micro iterations      ....    16
   Max. Number of Macro iterations      .... Maxiter - #DIIS iter
   Number of Davidson start vectors     ....     2
   Converg. threshold I  (grad. norm)   ....   1.000e-05
   Converg. threshold II (energy diff.) ....   1.000e-08
   Grad. Scal. Fac. for Micro threshold ....   0.100
   Minimum threshold for Micro iter.    ....   0.010
   NR start threshold (gradient norm)   ....   0.001
   Initial trust radius                 ....   0.400
   Minimum AH scaling param. (alpha)    ....   1.000
   Maximum AH scaling param. (alpha)    .... 1000.000
   Orbital update algorithm             .... Taylor
   White noise on init. David. guess    .... on
   Maximum white noise                  ....   0.010
   Quad. conv. algorithm                .... NR
 SOSCF                  CNVSOSCF        .... off
 Level Shifting         CNVShift        .... on
   Level shift para.    LevelShift      ....    0.2500
   Turn off err/grad.   ShiftErr        ....    0.0010
 Zerner damping         CNVZerner       .... off
 Static damping         CNVDamp         .... on
   Fraction old density DampFac         ....    0.7000
   Max. Damping (<1)    DampMax         ....    0.9800
   Min. Damping (>=0)   DampMin         ....    0.0000
   Turn off err/grad.   DampErr         ....    0.1000
 Fernandez-Rico         CNVRico         .... off

SCF Procedure:
 Maximum # iterations   MaxIter         ....   125
 SCF integral mode      SCFMode         .... Direct
   Integral package                     .... SHARK and LIBINT hybrid scheme
 Reset frequency        DirectResetFreq ....    20
 Integral Threshold     Thresh          ....  2.500e-11 Eh
 Primitive CutOff       TCut            ....  2.500e-12 Eh

Convergence Tolerance:
 Convergence Check Mode ConvCheckMode   .... Total+1el-Energy
 Convergence forced     ConvForced      .... 0
 Energy Change          TolE            ....  1.000e-08 Eh
 1-El. energy change                    ....  1.000e-05 Eh
 DIIS Error             TolErr          ....  5.000e-07


Diagonalization of the overlap matrix:
Smallest eigenvalue                        ... 5.182e-05
Time for diagonalization                   ...    0.035 sec
Threshold for overlap eigenvalues          ... 1.000e-08
Number of eigenvalues below threshold      ... 0
Time for construction of square roots      ...    0.023 sec
Total time needed                          ...    0.059 sec

Time for model grid setup =    0.118 sec

------------------------------
INITIAL GUESS: MODEL POTENTIAL
------------------------------
Loading Hartree-Fock densities                     ... done
Calculating cut-offs                               ... done
Initializing the effective Hamiltonian             ... done
Setting up the integral package (SHARK)            ... done
Starting the Coulomb interaction                   ... done (   0.1 sec)
Reading the grid                                   ... done
Mapping shells                                     ... done
Starting the XC term evaluation                    ... done (   0.1 sec)
  promolecular density results
     # of electrons  =    108.987580720
     EX              =    -87.230070046
     EC              =     -3.609978412
     EX+EC           =    -90.840048458
Transforming the Hamiltonian                       ... done (   0.0 sec)
Diagonalizing the Hamiltonian                      ... done (   0.0 sec)
Back transforming the eigenvectors                 ... done (   0.0 sec)
Now organizing SCF variables                       ... done
                      ------------------
                      INITIAL GUESS DONE (   0.4 sec)
                      ------------------
-------------------
DFT GRID GENERATION
-------------------

General Integration Accuracy     IntAcc      ... 4.388
Radial Grid Type                 RadialGrid  ... OptM3 with GC (2021)
Angular Grid (max. ang.)         AngularGrid ... 4 (Lebedev-302)
Angular grid pruning method      GridPruning ... 4 (adaptive)
Weight generation scheme         WeightScheme... Becke
Basis function cutoff            BFCut       ... 1.0000e-11
Integration weight cutoff        WCut        ... 1.0000e-14
Angular grids for H and He will be reduced by one unit
Partially contracted basis set               ... off
Rotationally invariant grid construction     ... off

Total number of grid points                  ...   141806
Total number of batches                      ...     2235
Average number of points per batch           ...       63
Average number of grid points per atom       ...     4431
Time for grid setup =    0.601 sec

--------------------
COSX GRID GENERATION
--------------------

GRIDX 1
-------
General Integration Accuracy     IntAcc      ... 3.816
Radial Grid Type                 RadialGrid  ... OptM3 with GC (2021)
Angular Grid (max. ang.)         AngularGrid ... 1 (Lebedev-50)
Angular grid pruning method      GridPruning ... 4 (adaptive)
Weight generation scheme         WeightScheme... Becke
Basis function cutoff            BFCut       ... 1.0000e-11
Integration weight cutoff        WCut        ... 1.0000e-14
Angular grids for H and He will be reduced by one unit
Partially contracted basis set               ... on
Rotationally invariant grid construction     ... off

Total number of grid points                  ...    18095
Total number of batches                      ...      303
Average number of points per batch           ...       59
Average number of grid points per atom       ...      565
UseSFitting                                  ... on

GRIDX 2
-------
General Integration Accuracy     IntAcc      ... 4.020
Radial Grid Type                 RadialGrid  ... OptM3 with GC (2021)
Angular Grid (max. ang.)         AngularGrid ... 2 (Lebedev-110)
Angular grid pruning method      GridPruning ... 4 (adaptive)
Weight generation scheme         WeightScheme... Becke
Basis function cutoff            BFCut       ... 1.0000e-11
Integration weight cutoff        WCut        ... 1.0000e-14
Angular grids for H and He will be reduced by one unit
Partially contracted basis set               ... on
Rotationally invariant grid construction     ... off

Total number of grid points                  ...    38394
Total number of batches                      ...      615
Average number of points per batch           ...       62
Average number of grid points per atom       ...     1200
UseSFitting                                  ... on

GRIDX 3
-------
General Integration Accuracy     IntAcc      ... 4.338
Radial Grid Type                 RadialGrid  ... OptM3 with GC (2021)
Angular Grid (max. ang.)         AngularGrid ... 3 (Lebedev-194)
Angular grid pruning method      GridPruning ... 4 (adaptive)
Weight generation scheme         WeightScheme... Becke
Basis function cutoff            BFCut       ... 1.0000e-11
Integration weight cutoff        WCut        ... 1.0000e-14
Angular grids for H and He will be reduced by one unit
Partially contracted basis set               ... on
Rotationally invariant grid construction     ... off

Total number of grid points                  ...    83705
Total number of batches                      ...     1326
Average number of points per batch           ...       63
Average number of grid points per atom       ...     2616
UseSFitting                                  ... on

Time for X-Grid setup             =    0.810 sec

--------------
SCF ITERATIONS
--------------
ITER       Energy         Delta-E        Max-DP      RMS-DP      [F,P]     Damp
               ***  Starting incremental Fock matrix formation  ***
  0   -667.9143011322   0.000000000000 0.05371254  0.00047251  0.1480102 0.7000
  1   -668.1460844334  -0.231783301129 0.04646078  0.00039088  0.0702993 0.7000
                               ***Turning on DIIS***
  2   -668.2486813240  -0.102596890620 0.07897496  0.00073960  0.0267758 0.0000
  3   -668.4103904095  -0.161709085516 0.03536426  0.00028278  0.0358102 0.0000
  4   -668.4417433122  -0.031352902742 0.00661193  0.00008648  0.0060182 0.0000
  5   -668.4428466905  -0.001103378224 0.00388986  0.00003748  0.0037362 0.0000
  6   -668.4430777033  -0.000231012799 0.00243300  0.00001963  0.0012763 0.0000
  7   -668.4431196407  -0.000041937482 0.00194396  0.00001559  0.0006469 0.0000
               *** Restarting incremental Fock matrix formation ***
                                   *** Resetting DIIS ***
  8   -668.4430358006   0.000083840142 0.00073590  0.00000644  0.0002253 0.0000
  9   -668.4430366958  -0.000000895174 0.00012742  0.00000160  0.0002349 0.0000
 10   -668.4430377550  -0.000001059224 0.00010756  0.00000091  0.0000557 0.0000
 11   -668.4430378671  -0.000000112117 0.00003946  0.00000040  0.0000525 0.0000
 12   -668.4430378787  -0.000000011614 0.00002041  0.00000016  0.0000223 0.0000
 13   -668.4430378861  -0.000000007419 0.00000853  0.00000006  0.0000054 0.0000
 14   -668.4430378995  -0.000000013370 0.00000892  0.00000004  0.0000016 0.0000
                 **** Energy Check signals convergence ****

               *****************************************************
               *                     SUCCESS                       *
               *           SCF CONVERGED AFTER  15 CYCLES          *
               *****************************************************

Old exchange energy                            =    -48.246814754 Eh
New exchange energy                            =    -48.246829992 Eh
Exchange energy change after final integration =     -0.000015238 Eh
Total energy after final integration           =   -668.443053130 Eh
Final COS-X integration done in                =     4.585 sec

----------------
TOTAL SCF ENERGY
----------------

Total Energy       :         -668.44305313 Eh          -18189.26020 eV

Components:
Nuclear Repulsion  :          914.77488722 Eh           24892.29018 eV
Electronic Energy  :        -1583.21794035 Eh          -43081.55038 eV
One Electron Energy:        -2723.28578519 Eh          -74104.37361 eV
Two Electron Energy:         1140.06784484 Eh           31022.82323 eV
Max COSX asymmetry :            0.00000306 Eh               0.00008 eV

Virial components:
Potential Energy   :        -1333.22041702 Eh          -36278.77192 eV
Kinetic Energy     :          664.77736389 Eh           18089.51172 eV
Virial Ratio       :            2.00551416


DFT components:
N(Alpha)           :       55.000001246519 electrons
N(Beta)            :       54.000034032475 electrons
N(Total)           :      109.000035278994 electrons
E(XC)              :      -45.002175322353 Eh       
DFET-embed. en.    :        0.000000000000 Eh       

---------------
SCF CONVERGENCE
---------------

  Last Energy change         ...    7.6963e-09  Tolerance :   1.0000e-08
  Last MAX-Density change    ...    0.0000e+00  Tolerance :   1.0000e-07
  Last RMS-Density change    ...    0.0000e+00  Tolerance :   5.0000e-09
  Last DIIS Error            ...    6.9385e-07  Tolerance :   5.0000e-07

             **** THE GBW FILE WAS UPDATED (freq.gbw) ****
             **** DENSITY freq.scfp WAS UPDATED ****
             **** ENERGY FILE WAS UPDATED (freq.en.tmp) ****
----------------------
UHF SPIN CONTAMINATION
----------------------

Warning: in a DFT calculation there is little theoretical justification to 
         calculate <S**2> as in Hartree-Fock theory. We will do it anyways
         but you should keep in mind that the values have only limited relevance

Expectation value of <S**2>     :     0.755161
Ideal value S*(S+1) for S=0.5   :     0.750000
Deviation                       :     0.005161

             **** THE GBW FILE WAS UPDATED (freq.gbw) ****
             **** DENSITY freq.scfp WAS UPDATED ****
----------------
ORBITAL ENERGIES
----------------
                 SPIN UP ORBITALS
  NO   OCC          E(Eh)            E(eV) 
   0   1.0000     -19.607588      -533.5496 
   1   1.0000     -19.586706      -532.9814 
   2   1.0000     -14.788107      -402.4048 
   3   1.0000     -14.769235      -401.8913 
   4   1.0000     -14.727665      -400.7601 
   5   1.0000     -10.656718      -289.9840 
   6   1.0000     -10.643383      -289.6212 
   7   1.0000     -10.596107      -288.3347 
   8   1.0000     -10.580725      -287.9162 
   9   1.0000     -10.560483      -287.3654 
  10   1.0000     -10.550198      -287.0855 
  11   1.0000     -10.547550      -287.0134 
  12   1.0000     -10.540457      -286.8204 
  13   1.0000     -10.537751      -286.7468 
  14   1.0000      -1.170243       -31.8439 
  15   1.0000      -1.148643       -31.2562 
  16   1.0000      -1.042070       -28.3562 
  17   1.0000      -1.030708       -28.0470 
  18   1.0000      -0.986994       -26.8575 
  19   1.0000      -0.906000       -24.6535 
  20   1.0000      -0.862247       -23.4629 
  21   1.0000      -0.825162       -22.4538 
  22   1.0000      -0.810868       -22.0648 
  23   1.0000      -0.760226       -20.6868 
  24   1.0000      -0.706287       -19.2191 
  25   1.0000      -0.682256       -18.5651 
  26   1.0000      -0.671805       -18.2808 
  27   1.0000      -0.643194       -17.5022 
  28   1.0000      -0.617992       -16.8164 
  29   1.0000      -0.569505       -15.4970 
  30   1.0000      -0.561797       -15.2873 
  31   1.0000      -0.550483       -14.9794 
  32   1.0000      -0.545520       -14.8444 
  33   1.0000      -0.535618       -14.5749 
  34   1.0000      -0.530164       -14.4265 
  35   1.0000      -0.524692       -14.2776 
  36   1.0000      -0.508487       -13.8366 
  37   1.0000      -0.499701       -13.5976 
  38   1.0000      -0.495972       -13.4961 
  39   1.0000      -0.475464       -12.9380 
  40   1.0000      -0.473212       -12.8768 
  41   1.0000      -0.472586       -12.8597 
  42   1.0000      -0.458708       -12.4821 
  43   1.0000      -0.448151       -12.1948 
  44   1.0000      -0.441481       -12.0133 
  45   1.0000      -0.433710       -11.8018 
  46   1.0000      -0.416996       -11.3471 
  47   1.0000      -0.410718       -11.1762 
  48   1.0000      -0.398115       -10.8333 
  49   1.0000      -0.348410        -9.4807 
  50   1.0000      -0.337573        -9.1858 
  51   1.0000      -0.328535        -8.9399 
  52   1.0000      -0.319117        -8.6836 
  53   1.0000      -0.311963        -8.4889 
  54   1.0000      -0.245023        -6.6674 
  55   0.0000       0.040379         1.0988 
  56   0.0000       0.049862         1.3568 
  57   0.0000       0.063045         1.7156 
  58   0.0000       0.064786         1.7629 
  59   0.0000       0.070571         1.9203 
  60   0.0000       0.084186         2.2908 
  61   0.0000       0.094437         2.5698 
  62   0.0000       0.103996         2.8299 
  63   0.0000       0.109712         2.9854 
  64   0.0000       0.114492         3.1155 
  65   0.0000       0.119760         3.2588 
  66   0.0000       0.132400         3.6028 
  67   0.0000       0.139420         3.7938 
  68   0.0000       0.147751         4.0205 
  69   0.0000       0.150431         4.0934 
  70   0.0000       0.154774         4.2116 
  71   0.0000       0.161639         4.3984 
  72   0.0000       0.164423         4.4742 
  73   0.0000       0.171936         4.6786 
  74   0.0000       0.174575         4.7504 
  75   0.0000       0.183710         4.9990 
  76   0.0000       0.185196         5.0394 
  77   0.0000       0.197626         5.3777 
  78   0.0000       0.203871         5.5476 
  79   0.0000       0.209634         5.7044 
  80   0.0000       0.214975         5.8498 
  81   0.0000       0.226731         6.1697 
  82   0.0000       0.232851         6.3362 
  83   0.0000       0.237830         6.4717 
  84   0.0000       0.246445         6.7061 
  85   0.0000       0.250677         6.8213 
  86   0.0000       0.259665         7.0658 
  87   0.0000       0.264006         7.1840 
  88   0.0000       0.265832         7.2337 
  89   0.0000       0.280666         7.6373 
  90   0.0000       0.283716         7.7203 
  91   0.0000       0.291611         7.9351 
  92   0.0000       0.303957         8.2711 
  93   0.0000       0.311638         8.4801 
  94   0.0000       0.318975         8.6797 
  95   0.0000       0.325608         8.8602 
  96   0.0000       0.329143         8.9564 
  97   0.0000       0.339502         9.2383 
  98   0.0000       0.340431         9.2636 
  99   0.0000       0.353779         9.6268 
 100   0.0000       0.370446        10.0804 
 101   0.0000       0.373954        10.1758 
 102   0.0000       0.386178        10.5084 
 103   0.0000       0.391089        10.6421 
 104   0.0000       0.401891        10.9360 
 105   0.0000       0.405395        11.0314 
 106   0.0000       0.410455        11.1690 
 107   0.0000       0.420417        11.4401 
 108   0.0000       0.424581        11.5534 
 109   0.0000       0.426379        11.6024 
 110   0.0000       0.434880        11.8337 
 111   0.0000       0.443564        12.0700 
 112   0.0000       0.446323        12.1451 
 113   0.0000       0.450520        12.2593 
 114   0.0000       0.451406        12.2834 
 115   0.0000       0.458724        12.4825 
 116   0.0000       0.464332        12.6351 
 117   0.0000       0.468664        12.7530 
 118   0.0000       0.476653        12.9704 
 119   0.0000       0.479207        13.0399 
 120   0.0000       0.487120        13.2552 
 121   0.0000       0.494050        13.4438 
 122   0.0000       0.497112        13.5271 
 123   0.0000       0.501371        13.6430 
 124   0.0000       0.507788        13.8176 
 125   0.0000       0.511553        13.9201 
 126   0.0000       0.518625        14.1125 
 127   0.0000       0.522347        14.2138 
 128   0.0000       0.525124        14.2894 
 129   0.0000       0.528800        14.3894 
 130   0.0000       0.538471        14.6525 
 131   0.0000       0.543011        14.7761 
 132   0.0000       0.548296        14.9199 
 133   0.0000       0.561761        15.2863 
 134   0.0000       0.567674        15.4472 
 135   0.0000       0.570350        15.5200 
 136   0.0000       0.575682        15.6651 
 137   0.0000       0.583155        15.8685 
 138   0.0000       0.592727        16.1289 
 139   0.0000       0.594991        16.1905 
 140   0.0000       0.607148        16.5213 
 141   0.0000       0.608290        16.5524 
 142   0.0000       0.615701        16.7541 
 143   0.0000       0.615953        16.7609 
 144   0.0000       0.634606        17.2685 
 145   0.0000       0.638944        17.3866 
 146   0.0000       0.646148        17.5826 
 147   0.0000       0.662848        18.0370 
 148   0.0000       0.664277        18.0759 
 149   0.0000       0.674181        18.3454 
 150   0.0000       0.687446        18.7064 
 151   0.0000       0.692935        18.8557 
 152   0.0000       0.709456        19.3053 
 153   0.0000       0.728913        19.8347 
 154   0.0000       0.741951        20.1895 
 155   0.0000       0.761240        20.7144 
 156   0.0000       0.769881        20.9495 
 157   0.0000       0.782418        21.2907 
 158   0.0000       0.793900        21.6031 
 159   0.0000       0.801501        21.8099 
 160   0.0000       0.803737        21.8708 
 161   0.0000       0.813543        22.1376 
 162   0.0000       0.827903        22.5284 
 163   0.0000       0.847530        23.0625 
 164   0.0000       0.869820        23.6690 
 165   0.0000       0.881442        23.9853 
 166   0.0000       0.887698        24.1555 
 167   0.0000       0.900649        24.5079 
 168   0.0000       0.911512        24.8035 
 169   0.0000       0.921549        25.0766 
 170   0.0000       0.929700        25.2984 
 171   0.0000       0.937880        25.5210 
 172   0.0000       0.953115        25.9356 
 173   0.0000       0.960951        26.1488 
 174   0.0000       0.968920        26.3657 
 175   0.0000       0.982260        26.7286 
 176   0.0000       1.001659        27.2565 
 177   0.0000       1.004428        27.3319 
 178   0.0000       1.015842        27.6425 
 179   0.0000       1.023996        27.8644 
 180   0.0000       1.040933        28.3252 
 181   0.0000       1.045655        28.4537 
 182   0.0000       1.066861        29.0308 
 183   0.0000       1.068358        29.0715 
 184   0.0000       1.081887        29.4397 
 185   0.0000       1.092780        29.7361 
 186   0.0000       1.100761        29.9532 
 187   0.0000       1.113904        30.3109 
 188   0.0000       1.121855        30.5272 
 189   0.0000       1.152099        31.3502 
 190   0.0000       1.163071        31.6488 
 191   0.0000       1.170617        31.8541 
 192   0.0000       1.174111        31.9492 
 193   0.0000       1.205593        32.8059 
 194   0.0000       1.206998        32.8441 
 195   0.0000       1.222357        33.2620 
 196   0.0000       1.236107        33.6362 
 197   0.0000       1.257019        34.2052 
 198   0.0000       1.268319        34.5127 
 199   0.0000       1.282839        34.9078 
 200   0.0000       1.293125        35.1877 
 201   0.0000       1.309923        35.6448 
 202   0.0000       1.322780        35.9947 
 203   0.0000       1.331508        36.2322 
 204   0.0000       1.343482        36.5580 
 205   0.0000       1.349016        36.7086 
 206   0.0000       1.377166        37.4746 
 207   0.0000       1.389245        37.8033 
 208   0.0000       1.393245        37.9121 
 209   0.0000       1.400689        38.1147 
 210   0.0000       1.406688        38.2779 
 211   0.0000       1.424654        38.7668 
 212   0.0000       1.443560        39.2813 
 213   0.0000       1.452701        39.5300 
 214   0.0000       1.464082        39.8397 
 215   0.0000       1.487801        40.4851 
 216   0.0000       1.494182        40.6587 
 217   0.0000       1.504326        40.9348 
 218   0.0000       1.524232        41.4765 
 219   0.0000       1.528593        41.5951 
 220   0.0000       1.541902        41.9573 
 221   0.0000       1.545610        42.0582 
 222   0.0000       1.555264        42.3209 
 223   0.0000       1.560523        42.4640 
 224   0.0000       1.570237        42.7283 
 225   0.0000       1.573712        42.8229 
 226   0.0000       1.583740        43.0958 
 227   0.0000       1.590284        43.2738 
 228   0.0000       1.594718        43.3945 
 229   0.0000       1.607017        43.7291 
 230   0.0000       1.611874        43.8613 
 231   0.0000       1.619526        44.0695 
 232   0.0000       1.629501        44.3410 
 233   0.0000       1.635164        44.4951 
 234   0.0000       1.638495        44.5857 
 235   0.0000       1.660116        45.1741 
 236   0.0000       1.673119        45.5279 
 237   0.0000       1.686128        45.8819 
 238   0.0000       1.691513        46.0284 
 239   0.0000       1.693169        46.0735 
 240   0.0000       1.720272        46.8110 
 241   0.0000       1.730080        47.0779 
 242   0.0000       1.753397        47.7124 
 243   0.0000       1.762189        47.9516 
 244   0.0000       1.768729        48.1296 
 245   0.0000       1.773167        48.2503 
 246   0.0000       1.776728        48.3472 
 247   0.0000       1.803174        49.0669 
 248   0.0000       1.819506        49.5113 
 249   0.0000       1.828246        49.7491 
 250   0.0000       1.841614        50.1129 
 251   0.0000       1.847887        50.2836 
 252   0.0000       1.853740        50.4428 
 253   0.0000       1.871027        50.9132 
 254   0.0000       1.884770        51.2872 
 255   0.0000       1.891765        51.4775 
 256   0.0000       1.906425        51.8765 
 257   0.0000       1.915607        52.1263 
 258   0.0000       1.921936        52.2985 
 259   0.0000       1.934705        52.6460 
 260   0.0000       1.949220        53.0410 
 261   0.0000       1.958873        53.3037 
 262   0.0000       1.969162        53.5836 
 263   0.0000       1.976146        53.7737 
 264   0.0000       1.995617        54.3035 
 265   0.0000       1.998600        54.3847 
 266   0.0000       2.005164        54.5633 
 267   0.0000       2.016857        54.8815 
 268   0.0000       2.018501        54.9262 
 269   0.0000       2.029856        55.2352 
 270   0.0000       2.037942        55.4552 
 271   0.0000       2.052273        55.8452 
 272   0.0000       2.058871        56.0247 
 273   0.0000       2.072661        56.4000 
 274   0.0000       2.081055        56.6284 
 275   0.0000       2.090419        56.8832 
 276   0.0000       2.106186        57.3122 
 277   0.0000       2.115965        57.5783 
 278   0.0000       2.136548        58.1384 
 279   0.0000       2.155754        58.6610 
 280   0.0000       2.160966        58.8029 
 281   0.0000       2.185256        59.4638 
 282   0.0000       2.188204        59.5441 
 283   0.0000       2.194665        59.7199 
 284   0.0000       2.220790        60.4308 
 285   0.0000       2.234055        60.7917 
 286   0.0000       2.244543        61.0771 
 287   0.0000       2.253182        61.3122 
 288   0.0000       2.268737        61.7355 
 289   0.0000       2.287435        62.2443 
 290   0.0000       2.290940        62.3396 
 291   0.0000       2.303258        62.6748 
 292   0.0000       2.315503        63.0080 
 293   0.0000       2.323539        63.2267 
 294   0.0000       2.331057        63.4313 
 295   0.0000       2.348163        63.8968 
 296   0.0000       2.349955        63.9455 
 297   0.0000       2.365692        64.3737 
 298   0.0000       2.375214        64.6329 
 299   0.0000       2.384092        64.8744 
 300   0.0000       2.394991        65.1710 
 301   0.0000       2.398636        65.2702 
 302   0.0000       2.406576        65.4863 
 303   0.0000       2.426868        66.0384 
 304   0.0000       2.431348        66.1603 
 305   0.0000       2.467762        67.1512 
 306   0.0000       2.468707        67.1769 
 307   0.0000       2.476705        67.3946 
 308   0.0000       2.477769        67.4235 
 309   0.0000       2.507165        68.2234 
 310   0.0000       2.525516        68.7228 
 311   0.0000       2.539663        69.1078 
 312   0.0000       2.547184        69.3124 
 313   0.0000       2.553769        69.4916 
 314   0.0000       2.559829        69.6565 
 315   0.0000       2.562824        69.7380 
 316   0.0000       2.569361        69.9159 
 317   0.0000       2.573883        70.0389 
 318   0.0000       2.594830        70.6089 
 319   0.0000       2.605010        70.8859 
 320   0.0000       2.625946        71.4556 
 321   0.0000       2.627295        71.4923 
 322   0.0000       2.631770        71.6141 
 323   0.0000       2.637610        71.7730 
 324   0.0000       2.650492        72.1236 
 325   0.0000       2.658490        72.3412 
 326   0.0000       2.662743        72.4569 
 327   0.0000       2.692821        73.2754 
 328   0.0000       2.700111        73.4738 
 329   0.0000       2.710024        73.7435 
 330   0.0000       2.716620        73.9230 
 331   0.0000       2.724294        74.1318 
 332   0.0000       2.740976        74.5857 
 333   0.0000       2.753658        74.9309 
 334   0.0000       2.769271        75.3557 
 335   0.0000       2.777521        75.5802 
 336   0.0000       2.781625        75.6919 
 337   0.0000       2.806034        76.3561 
 338   0.0000       2.812343        76.5277 
 339   0.0000       2.832750        77.0831 
 340   0.0000       2.840648        77.2980 
 341   0.0000       2.844369        77.3992 
 342   0.0000       2.851821        77.6020 
 343   0.0000       2.874342        78.2148 
 344   0.0000       2.893207        78.7282 
 345   0.0000       2.925241        79.5998 
 346   0.0000       2.929717        79.7216 
 347   0.0000       2.944323        80.1191 
 348   0.0000       2.959557        80.5336 
 349   0.0000       2.965843        80.7047 
 350   0.0000       2.973092        80.9020 
 351   0.0000       2.980648        81.1076 
 352   0.0000       2.993076        81.4457 
 353   0.0000       3.006483        81.8106 
 354   0.0000       3.013322        81.9967 
 355   0.0000       3.023962        82.2862 
 356   0.0000       3.041974        82.7763 
 357   0.0000       3.046984        82.9126 
 358   0.0000       3.053722        83.0960 
 359   0.0000       3.069571        83.5273 
 360   0.0000       3.072735        83.6134 
 361   0.0000       3.091205        84.1160 
 362   0.0000       3.105928        84.5166 
 363   0.0000       3.113775        84.7301 
 364   0.0000       3.118005        84.8452 
 365   0.0000       3.126017        85.0633 
 366   0.0000       3.136773        85.3559 
 367   0.0000       3.154489        85.8380 
 368   0.0000       3.162493        86.0558 
 369   0.0000       3.166944        86.1769 
 370   0.0000       3.173940        86.3673 
 371   0.0000       3.186735        86.7155 
 372   0.0000       3.192915        86.8836 
 373   0.0000       3.200111        87.0794 
 374   0.0000       3.216800        87.5336 
 375   0.0000       3.225467        87.7694 
 376   0.0000       3.232760        87.9679 
 377   0.0000       3.239238        88.1442 
 378   0.0000       3.251476        88.4772 
 379   0.0000       3.257077        88.6296 
 380   0.0000       3.268736        88.9468 
 381   0.0000       3.279498        89.2397 
 382   0.0000       3.281925        89.3057 
 383   0.0000       3.291227        89.5588 
 384   0.0000       3.302154        89.8562 
 385   0.0000       3.312115        90.1272 
 386   0.0000       3.318829        90.3099 
 387   0.0000       3.321604        90.3854 
 388   0.0000       3.336628        90.7943 
 389   0.0000       3.346826        91.0718 
 390   0.0000       3.352123        91.2159 
 391   0.0000       3.358790        91.3973 
 392   0.0000       3.368053        91.6494 
 393   0.0000       3.378654        91.9378 
 394   0.0000       3.387696        92.1839 
 395   0.0000       3.404346        92.6370 
 396   0.0000       3.409447        92.7758 
 397   0.0000       3.416576        92.9697 
 398   0.0000       3.428793        93.3022 
 399   0.0000       3.435627        93.4882 
 400   0.0000       3.439094        93.5825 
 401   0.0000       3.455646        94.0329 
 402   0.0000       3.484043        94.8056 
 403   0.0000       3.505946        95.4016 
 404   0.0000       3.517735        95.7224 
 405   0.0000       3.524257        95.8999 
 406   0.0000       3.531356        96.0931 
 407   0.0000       3.541649        96.3732 
 408   0.0000       3.552900        96.6793 
 409   0.0000       3.568262        97.0973 
 410   0.0000       3.587174        97.6120 
 411   0.0000       3.595140        97.8287 
 412   0.0000       3.630539        98.7920 
 413   0.0000       3.637770        98.9887 
 414   0.0000       3.672946        99.9460 
 415   0.0000       3.698868       100.6513 
 416   0.0000       3.704950       100.8168 
 417   0.0000       3.731292       101.5336 
 418   0.0000       3.752886       102.1212 
 419   0.0000       3.765980       102.4775 
 420   0.0000       3.776058       102.7518 
 421   0.0000       3.788269       103.0841 
 422   0.0000       3.804815       103.5343 
 423   0.0000       3.836013       104.3832 
 424   0.0000       3.840325       104.5005 
 425   0.0000       3.842479       104.5592 
 426   0.0000       3.865143       105.1759 
 427   0.0000       3.869085       105.2831 
 428   0.0000       3.884622       105.7059 
 429   0.0000       3.897649       106.0604 
 430   0.0000       3.908255       106.3490 
 431   0.0000       3.927273       106.8665 
 432   0.0000       3.952145       107.5433 
 433   0.0000       3.966542       107.9351 
 434   0.0000       4.011352       109.1544 
 435   0.0000       4.014507       109.2403 
 436   0.0000       4.038650       109.8973 
 437   0.0000       4.043052       110.0170 
 438   0.0000       4.085529       111.1729 
 439   0.0000       4.099952       111.5654 
 440   0.0000       4.121864       112.1616 
 441   0.0000       4.142821       112.7319 
 442   0.0000       4.148791       112.8943 
 443   0.0000       4.178016       113.6896 
 444   0.0000       4.188705       113.9805 
 445   0.0000       4.201688       114.3337 
 446   0.0000       4.248604       115.6104 
 447   0.0000       4.264662       116.0473 
 448   0.0000       4.305198       117.1504 
 449   0.0000       4.320388       117.5637 
 450   0.0000       4.324930       117.6873 
 451   0.0000       4.334803       117.9560 
 452   0.0000       4.342145       118.1558 
 453   0.0000       4.363252       118.7301 
 454   0.0000       4.388119       119.4068 
 455   0.0000       4.392846       119.5354 
 456   0.0000       4.418735       120.2399 
 457   0.0000       4.443933       120.9256 
 458   0.0000       4.473222       121.7225 
 459   0.0000       4.505237       122.5937 
 460   0.0000       4.522511       123.0638 
 461   0.0000       4.525334       123.1406 
 462   0.0000       4.540520       123.5538 
 463   0.0000       4.578482       124.5868 
 464   0.0000       4.625488       125.8659 
 465   0.0000       4.638729       126.2262 
 466   0.0000       4.661195       126.8376 
 467   0.0000       4.703529       127.9895 
 468   0.0000       4.720130       128.4413 
 469   0.0000       4.743063       129.0653 
 470   0.0000       4.756894       129.4417 
 471   0.0000       4.773666       129.8980 
 472   0.0000       4.800035       130.6156 
 473   0.0000       4.821718       131.2056 
 474   0.0000       4.835695       131.5860 
 475   0.0000       4.857187       132.1708 
 476   0.0000       4.866672       132.4289 
 477   0.0000       4.919258       133.8598 
 478   0.0000       4.940527       134.4386 
 479   0.0000       4.951603       134.7400 
 480   0.0000       4.969877       135.2372 
 481   0.0000       4.975729       135.3965 
 482   0.0000       5.022019       136.6561 
 483   0.0000       5.055385       137.5640 
 484   0.0000       5.067400       137.8910 
 485   0.0000       5.096298       138.6773 
 486   0.0000       5.106655       138.9592 
 487   0.0000       5.115453       139.1986 
 488   0.0000       5.183640       141.0540 
 489   0.0000       5.200202       141.5047 
 490   0.0000       5.213222       141.8590 
 491   0.0000       5.226667       142.2248 
 492   0.0000       5.244705       142.7157 
 493   0.0000       5.261952       143.1850 
 494   0.0000       5.264978       143.2673 
 495   0.0000       5.274439       143.5248 
 496   0.0000       5.294732       144.0770 
 497   0.0000       5.309143       144.4691 
 498   0.0000       5.384824       146.5285 
 499   0.0000       5.428866       147.7270 
 500   0.0000       5.439251       148.0096 
 501   0.0000       5.479235       149.0976 
 502   0.0000       5.519630       150.1968 
 503   0.0000       5.539645       150.7414 
 504   0.0000       5.582095       151.8965 
 505   0.0000       5.647155       153.6669 
 506   0.0000       5.673336       154.3793 
 507   0.0000       5.723053       155.7322 
 508   0.0000       5.736659       156.1024 
 509   0.0000       5.772383       157.0745 
 510   0.0000       5.889418       160.2592 
 511   0.0000       5.907035       160.7386 
 512   0.0000       6.085059       165.5829 
 513   0.0000       6.109055       166.2358 
 514   0.0000       6.291163       171.1912 
 515   0.0000       6.301019       171.4594 
 516   0.0000       6.415885       174.5851 
 517   0.0000       6.424162       174.8103 
 518   0.0000       6.548412       178.1914 
 519   0.0000       6.558689       178.4710 
 520   0.0000       6.649959       180.9546 
 521   0.0000       6.659122       181.2039 
 522   0.0000       6.827630       185.7893 
 523   0.0000       6.834091       185.9651 
 524   0.0000       7.045744       191.7245 
 525   0.0000       7.068217       192.3360 
 526   0.0000       7.078493       192.6156 
 527   0.0000       7.101480       193.2411 
 528   0.0000      22.401580       609.5780 
 529   0.0000      22.461832       611.2175 
 530   0.0000      22.467563       611.3735 
 531   0.0000      22.505854       612.4154 
 532   0.0000      22.585920       614.5941 
 533   0.0000      22.626076       615.6868 
 534   0.0000      22.796739       620.3308 
 535   0.0000      23.357471       635.5891 
 536   0.0000      23.401828       636.7961 
 537   0.0000      32.051377       872.1623 
 538   0.0000      32.504674       884.4971 
 539   0.0000      32.679925       889.2660 
 540   0.0000      44.065903      1199.0942 
 541   0.0000      44.097448      1199.9526 

                 SPIN DOWN ORBITALS
  NO   OCC          E(Eh)            E(eV) 
   0   1.0000     -19.607512      -533.5475 
   1   1.0000     -19.586630      -532.9793 
   2   1.0000     -14.788103      -402.4047 
   3   1.0000     -14.769214      -401.8908 
   4   1.0000     -14.727641      -400.7595 
   5   1.0000     -10.656731      -289.9844 
   6   1.0000     -10.643387      -289.6213 
   7   1.0000     -10.595982      -288.3313 
   8   1.0000     -10.580722      -287.9161 
   9   1.0000     -10.560312      -287.3607 
  10   1.0000     -10.550858      -287.1034 
  11   1.0000     -10.540704      -286.8271 
  12   1.0000     -10.540457      -286.8204 
  13   1.0000     -10.538378      -286.7639 
  14   1.0000      -1.170094       -31.8399 
  15   1.0000      -1.148506       -31.2524 
  16   1.0000      -1.042019       -28.3548 
  17   1.0000      -1.030428       -28.0394 
  18   1.0000      -0.986518       -26.8445 
  19   1.0000      -0.895699       -24.3732 
  20   1.0000      -0.855649       -23.2834 
  21   1.0000      -0.824987       -22.4490 
  22   1.0000      -0.809366       -22.0240 
  23   1.0000      -0.755445       -20.5567 
  24   1.0000      -0.700953       -19.0739 
  25   1.0000      -0.682199       -18.5636 
  26   1.0000      -0.666019       -18.1233 
  27   1.0000      -0.630376       -17.1534 
  28   1.0000      -0.617303       -16.7977 
  29   1.0000      -0.567705       -15.4480 
  30   1.0000      -0.560169       -15.2430 
  31   1.0000      -0.549997       -14.9662 
  32   1.0000      -0.544203       -14.8085 
  33   1.0000      -0.534783       -14.5522 
  34   1.0000      -0.525000       -14.2860 
  35   1.0000      -0.523759       -14.2522 
  36   1.0000      -0.500048       -13.6070 
  37   1.0000      -0.496755       -13.5174 
  38   1.0000      -0.492623       -13.4050 
  39   1.0000      -0.473707       -12.8902 
  40   1.0000      -0.472514       -12.8578 
  41   1.0000      -0.469452       -12.7744 
  42   1.0000      -0.456391       -12.4190 
  43   1.0000      -0.445115       -12.1122 
  44   1.0000      -0.438641       -11.9360 
[...]
     60      -0.000262  -0.000009   0.000007   0.000015  -0.000462   0.000006
     61       0.000224   0.000012   0.000006   0.000006   0.000663  -0.000014
     62       0.000422   0.000031   0.000004   0.000001   0.001518  -0.000036
     63       0.055296   0.000243   0.000007   0.000017   0.000165   0.000011
     64      -0.031390  -0.000176   0.000005   0.000007  -0.000099  -0.000001
     65      -0.068681  -0.000344   0.000001  -0.000002  -0.000318  -0.000004
     66       0.054030   0.000389   0.000012   0.000022  -0.000256  -0.000012
     67       0.120563   0.000994   0.000003   0.000002   0.000541  -0.000049
     68      -0.009658  -0.000028  -0.000003  -0.000002  -0.000062  -0.000000
     69      -0.641018  -0.002928   0.000002   0.000017  -0.000762   0.000023
     70      -0.012879  -0.000053   0.000007   0.000012  -0.000010  -0.000016
     71       0.155294   0.000703   0.000005   0.000001   0.000166   0.000017
     72      -0.082659  -0.000433   0.000009   0.000011  -0.001767  -0.000031
     73       0.273421   0.001424   0.000007   0.000014   0.003288   0.000051
     74       0.675159   0.003529   0.000007   0.000008   0.004523  -0.000019
     75       0.000220  -0.035676  -0.000009  -0.000010   0.000051  -0.000756
     76      -0.000200   0.036123  -0.000003  -0.000013  -0.000090   0.001601
     77       0.000466  -0.078625   0.000002   0.000002  -0.000011   0.000139
     78      -0.001114   0.181459  -0.000019  -0.000032  -0.000024   0.003258
     79      -0.000851   0.137939  -0.000011  -0.000004  -0.000022   0.005315
     80      -0.000341   0.056206  -0.000008   0.000010   0.000186   0.002276
     81      -0.002664   0.477565  -0.000003  -0.000021  -0.000261   0.004711
     82       0.002569  -0.458563  -0.000009   0.000006   0.000254  -0.005443
     83      -0.003201   0.580382   0.000006  -0.000012  -0.000418   0.005380
     84       0.001318  -0.239357  -0.000004  -0.000006   0.000162  -0.005057
     85       0.000515  -0.095643  -0.000003  -0.000005  -0.000068   0.000906
     86      -0.001646   0.306360  -0.000014   0.000022   0.000153   0.006436
     87      -0.000887  -0.000291  -0.000008   0.000040  -0.002184  -0.000219
     88      -0.000799   0.000035   0.000002   0.000012  -0.005249  -0.000174
     89       0.001637   0.000386   0.000025   0.000032   0.006032   0.000894
     90       0.000509   0.000271  -0.000040  -0.000038   0.001168  -0.000530
     91      -0.000645  -0.000468   0.000010   0.000024  -0.000483  -0.002150
     92       0.001043   0.000706  -0.000021  -0.000033   0.001049   0.000056
     93       0.000042  -0.000007  -0.000014   0.000057  -0.000739  -0.000324
     94       0.000293   0.000233   0.000001  -0.000027  -0.000796  -0.000191
     95       0.000113   0.000122   0.000022  -0.000052  -0.000591  -0.000340


-----------
IR SPECTRUM
-----------

 Mode   freq       eps      Int      T**2         TX        TY        TZ
       cm**-1   L/(mol*cm) km/mol    a.u.
----------------------------------------------------------------------------
  7:     43.93   0.000819    4.14  0.005816  (-0.067817 -0.017678  0.030066)
  8:     50.42   0.000030    0.15  0.000185  ( 0.002494  0.004467  0.012604)
  9:     69.79   0.000721    3.64  0.003223  ( 0.035029  0.042343  0.014247)
 10:     84.36   0.000809    4.09  0.002992  (-0.036145 -0.041052 -0.000645)
 11:     90.85   0.001844    9.32  0.006335  (-0.070704 -0.024884  0.026768)
 12:    104.91   0.001238    6.26  0.003683  (-0.002339  0.058303  0.016682)
 13:    112.49   0.001518    7.67  0.004211  ( 0.037320  0.052707  0.006349)
 14:    133.50   0.001253    6.33  0.002930  (-0.047681  0.025192 -0.004695)
 15:    151.54   0.000586    2.96  0.001207  ( 0.004442 -0.034216 -0.004117)
 16:    162.05   0.000890    4.50  0.001714  (-0.038458 -0.012919  0.008235)
 17:    165.59   0.000404    2.04  0.000762  ( 0.010912 -0.024834 -0.005068)
 18:    212.83   0.000707    3.57  0.001036  (-0.021870  0.009315  0.021700)
 19:    235.08   0.001653    8.35  0.002194  ( 0.025403 -0.039194  0.003508)
 20:    256.02   0.005462   27.60  0.006657  ( 0.041066 -0.052785 -0.046738)
 21:    292.12   0.001886    9.53  0.002015  ( 0.034091 -0.027962 -0.008414)
 22:    323.24   0.002734   13.82  0.002640  ( 0.049557  0.000319 -0.013554)
 23:    361.12   0.001151    5.82  0.000995  ( 0.027129 -0.015954 -0.002043)
 24:    381.03   0.006039   30.52  0.004946  ( 0.029713  0.063043 -0.009399)
 25:    400.83   0.010348   52.30  0.008057  (-0.061479 -0.064838  0.008532)
 26:    412.44   0.006140   31.03  0.004646  ( 0.063633 -0.020220 -0.013705)
 27:    445.24   0.000525    2.65  0.000368  ( 0.010826  0.000733  0.015826)
 28:    511.83   0.001765    8.92  0.001076  ( 0.006825 -0.021667  0.023670)
 29:    552.22   0.007819   39.51  0.004418  (-0.064158 -0.013154  0.011359)
 30:    577.61   0.008937   45.16  0.004828  ( 0.035648  0.057620 -0.015409)
 31:    632.88   0.004325   21.86  0.002133  (-0.044400  0.005548  0.011426)
 32:    664.93   0.000820    4.14  0.000385  ( 0.013805  0.012036 -0.007034)
 33:    696.16   0.000287    1.45  0.000129  ( 0.008517  0.006501  0.003709)
 34:    779.77   0.001603    8.10  0.000641  ( 0.007088 -0.007880  0.023003)
 35:    806.96   0.002397   12.11  0.000927  (-0.028071 -0.006232 -0.010007)
 36:    844.55   0.026112  131.96  0.009649  (-0.065892  0.032585 -0.065154)
 37:    878.45   0.001371    6.93  0.000487  ( 0.005422 -0.013012 -0.016977)
 38:    922.03   0.000497    2.51  0.000168  (-0.000315 -0.008578 -0.009724)
 39:    954.10   0.001068    5.40  0.000349  (-0.012561  0.007855 -0.011399)
 40:    978.82   0.000253    1.28  0.000081  ( 0.000460 -0.006319  0.006358)
 41:   1015.99   0.000371    1.87  0.000114  ( 0.005305 -0.004066 -0.008322)
 42:   1028.79   0.002543   12.85  0.000771  (-0.021266  0.017846 -0.000730)
 43:   1040.96   0.001441    7.28  0.000432  (-0.011734  0.004201 -0.016635)
 44:   1064.03   0.001204    6.09  0.000353  (-0.015527 -0.010152  0.003015)
 45:   1082.75   0.001337    6.76  0.000385  ( 0.005960 -0.007234  0.017247)
 46:   1114.33   0.004309   21.77  0.001207  ( 0.033722  0.008233 -0.001269)
 47:   1127.48   0.000164    0.83  0.000045  (-0.003014  0.005080  0.003238)
 48:   1150.61   0.000535    2.70  0.000145  ( 0.004681  0.004026 -0.010339)
 49:   1155.53   0.000379    1.92  0.000102  ( 0.001248  0.004439 -0.009011)
 50:   1162.01   0.000246    1.24  0.000066  ( 0.003060 -0.007250  0.002007)
 51:   1167.95   0.000123    0.62  0.000033  ( 0.003205  0.004743  0.000469)
 52:   1198.95   0.000046    0.23  0.000012  (-0.001121 -0.002972  0.001394)
 53:   1224.92   0.000645    3.26  0.000164  ( 0.004633 -0.009788  0.006856)
 54:   1238.39   0.000912    4.61  0.000230  (-0.013395  0.006903 -0.001669)
 55:   1261.32   0.010780   54.48  0.002667  (-0.026408  0.044373  0.000768)
 56:   1280.12   0.002022   10.22  0.000493  (-0.011651 -0.016316 -0.009534)
 57:   1293.32   0.000218    1.10  0.000053  (-0.007148 -0.000942  0.000834)
 58:   1319.23   0.004337   21.92  0.001026  (-0.027653  0.016043  0.001962)
 59:   1339.04   0.000883    4.46  0.000206  ( 0.006614 -0.011926 -0.004454)
 60:   1367.18   0.002814   14.22  0.000642  (-0.014729  0.019499  0.006723)
 61:   1382.34   0.000434    2.19  0.000098  (-0.000587  0.008556  0.004934)
 62:   1409.64   0.005738   29.00  0.001270  ( 0.023015 -0.025495  0.009517)
 63:   1428.03   0.001667    8.42  0.000364  (-0.018698 -0.003168  0.002157)
 64:   1450.12   0.001371    6.93  0.000295  ( 0.013997  0.008873  0.004529)
 65:   1458.78   0.004148   20.96  0.000887  ( 0.010301 -0.024544  0.013371)
 66:   1472.32   0.000588    2.97  0.000125  ( 0.004806 -0.005473 -0.008467)
 67:   1479.76   0.002932   14.82  0.000618  (-0.016251  0.004385  0.018305)
 68:   1480.95   0.002819   14.24  0.000594  ( 0.013474  0.009179  0.018115)
 69:   1486.05   0.002932   14.82  0.000616  ( 0.023481 -0.005310 -0.006009)
 70:   1491.29   0.010883   55.00  0.002277  ( 0.022512 -0.039520 -0.014444)
 71:   1519.30   0.003707   18.73  0.000761  ( 0.010926 -0.024390 -0.006869)
 72:   1523.74   0.000486    2.46  0.000100  ( 0.007246 -0.005208 -0.004464)
 73:   1543.49   0.121177  612.38  0.024500  ( 0.099325 -0.119625  0.017999)
 74:   1577.18   0.019689   99.50  0.003896  ( 0.006141 -0.059086  0.019152)
 75:   1654.95   0.007552   38.17  0.001424  (-0.025383 -0.025958  0.010293)
 76:   1773.63   0.083840  423.69  0.014751  (-0.005541  0.020781  0.119535)
 77:   1786.52   0.016890   85.36  0.002950  (-0.040947  0.030820 -0.017994)
 78:   2970.79   0.005911   29.87  0.000621  (-0.010519 -0.018678 -0.012702)
 79:   3010.92   0.009459   47.80  0.000980  (-0.016028  0.005703 -0.026286)
 80:   3025.62   0.001613    8.15  0.000166  ( 0.003365  0.001095  0.012405)
 81:   3067.40   0.001814    9.17  0.000185  ( 0.003801 -0.008648  0.009763)
 82:   3077.55   0.002543   12.85  0.000258  (-0.003142  0.000628 -0.015734)
 83:   3080.28   0.009380   47.40  0.000950  ( 0.004840 -0.029629  0.007001)
 84:   3081.53   0.001971    9.96  0.000200  ( 0.003523 -0.009274 -0.010058)
 85:   3089.45   0.000613    3.10  0.000062  (-0.002425  0.001857 -0.007253)
 86:   3102.85   0.004431   22.39  0.000446  (-0.000452  0.021102 -0.000395)
 87:   3148.98   0.002015   10.18  0.000200  ( 0.012675  0.006038 -0.001608)
 88:   3173.19   0.000446    2.25  0.000044  ( 0.003407  0.004159  0.003863)
 89:   3181.64   0.001271    6.42  0.000125  (-0.003918  0.002732 -0.010093)
 90:   3182.31   0.001309    6.62  0.000128  ( 0.003006 -0.003400 -0.010381)
 91:   3185.09   0.001492    7.54  0.000146  (-0.004984  0.004776 -0.009928)
 92:   3525.35   0.000162    0.82  0.000014  (-0.003033 -0.001793  0.001375)
 93:   3610.33   0.000837    4.23  0.000072  (-0.002938  0.005934  0.005335)
 94:   3613.76   0.020498  103.59  0.001770  (-0.010380  0.027335  0.030252)
 95:   3677.63   0.008458   42.74  0.000718  ( 0.007048 -0.004037  0.025529)

* The epsilon (eps) is given for a Dirac delta lineshape.
** The dipole moment derivative (T) already includes vibrational overlap.

The first frequency considered to be a vibration is 7
The total number of vibrations considered is 89


--------------------------
THERMOCHEMISTRY AT 298.15K
--------------------------

Temperature         ... 298.15 K
Pressure            ... 1.00 atm
Total Mass          ... 200.26 AMU

Throughout the following assumptions are being made:
  (1) The electronic state is orbitally nondegenerate
      but the spin degeneracy is treated
  (2) There are no thermally accessible electronically excited states
  (3) Hindered rotations indicated by low frequency modes are not
      treated as such but are treated as vibrations and this may
      cause some error
  (4) All equations used are the standard statistical mechanics
      equations for an ideal gas
  (5) All vibrations are strictly harmonic

freq.      43.93  E(vib)   ...       0.53 
freq.      50.42  E(vib)   ...       0.52 
freq.      69.79  E(vib)   ...       0.50 
freq.      84.36  E(vib)   ...       0.48 
freq.      90.85  E(vib)   ...       0.47 
freq.     104.91  E(vib)   ...       0.46 
freq.     112.49  E(vib)   ...       0.45 
freq.     133.50  E(vib)   ...       0.42 
freq.     151.54  E(vib)   ...       0.40 
freq.     162.05  E(vib)   ...       0.39 
freq.     165.59  E(vib)   ...       0.39 
freq.     212.83  E(vib)   ...       0.34 
freq.     235.08  E(vib)   ...       0.32 
freq.     256.02  E(vib)   ...       0.30 
freq.     292.12  E(vib)   ...       0.27 
freq.     323.24  E(vib)   ...       0.25 
freq.     361.12  E(vib)   ...       0.22 
freq.     381.03  E(vib)   ...       0.21 
freq.     400.83  E(vib)   ...       0.19 
freq.     412.44  E(vib)   ...       0.19 
freq.     445.24  E(vib)   ...       0.17 
freq.     511.83  E(vib)   ...       0.14 
freq.     552.22  E(vib)   ...       0.12 
freq.     577.61  E(vib)   ...       0.11 
freq.     632.88  E(vib)   ...       0.09 
freq.     664.93  E(vib)   ...       0.08 
freq.     696.16  E(vib)   ...       0.07 
freq.     779.77  E(vib)   ...       0.05 
freq.     806.96  E(vib)   ...       0.05 
freq.     844.55  E(vib)   ...       0.04 
freq.     878.45  E(vib)   ...       0.04 
freq.     922.03  E(vib)   ...       0.03 
freq.     954.10  E(vib)   ...       0.03 
freq.     978.82  E(vib)   ...       0.03 
freq.    1015.99  E(vib)   ...       0.02 
freq.    1028.79  E(vib)   ...       0.02 
freq.    1040.96  E(vib)   ...       0.02 
freq.    1064.03  E(vib)   ...       0.02 
freq.    1082.75  E(vib)   ...       0.02 
freq.    1114.33  E(vib)   ...       0.01 
freq.    1127.48  E(vib)   ...       0.01 
freq.    1150.61  E(vib)   ...       0.01 
freq.    1155.53  E(vib)   ...       0.01 
freq.    1162.01  E(vib)   ...       0.01 
freq.    1167.95  E(vib)   ...       0.01 
freq.    1198.95  E(vib)   ...       0.01 
freq.    1224.92  E(vib)   ...       0.01 
freq.    1238.39  E(vib)   ...       0.01 
freq.    1261.32  E(vib)   ...       0.01 
freq.    1280.12  E(vib)   ...       0.01 
freq.    1293.32  E(vib)   ...       0.01 
freq.    1319.23  E(vib)   ...       0.01 
freq.    1339.04  E(vib)   ...       0.01 
freq.    1367.18  E(vib)   ...       0.01 
freq.    1382.34  E(vib)   ...       0.01 
freq.    1409.64  E(vib)   ...       0.00 
freq.    1428.03  E(vib)   ...       0.00 
freq.    1450.12  E(vib)   ...       0.00 
freq.    1458.78  E(vib)   ...       0.00 
freq.    1472.32  E(vib)   ...       0.00 
freq.    1479.76  E(vib)   ...       0.00 
freq.    1480.95  E(vib)   ...       0.00 
freq.    1486.05  E(vib)   ...       0.00 
freq.    1491.29  E(vib)   ...       0.00 
freq.    1519.30  E(vib)   ...       0.00 
freq.    1523.74  E(vib)   ...       0.00 
freq.    1543.49  E(vib)   ...       0.00 
freq.    1577.18  E(vib)   ...       0.00 
freq.    1654.95  E(vib)   ...       0.00 
freq.    1773.63  E(vib)   ...       0.00 
freq.    1786.52  E(vib)   ...       0.00 
freq.    2970.79  E(vib)   ...       0.00 
freq.    3010.92  E(vib)   ...       0.00 
freq.    3025.62  E(vib)   ...       0.00 
freq.    3067.40  E(vib)   ...       0.00 
freq.    3077.55  E(vib)   ...       0.00 
freq.    3080.28  E(vib)   ...       0.00 
freq.    3081.53  E(vib)   ...       0.00 
freq.    3089.45  E(vib)   ...       0.00 
freq.    3102.85  E(vib)   ...       0.00 
freq.    3148.98  E(vib)   ...       0.00 
freq.    3173.19  E(vib)   ...       0.00 
freq.    3181.64  E(vib)   ...       0.00 
freq.    3182.31  E(vib)   ...       0.00 
freq.    3185.09  E(vib)   ...       0.00 
freq.    3525.35  E(vib)   ...       0.00 
freq.    3610.33  E(vib)   ...       0.00 
freq.    3613.76  E(vib)   ...       0.00 
freq.    3677.63  E(vib)   ...       0.00 

------------
INNER ENERGY
------------

The inner energy is: U= E(el) + E(ZPE) + E(vib) + E(rot) + E(trans)
    E(el)   - is the total energy from the electronic structure calculation
              = E(kin-el) + E(nuc-el) + E(el-el) + E(nuc-nuc)
    E(ZPE)  - the the zero temperature vibrational energy from the frequency calculation
    E(vib)  - the the finite temperature correction to E(ZPE) due to population
              of excited vibrational states
    E(rot)  - is the rotational thermal energy
    E(trans)- is the translational thermal energy

Summary of contributions to the inner energy U:
Electronic energy                ...   -668.44644556 Eh
Zero point energy                ...      0.27712849 Eh     173.90 kcal/mol
Thermal vibrational correction   ...      0.01373611 Eh       8.62 kcal/mol
Thermal rotational correction    ...      0.00141627 Eh       0.89 kcal/mol
Thermal translational correction ...      0.00141627 Eh       0.89 kcal/mol
-----------------------------------------------------------------------
Total thermal energy                   -668.15274842 Eh


Summary of corrections to the electronic energy:
(perhaps to be used in another calculation)
Total thermal correction                  0.01656865 Eh      10.40 kcal/mol
Non-thermal (ZPE) correction              0.27712849 Eh     173.90 kcal/mol
-----------------------------------------------------------------------
Total correction                          0.29369714 Eh     184.30 kcal/mol


--------
ENTHALPY
--------

The enthalpy is H = U + kB*T
                kB is Boltzmann's constant
Total free energy                 ...   -668.15274842 Eh 
Thermal Enthalpy correction       ...      0.00094421 Eh       0.59 kcal/mol
-----------------------------------------------------------------------
Total Enthalpy                    ...   -668.15180421 Eh


Note: Only C1 symmetry has been detected, increase convergence thresholds 
      if your molecule has a higher symmetry. Symmetry factor of 1.0 is   
      used for the rotational entropy correction. 
 

Note: Rotational entropy computed according to Herzberg 
Infrared and Raman Spectra, Chapter V,1, Van Nostrand Reinhold, 1945 
Point Group:  C1, Symmetry Number:   1  
Rotational constants in cm-1:     0.023306     0.012931     0.009503 

Vibrational entropy computed according to the QRRHO of S. Grimme
Chem.Eur.J. 2012 18 9955


-------
ENTROPY
-------

The entropy contributions are T*S = T*(S(el)+S(vib)+S(rot)+S(trans))
     S(el)   - electronic entropy
     S(vib)  - vibrational entropy
     S(rot)  - rotational entropy
     S(trans)- translational entropy
The entropies will be listed as multiplied by the temperature to get
units of energy

Electronic entropy                ...      0.00065446 Eh      0.41 kcal/mol
Vibrational entropy               ...      0.02468974 Eh     15.49 kcal/mol
Rotational entropy                ...      0.01553624 Eh      9.75 kcal/mol
Translational entropy             ...      0.01985478 Eh     12.46 kcal/mol
-----------------------------------------------------------------------
Final entropy term                ...      0.06073522 Eh     38.11 kcal/mol

In case the symmetry of your molecule has not been determined correctly
or in case you have a reason to use a different symmetry number we print 
out the resulting rotational entropy values for sn=1,12 :
 --------------------------------------------------------
|  sn= 1 | S(rot)=       0.01553624 Eh      9.75 kcal/mol|
|  sn= 2 | S(rot)=       0.01488178 Eh      9.34 kcal/mol|
|  sn= 3 | S(rot)=       0.01449895 Eh      9.10 kcal/mol|
|  sn= 4 | S(rot)=       0.01422732 Eh      8.93 kcal/mol|
|  sn= 5 | S(rot)=       0.01401663 Eh      8.80 kcal/mol|
|  sn= 6 | S(rot)=       0.01384449 Eh      8.69 kcal/mol|
|  sn= 7 | S(rot)=       0.01369894 Eh      8.60 kcal/mol|
|  sn= 8 | S(rot)=       0.01357287 Eh      8.52 kcal/mol|
|  sn= 9 | S(rot)=       0.01346166 Eh      8.45 kcal/mol|
|  sn=10 | S(rot)=       0.01336218 Eh      8.38 kcal/mol|
|  sn=11 | S(rot)=       0.01327219 Eh      8.33 kcal/mol|
|  sn=12 | S(rot)=       0.01319003 Eh      8.28 kcal/mol|
 --------------------------------------------------------


-------------------
GIBBS FREE ENERGY
-------------------

The Gibbs free energy is G = H - T*S

Total enthalpy                    ...   -668.15180421 Eh 
Total entropy correction          ...     -0.06073522 Eh    -38.11 kcal/mol
-----------------------------------------------------------------------
Final Gibbs free energy         ...   -668.21253943 Eh

For completeness - the Gibbs free energy minus the electronic energy
G-E(el)                           ...      0.23390613 Eh    146.78 kcal/mol


Timings for individual modules:

Sum of individual times         ...     1635.004 sec (=  27.250 min)
GTO integral calculation        ...       43.578 sec (=   0.726 min)   2.7 %
SCF iterations                  ...      641.893 sec (=  10.698 min)  39.3 %
SCF Gradient evaluation         ...      191.000 sec (=   3.183 min)  11.7 %
Geometry relaxation             ...        0.697 sec (=   0.012 min)   0.0 %
Analytical frequency calculation...      757.837 sec (=  12.631 min)  46.4 %
                             ****ORCA TERMINATED NORMALLY****
TOTAL RUN TIME: 0 days 0 hours 27 minutes 52 seconds 214 msec
