32
Energy: -6.681532351604753E+02
 N         1.807971551694     -0.503392981067      0.340457878064
 C         1.116366191483      0.382008880157     -0.564750706724
 C         0.812548399862      1.673785626224      0.215380255255
 O         0.967664297857      1.748260206948      1.420599863988
 C        -0.177317025925     -0.255351272580     -1.134608829178
 C        -1.233601997235     -0.507540425042     -0.101388154476
 C        -2.598700198197     -0.972421864635     -0.508335732276
 C        -3.611895711237     -0.955015087455      0.645725389912
 N        -4.925882003526     -1.391588663526      0.173150830901
 H        -0.938184182101     -0.572069550073      0.946404649178
 H        -2.543639665741     -2.003368649181     -0.912825605091
 H        -2.989333968951     -0.357003336865     -1.334278879042
 H        -3.709906581448      0.072742257088      1.018866310496
 H        -3.214548477529     -1.566495293039      1.475767873357
 H        -5.618203343830     -1.333251853308      0.912262496654
 H        -4.894501377772     -2.359191198731     -0.133955450588
 H         1.822818976714     -0.212693673798      1.309217494582
 C         2.547038312298     -1.548073822416     -0.107914280973
 N         0.349229727804      2.704120394925     -0.523074468461
 H         0.259668502748      2.592431638077     -1.520007401190
 O         2.619799682491     -1.831389118600     -1.289679345354
 C         3.279578907550     -2.352162774304      0.957330794439
 H         2.964420909571     -3.398504594289      0.877419913272
 H         4.353416686133     -2.309922340987      0.742361514106
 H         3.095538228546     -1.992294197698      1.974919703462
 C        -0.019131689251      3.967752035331      0.087362091445
 H         0.866346994554      4.504927504604      0.450665676579
 H        -0.534433435332      4.583438889389     -0.655457960535
 H        -0.685122864967      3.790485740887      0.939009949529
 H         1.782253536234      0.609929599276     -1.408587751761
 H        -0.578848197356      0.387027632808     -1.936121090843
 H         0.133881814859     -1.190359708121     -1.632876028727
