
                                 *****************
                                 * O   R   C   A *
                                 *****************

                                            #,                                       
                                            ###                                      
                                            ####                                     
                                            #####                                    
                                            ######                                   
                                           ########,                                 
                                     ,,################,,,,,                         
                               ,,#################################,,                 
                          ,,##########################################,,             
                       ,#########################################, ''#####,          
                    ,#############################################,,   '####,        
                  ,##################################################,,,,####,       
                ,###########''''           ''''###############################       
              ,#####''   ,,,,##########,,,,          '''####'''          '####       
            ,##' ,,,,###########################,,,                        '##       
           ' ,,###''''                  '''############,,,                           
         ,,##''                                '''############,,,,        ,,,,,,###''
      ,#''                                            '''#######################'''  
     '                                                          ''''####''''         
             ,#######,   #######,   ,#######,      ##                                
            ,#'     '#,  ##    ##  ,#'     '#,    #''#        ######   ,####,        
            ##       ##  ##   ,#'  ##            #'  '#       #        #'  '#        
            ##       ##  #######   ##           ,######,      #####,   #    #        
            '#,     ,#'  ##    ##  '#,     ,#' ,#      #,         ##   #,  ,#        
             '#######'   ##     ##  '#######'  #'      '#     #####' # '####'        



                  #######################################################
                  #                        -***-                        #
                  #          Department of theory and spectroscopy      #
                  #    Directorship and core code : Frank Neese         #
                  #        Max Planck Institute fuer Kohlenforschung    #
                  #                Kaiser Wilhelm Platz 1               #
                  #                 D-45470 Muelheim/Ruhr               #
                  #                      Germany                        #
                  #                                                     #
                  #                  All rights reserved                #
                  #                        -***-                        #
                  #######################################################


                         Program Version 5.0.4 -  RELEASE  -


 With contributions from (in alphabetic order):
   Daniel Aravena         : Magnetic Suceptibility
   Michael Atanasov       : Ab Initio Ligand Field Theory (pilot matlab implementation)
   Alexander A. Auer      : GIAO ZORA, VPT2 properties, NMR spectrum
   Ute Becker             : Parallelization
   Giovanni Bistoni       : ED, misc. LED, open-shell LED, HFLD
   Martin Brehm           : Molecular dynamics
   Dmytro Bykov           : SCF Hessian
   Vijay G. Chilkuri      : MRCI spin determinant printing, contributions to CSF-ICE
   Dipayan Datta          : RHF DLPNO-CCSD density
   Achintya Kumar Dutta   : EOM-CC, STEOM-CC
   Dmitry Ganyushin       : Spin-Orbit,Spin-Spin,Magnetic field MRCI
   Miquel Garcia          : C-PCM and meta-GGA Hessian, CC/C-PCM, Gaussian charge scheme
   Yang Guo               : DLPNO-NEVPT2, F12-NEVPT2, CIM, IAO-localization
   Andreas Hansen         : Spin unrestricted coupled pair/coupled cluster methods
   Benjamin Helmich-Paris : MC-RPA, TRAH-SCF, COSX integrals
   Lee Huntington         : MR-EOM, pCC
   Robert Izsak           : Overlap fitted RIJCOSX, COSX-SCS-MP3, EOM
   Marcus Kettner         : VPT2
   Christian Kollmar      : KDIIS, OOCD, Brueckner-CCSD(T), CCSD density, CASPT2, CASPT2-K
   Simone Kossmann        : Meta GGA functionals, TD-DFT gradient, OOMP2, MP2 Hessian
   Martin Krupicka        : Initial AUTO-CI
   Lucas Lang             : DCDCAS
   Marvin Lechner         : AUTO-CI (C++ implementation), FIC-MRCC
   Dagmar Lenk            : GEPOL surface, SMD
   Dimitrios Liakos       : Extrapolation schemes; Compound Job, initial MDCI parallelization
   Dimitrios Manganas     : Further ROCIS development; embedding schemes
   Dimitrios Pantazis     : SARC Basis sets
   Anastasios Papadopoulos: AUTO-CI, single reference methods and gradients
   Taras Petrenko         : DFT Hessian,TD-DFT gradient, ASA, ECA, R-Raman, ABS, FL, XAS/XES, NRVS
   Peter Pinski           : DLPNO-MP2, DLPNO-MP2 Gradient
   Christoph Reimann      : Effective Core Potentials
   Marius Retegan         : Local ZFS, SOC
   Christoph Riplinger    : Optimizer, TS searches, QM/MM, DLPNO-CCSD(T), (RO)-DLPNO pert. Triples
   Tobias Risthaus        : Range-separated hybrids, TD-DFT gradient, RPA, STAB
   Michael Roemelt        : Original ROCIS implementation
   Masaaki Saitow         : Open-shell DLPNO-CCSD energy and density
   Barbara Sandhoefer     : DKH picture change effects
   Avijit Sen             : IP-ROCIS
   Kantharuban Sivalingam : CASSCF convergence, NEVPT2, FIC-MRCI
   Bernardo de Souza      : ESD, SOC TD-DFT
   Georgi Stoychev        : AutoAux, RI-MP2 NMR, DLPNO-MP2 response
   Willem Van den Heuvel  : Paramagnetic NMR
   Boris Wezisla          : Elementary symmetry handling
   Frank Wennmohs         : Technical directorship


 We gratefully acknowledge several colleagues who have allowed us to
 interface, adapt or use parts of their codes:
   Stefan Grimme, W. Hujo, H. Kruse, P. Pracht,  : VdW corrections, initial TS optimization,
                  C. Bannwarth, S. Ehlert          DFT functionals, gCP, sTDA/sTD-DF
   Ed Valeev, F. Pavosevic, A. Kumar             : LibInt (2-el integral package), F12 methods
   Garnet Chan, S. Sharma, J. Yang, R. Olivares  : DMRG
   Ulf Ekstrom                                   : XCFun DFT Library
   Mihaly Kallay                                 : mrcc  (arbitrary order and MRCC methods)
   Jiri Pittner, Ondrej Demel                    : Mk-CCSD
   Frank Weinhold                                : gennbo (NPA and NBO analysis)
   Christopher J. Cramer and Donald G. Truhlar   : smd solvation model
   Lars Goerigk                                  : TD-DFT with DH, B97 family of functionals
   V. Asgeirsson, H. Jonsson                     : NEB implementation
   FAccTs GmbH                                   : IRC, NEB, NEB-TS, DLPNO-Multilevel, CI-OPT
                                                   MM, QMMM, 2- and 3-layer-ONIOM, Crystal-QMMM,
                                                   LR-CPCM, SF, NACMEs, symmetry and pop. for TD-DFT,
                                                   nearIR, NL-DFT gradient (VV10), updates on ESD,
                                                   ML-optimized integration grids
   S Lehtola, MJT Oliveira, MAL Marques          : LibXC Library
   Liviu Ungur et al                             : ANISO software


 Your calculation uses the libint2 library for the computation of 2-el integrals
 For citations please refer to: http://libint.valeyev.net

 Your ORCA version has been built with support for libXC version: 5.1.0
 For citations please refer to: https://tddft.org/programs/libxc/

 This ORCA versions uses:
   CBLAS   interface :  Fast vector & matrix operations
   LAPACKE interface :  Fast linear algebra routines
   SCALAPACK package :  Parallel linear algebra routines
   Shared memory     :  Shared parallel matrices
   BLAS/LAPACK       :  OpenBLAS 0.3.15  USE64BITINT DYNAMIC_ARCH NO_AFFINITY Zen SINGLE_THREADED
        Core in use  :  Zen
   Copyright (c) 2011-2014, The OpenBLAS Project




***************************************
The coordinates will be read from file: model.xyz
***************************************


================================================================================

----- Orbital basis set information -----
Your calculation utilizes the basis: EPR-II
   V. Barone, in Recent Advances in Density Functional Methods, Part 1 (ed. D. P. Chong), World Scientific, Singapore, 1995, p. 287.

----- AuxJ basis set information -----
Your calculation utilizes the auxiliary basis: def2/J
   F. Weigend, Phys. Chem. Chem. Phys. 8, 1057 (2006).

================================================================================
                                        WARNINGS
                       Please study these warnings very carefully!
================================================================================


WARNING: your system is open-shell and RHF/RKS was chosen
  ===> : WILL SWITCH to UHF/UKS


WARNING: Geometry Optimization
  ===> : Switching off AutoStart
         For restart on a previous wavefunction, please use MOREAD

INFO   : the flag for use of the SHARK integral package has been found!

================================================================================
                                       INPUT FILE
================================================================================
NAME = opt.inp
|  1> ! B3LYP EPR-II OPT
|  2> %pal nprocs 16 end
|  3> *XYZFile 0 2 model.xyz
|  4> 
|  5>                          ****END OF INPUT****
================================================================================

                       *****************************
                       * Geometry Optimization Run *
                       *****************************

Geometry optimization settings:
Update method            Update   .... BFGS
Choice of coordinates    CoordSys .... Z-matrix Internals
Initial Hessian          InHess   .... Almoef's Model

Convergence Tolerances:
Energy Change            TolE     ....  5.0000e-06 Eh
Max. Gradient            TolMAXG  ....  3.0000e-04 Eh/bohr
RMS Gradient             TolRMSG  ....  1.0000e-04 Eh/bohr
Max. Displacement        TolMAXD  ....  4.0000e-03 bohr
RMS Displacement         TolRMSD  ....  2.0000e-03 bohr
Strict Convergence                ....  False
------------------------------------------------------------------------------
                        ORCA OPTIMIZATION COORDINATE SETUP
------------------------------------------------------------------------------

The optimization will be done in new redundant internal coordinates
Making redundant internal coordinates   ...  (new redundants) done
Evaluating the initial hessian          ...  (Almloef) done
Evaluating the coordinates              ...  done
Calculating the B-matrix                .... done
Calculating the G-matrix                .... done
Diagonalizing the G-matrix              .... done
Small eigenvalue found = 5.790e-03
Small eigenvalue found = 6.789e-03
Small eigenvalue found = 9.793e-03
Small eigenvalue found = 2.553e-02
Small eigenvalue found = 2.703e-02
The first mode is                       ....   63
The number of degrees of freedom        ....   90

    -----------------------------------------------------------------
                    Redundant Internal Coordinates


    -----------------------------------------------------------------
         Definition                    Initial Value    Approx d2E/dq
    -----------------------------------------------------------------
      1. B(C   1,N   0)                  1.4428         0.460940   
      2. B(C   2,C   1)                  1.5393         0.360962   
      3. B(O   3,C   2)                  1.2174         1.054831   
      4. B(C   4,C   1)                  1.5507         0.346256   
      5. B(C   5,C   4)                  1.4990         0.418696   
      6. B(C   6,C   5)                  1.4984         0.419553   
      7. B(C   7,C   6)                  1.5358         0.365680   
      8. B(N   8,C   7)                  1.4630         0.427904   
      9. B(H   9,C   5)                  1.0906         0.359369   
     10. B(H  10,C   6)                  1.1088         0.336037   
     11. B(H  11,C   6)                  1.1016         0.345080   
     12. B(H  12,C   7)                  1.0978         0.349951   
     13. B(H  13,C   7)                  1.1049         0.340942   
     14. B(H  14,N   8)                  1.0144         0.425777   
     15. B(H  15,N   8)                  1.0157         0.423813   
     16. B(H  16,N   0)                  1.0115         0.430260   
     17. B(C  17,N   0)                  1.3560         0.634149   
     18. B(N  18,C   2)                  1.3497         0.648997   
     19. B(H  19,N  18)                  1.0072         0.437246   
     20. B(O  20,C  17)                  1.2174         1.054881   
     21. B(C  21,C  17)                  1.5225         0.384050   
     22. B(H  22,C  21)                  1.0957         0.352648   
     23. B(H  23,C  21)                  1.0960         0.352304   
     24. B(H  24,C  21)                  1.0949         0.353642   
     25. B(C  25,N  18)                  1.4509         0.447431   
     26. B(H  26,C  25)                  1.0976         0.350248   
     27. B(H  27,C  25)                  1.0938         0.355114   
     28. B(H  28,C  25)                  1.0956         0.352808   
     29. B(H  29,C   1)                  1.0988         0.348614   
     30. B(H  30,C   4)                  1.1029         0.343484   
     31. B(H  31,C   4)                  1.1042         0.341741   
     32. A(C   1,N   0,H  16)          115.5654         0.340845   
     33. A(H  16,N   0,C  17)          122.0117         0.359702   
     34. A(C   1,N   0,C  17)          121.7764         0.408009   
     35. A(C   2,C   1,H  29)          109.5562         0.320790   
     36. A(C   2,C   1,C   4)          111.5000         0.356588   
     37. A(C   4,C   1,H  29)          107.9756         0.318618   
     38. A(N   0,C   1,H  29)          108.5789         0.331962   
     39. A(N   0,C   1,C   4)          112.2248         0.369486   
     40. A(N   0,C   1,C   2)          106.9551         0.372139   
     41. A(C   1,C   2,N  18)          115.5370         0.394938   
     42. A(C   1,C   2,O   3)          121.8632         0.430489   
     43. A(O   3,C   2,N  18)          122.5945         0.475772   
     44. A(C   1,C   4,H  30)          109.3546         0.317849   
     45. A(C   1,C   4,H  31)          106.1848         0.317585   
     46. A(C   5,C   4,H  31)          111.5408         0.327628   
     47. A(H  30,C   4,H  31)          105.5375         0.286342   
     48. A(C   1,C   4,C   5)          113.8120         0.365727   
     49. A(C   5,C   4,H  30)          110.0221         0.327903   
     50. A(C   4,C   5,C   6)          120.4630         0.378018   
     51. A(C   6,C   5,H   9)          119.2991         0.330472   
     52. A(C   4,C   5,H   9)          118.7724         0.330360   
     53. A(H  10,C   6,H  11)          105.2791         0.285798   
     54. A(C   7,C   6,H  11)          108.8524         0.320937   
     55. A(C   5,C   6,C   7)          113.1678         0.369296   
     56. A(C   5,C   6,H  11)          110.6931         0.328265   
     57. A(C   7,C   6,H  10)          108.5065         0.319547   
     58. A(C   5,C   6,H  10)          110.0167         0.326831   
     59. A(H  12,C   7,H  13)          107.1508         0.287071   
     60. A(N   8,C   7,H  13)          113.6097         0.326707   
     61. A(C   6,C   7,H  13)          108.7228         0.320304   
     62. A(N   8,C   7,H  12)          107.9975         0.328114   
     63. A(C   6,C   7,H  12)          108.9611         0.321674   
     64. A(C   6,C   7,N   8)          110.2673         0.368233   
     65. A(H  14,N   8,H  15)          107.2290         0.301474   
     66. A(C   7,N   8,H  15)          110.7447         0.335796   
     67. A(C   7,N   8,H  14)          111.1280         0.336054   
     68. A(N   0,C  17,C  21)          115.9633         0.397640   
     69. A(N   0,C  17,O  20)          122.1983         0.473755   
     70. A(O  20,C  17,C  21)          121.8380         0.435319   
     71. A(C   2,N  18,H  19)          119.1735         0.362117   
     72. A(H  19,N  18,C  25)          119.3712         0.340068   
     73. A(C   2,N  18,C  25)          121.4552         0.407533   
     74. A(H  23,C  21,H  24)          109.5311         0.289021   
     75. A(H  22,C  21,H  24)          109.4692         0.289065   
     76. A(C  17,C  21,H  24)          113.3159         0.324828   
     77. A(H  22,C  21,H  23)          107.7178         0.288894   
     78. A(C  17,C  21,H  23)          108.2911         0.324626   
     79. A(C  17,C  21,H  22)          108.3568         0.324678   
     80. A(H  27,C  25,H  28)          109.4272         0.289274   
     81. A(H  26,C  25,H  28)          108.1986         0.288649   
     82. A(N  18,C  25,H  28)          109.9058         0.330986   
     83. A(H  26,C  25,H  27)          109.2315         0.288944   
     84. A(N  18,C  25,H  27)          108.9124         0.331343   
     85. A(N  18,C  25,H  26)          111.1432         0.330588   
     86. D(C   4,C   1,N   0,C  17)     76.5796         0.018138   
     87. D(H  29,C   1,N   0,H  16)    128.2577         0.018138   
     88. D(C   4,C   1,N   0,H  16)   -112.4642         0.018138   
     89. D(C   2,C   1,N   0,H  16)     10.1158         0.018138   
     90. D(C   2,C   1,N   0,C  17)   -160.8404         0.018138   
     91. D(H  29,C   1,N   0,C  17)    -42.6985         0.018138   
     92. D(O   3,C   2,C   1,N   0)    -10.5808         0.009793   
     93. D(O   3,C   2,C   1,C   4)    112.4503         0.009793   
     94. D(N  18,C   2,C   1,H  29)     52.7384         0.009793   
     95. D(N  18,C   2,C   1,C   4)    -66.7286         0.009793   
     96. D(O   3,C   2,C   1,H  29)   -128.0827         0.009793   
     97. D(N  18,C   2,C   1,N   0)    170.2403         0.009793   
     98. D(C   5,C   4,C   1,H  29)   -174.8261         0.009677   
     99. D(C   5,C   4,C   1,C   2)    -54.4263         0.009677   
    100. D(H  31,C   4,C   1,C   2)   -177.5174         0.009677   
    101. D(H  31,C   4,C   1,N   0)    -57.5481         0.009677   
    102. D(H  30,C   4,C   1,H  29)    -51.3443         0.009677   
    103. D(H  31,C   4,C   1,H  29)     62.0829         0.009677   
    104. D(H  30,C   4,C   1,C   2)     69.0555         0.009677   
    105. D(H  30,C   4,C   1,N   0)   -170.9752         0.009677   
    106. D(C   5,C   4,C   1,N   0)     65.5430         0.009677   
    107. D(H   9,C   5,C   4,H  30)   -144.0329         0.012965   
    108. D(H   9,C   5,C   4,C   1)    -20.9147         0.012965   
    109. D(C   6,C   5,C   4,H  31)    -66.8931         0.012965   
    110. D(C   6,C   5,C   4,H  30)     49.8732         0.012965   
    111. D(H   9,C   5,C   4,H  31)     99.2008         0.012965   
    112. D(C   6,C   5,C   4,C   1)    172.9913         0.012965   
    113. D(H  10,C   6,C   5,C   4)     67.9878         0.013017   
    114. D(C   7,C   6,C   5,H   9)     23.5236         0.013017   
    115. D(C   7,C   6,C   5,C   4)   -170.4551         0.013017   
    116. D(H  10,C   6,C   5,H   9)    -98.0336         0.013017   
    117. D(H  11,C   6,C   5,H   9)    146.0275         0.013017   
    118. D(H  11,C   6,C   5,C   4)    -47.9512         0.013017   
    119. D(H  13,C   7,C   6,H  11)   -179.5737         0.010706   
    120. D(H  13,C   7,C   6,H  10)     66.3511         0.010706   
    121. D(H  13,C   7,C   6,C   5)    -56.0513         0.010706   
    122. D(H  12,C   7,C   6,H  11)    -63.1074         0.010706   
    123. D(H  12,C   7,C   6,H  10)   -177.1826         0.010706   
    124. D(H  12,C   7,C   6,C   5)     60.4150         0.010706   
    125. D(N   8,C   7,C   6,H  11)     55.2604         0.010706   
    126. D(N   8,C   7,C   6,H  10)    -58.8148         0.010706   
    127. D(N   8,C   7,C   6,C   5)    178.7828         0.010706   
    128. D(H  15,N   8,C   7,H  13)    -58.0801         0.015611   
    129. D(H  15,N   8,C   7,H  12)   -176.7904         0.015611   
    130. D(H  15,N   8,C   7,C   6)     64.2526         0.015611   
    131. D(H  14,N   8,C   7,H  13)     60.9922         0.015611   
    132. D(H  14,N   8,C   7,H  12)    -57.7181         0.015611   
    133. D(H  14,N   8,C   7,C   6)   -176.6751         0.015611   
    134. D(C  21,C  17,N   0,H  16)      6.5126         0.032682   
    135. D(C  21,C  17,N   0,C   1)    176.8859         0.032682   
    136. D(O  20,C  17,N   0,H  16)   -173.6919         0.032682   
    137. D(O  20,C  17,N   0,C   1)     -3.3186         0.032682   
    138. D(C  25,N  18,C   2,O   3)     -1.1851         0.034365   
    139. D(C  25,N  18,C   2,C   1)    177.9871         0.034365   
    140. D(H  19,N  18,C   2,O   3)    178.6813         0.034365   
    141. D(H  19,N  18,C   2,C   1)     -2.1464         0.034365   
    142. D(H  24,C  21,C  17,O  20)   -178.4563         0.010992   
    143. D(H  24,C  21,C  17,N   0)      1.3400         0.010992   
    144. D(H  23,C  21,C  17,O  20)     59.8159         0.010992   
    145. D(H  23,C  21,C  17,N   0)   -120.3877         0.010992   
    146. D(H  22,C  21,C  17,O  20)    -56.7604         0.010992   
    147. D(H  22,C  21,C  17,N   0)    123.0359         0.010992   
    148. D(H  26,C  25,N  18,C   2)     69.9587         0.017076   
    149. D(H  28,C  25,N  18,H  19)    130.3455         0.017076   
    150. D(H  28,C  25,N  18,C   2)    -49.7883         0.017076   
    151. D(H  27,C  25,N  18,H  19)     10.4780         0.017076   
    152. D(H  27,C  25,N  18,C   2)   -169.6558         0.017076   
    153. D(H  26,C  25,N  18,H  19)   -109.9074         0.017076   
    -----------------------------------------------------------------

Number of atoms                         .... 32
Number of degrees of freedom            .... 153

         *************************************************************
         *                GEOMETRY OPTIMIZATION CYCLE   1            *
         *************************************************************
---------------------------------
CARTESIAN COORDINATES (ANGSTROEM)
---------------------------------
  N      1.807972   -0.503393    0.340458
  C      1.116366    0.382009   -0.564751
  C      0.812548    1.673786    0.215380
  O      0.967664    1.748260    1.420600
  C     -0.177317   -0.255351   -1.134609
  C     -1.233602   -0.507540   -0.101388
  C     -2.598700   -0.972422   -0.508336
  C     -3.611896   -0.955015    0.645725
  N     -4.925882   -1.391589    0.173151
  H     -0.938184   -0.572070    0.946405
  H     -2.543640   -2.003369   -0.912826
  H     -2.989334   -0.357003   -1.334279
  H     -3.709907    0.072742    1.018866
  H     -3.214548   -1.566495    1.475768
  H     -5.618203   -1.333252    0.912262
  H     -4.894501   -2.359191   -0.133955
  H      1.822819   -0.212694    1.309217
  C      2.547038   -1.548074   -0.107914
  N      0.349230    2.704120   -0.523074
  H      0.259669    2.592432   -1.520007
  O      2.619800   -1.831389   -1.289679
  C      3.279579   -2.352163    0.957331
  H      2.964421   -3.398505    0.877420
  H      4.353417   -2.309922    0.742362
  H      3.095538   -1.992294    1.974920
  C     -0.019132    3.967752    0.087362
  H      0.866347    4.504928    0.450666
  H     -0.534433    4.583439   -0.655458
  H     -0.685123    3.790486    0.939010
  H      1.782254    0.609930   -1.408588
  H     -0.578848    0.387028   -1.936121
  H      0.133882   -1.190360   -1.632876

----------------------------
CARTESIAN COORDINATES (A.U.)
----------------------------
  NO LB      ZA    FRAG     MASS         X           Y           Z
   0 N     7.0000    0    14.007    3.416571   -0.951275    0.643372
   1 C     6.0000    0    12.011    2.109626    0.721892   -1.067224
   2 C     6.0000    0    12.011    1.535494    3.162996    0.407010
   3 O     8.0000    0    15.999    1.828621    3.303733    2.684545
   4 C     6.0000    0    12.011   -0.335081   -0.482544   -2.144100
   5 C     6.0000    0    12.011   -2.331170   -0.959112   -0.191596
   6 C     6.0000    0    12.011   -4.910832   -1.837611   -0.960615
   7 C     6.0000    0    12.011   -6.825494   -1.804717    1.220244
   8 N     7.0000    0    14.007   -9.308568   -2.629721    0.327208
   9 H     1.0000    0     1.008   -1.772911   -1.081055    1.788446
  10 H     1.0000    0     1.008   -4.806782   -3.785818   -1.724990
  11 H     1.0000    0     1.008   -5.649023   -0.674639   -2.521422
  12 H     1.0000    0     1.008   -7.010707    0.137463    1.925378
  13 H     1.0000    0     1.008   -6.074616   -2.960247    2.788797
  14 H     1.0000    0     1.008  -10.616866   -2.519481    1.723926
  15 H     1.0000    0     1.008   -9.249267   -4.458225   -0.253139
  16 H     1.0000    0     1.008    3.444629   -0.401933    2.474063
  17 C     6.0000    0    12.011    4.813205   -2.925436   -0.203928
  18 N     7.0000    0    14.007    0.659949    5.110047   -0.988467
  19 H     1.0000    0     1.008    0.490702    4.898986   -2.872398
  20 O     8.0000    0    15.999    4.950704   -3.460824   -2.437141
  21 C     6.0000    0    12.011    6.197506   -4.444943    1.809093
  22 H     1.0000    0     1.008    5.601944   -6.422243    1.658083
  23 H     1.0000    0     1.008    8.226765   -4.365121    1.402860
  24 H     1.0000    0     1.008    5.849719   -3.764890    3.732057
  25 C     6.0000    0    12.011   -0.036154    7.497965    0.165090
  26 H     1.0000    0     1.008    1.637159    8.513079    0.851635
  27 H     1.0000    0     1.008   -1.009933    8.661444   -1.238636
  28 H     1.0000    0     1.008   -1.294695    7.162980    1.774472
  29 H     1.0000    0     1.008    3.367971    1.152600   -2.661845
  30 H     1.0000    0     1.008   -1.093865    0.731376   -3.658739
  31 H     1.0000    0     1.008    0.253000   -2.249454   -3.085689

--------------------------------
INTERNAL COORDINATES (ANGSTROEM)
--------------------------------
 N      0   0   0     0.000000000000     0.00000000     0.00000000
 C      1   0   0     1.442794861408     0.00000000     0.00000000
 C      2   1   0     1.539349450262   106.95508535     0.00000000
 O      3   2   1     1.217440639316   121.86320594   349.41919624
 C      2   1   3     1.550671632238   112.22476463   237.42005548
 C      5   2   1     1.498960397031   113.81200125    65.54297651
 C      6   5   2     1.498403878207   120.46295655   172.99133813
 C      7   6   5     1.535814187095   113.16777559   189.54494018
 N      8   7   6     1.463039021172   110.26728484   178.78284728
 H      6   5   2     1.090552819842   118.77235669   339.08525175
 H      7   6   5     1.108825952082   110.01670823    67.98776539
 H      7   6   5     1.101597380564   110.69307736   312.04884807
 H      8   7   6     1.097782053304   108.96108470    60.41499774
 H      8   7   6     1.104881618220   108.72279880   303.94865599
 H      9   8   7     1.014395423944   111.12796686   183.32492567
 H      9   8   7     1.015654310254   110.74466900    64.25256656
 H      1   2   3     1.011544229321   115.56537427    10.11575126
 C      1   2   3     1.355955504399   121.77644506   199.15956011
 N      3   2   1     1.349655254667   115.53696264   170.24030015
 H     19   3   2     1.007159800528   119.17353001   357.85356864
 O     18   1   2     1.217427797217   122.19834840   356.68139225
 C     18   1   2     1.522472277886   115.96329185   176.88588196
 H     22  18   1     1.095692254636   108.35684956   123.03592273
 H     22  18   1     1.095957855214   108.29105848   239.61225849
 H     22  18   1     1.094926276844   113.31592887     1.34003602
 C     19   3   2     1.450892087607   121.45518448   177.98713443
 H     26  19   3     1.097551583860   111.14320784    69.95873589
 H     26  19   3     1.093795145993   108.91236859   190.34418295
 H     26  19   3     1.095569103004   109.90582553   310.21169954
 H      2   1   3     1.098824266514   108.57893865   118.14197901
 H      5   2   1     1.102859848447   109.35463121   189.02477374
 H      5   2   1     1.104244400115   106.18480254   302.45189986

---------------------------
INTERNAL COORDINATES (A.U.)
---------------------------
 N      0   0   0     0.000000000000     0.00000000     0.00000000
 C      1   0   0     2.726487155490     0.00000000     0.00000000
 C      2   1   0     2.908948885398   106.95508535     0.00000000
 O      3   2   1     2.300629392614   121.86320594   349.41919624
 C      2   1   3     2.930344708570   112.22476463   237.42005548
 C      5   2   1     2.832624635982   113.81200125    65.54297651
 C      6   5   2     2.831572967816   120.46295655   172.99133813
 C      7   6   5     2.902268206200   113.16777559   189.54494018
 N      8   7   6     2.764743073255   110.26728484   178.78284728
 H      6   5   2     2.060846164077   118.77235669   339.08525175
 H      7   6   5     2.095377379619   110.01670823    67.98776539
 H      7   6   5     2.081717359111   110.69307736   312.04884807
 H      8   7   6     2.074507435478   108.96108470    60.41499774
 H      8   7   6     2.087923668839   108.72279880   303.94865599
 H      9   8   7     1.916929542757   111.12796686   183.32492567
 H      9   8   7     1.919308493117   110.74466900    64.25256656
 H      1   2   3     1.911541565765   115.56537427    10.11575126
 C      1   2   3     2.562384553098   121.77644506   199.15956011
 N      3   2   1     2.550478806528   115.53696264   170.24030015
 H     19   3   2     1.903256196093   119.17353001   357.85356864
 O     18   1   2     2.300605124562   122.19834840   356.68139225
 C     18   1   2     2.877055651691   115.96329185   176.88588196
 H     22  18   1     2.070558288320   108.35684956   123.03592273
 H     22  18   1     2.071060200675   108.29105848   239.61225849
 H     22  18   1     2.069110800069   113.31592887     1.34003602
 C     19   3   2     2.741788695450   121.45518448   177.98713443
 H     26  19   3     2.074071911346   111.14320784    69.95873589
 H     26  19   3     2.066973272539   108.91236859   190.34418295
 H     26  19   3     2.070325565463   109.90582553   310.21169954
 H      2   1   3     2.076476933018   108.57893865   118.14197901
 H      5   2   1     2.084103077664   109.35463121   189.02477374
 H      5   2   1     2.086719501133   106.18480254   302.45189986

---------------------
BASIS SET INFORMATION
---------------------
There are 4 groups of distinct atoms

 Group   1 Type N   : 10s5p1d contracted to 6s2p1d pattern {511111/41/1}
 Group   2 Type C   : 10s5p1d contracted to 6s2p1d pattern {511111/41/1}
 Group   3 Type O   : 10s5p1d contracted to 6s2p1d pattern {511111/41/1}
 Group   4 Type H   : 6s1p contracted to 4s1p pattern {3111/1}

Atom   0N    basis set group =>   1
Atom   1C    basis set group =>   2
Atom   2C    basis set group =>   2
Atom   3O    basis set group =>   3
Atom   4C    basis set group =>   2
Atom   5C    basis set group =>   2
Atom   6C    basis set group =>   2
Atom   7C    basis set group =>   2
Atom   8N    basis set group =>   1
Atom   9H    basis set group =>   4
Atom  10H    basis set group =>   4
Atom  11H    basis set group =>   4
Atom  12H    basis set group =>   4
Atom  13H    basis set group =>   4
Atom  14H    basis set group =>   4
Atom  15H    basis set group =>   4
Atom  16H    basis set group =>   4
Atom  17C    basis set group =>   2
Atom  18N    basis set group =>   1
Atom  19H    basis set group =>   4
Atom  20O    basis set group =>   3
Atom  21C    basis set group =>   2
Atom  22H    basis set group =>   4
Atom  23H    basis set group =>   4
Atom  24H    basis set group =>   4
Atom  25C    basis set group =>   2
Atom  26H    basis set group =>   4
Atom  27H    basis set group =>   4
Atom  28H    basis set group =>   4
Atom  29H    basis set group =>   4
Atom  30H    basis set group =>   4
Atom  31H    basis set group =>   4
---------------------------------
AUXILIARY/J BASIS SET INFORMATION
---------------------------------
There are 4 groups of distinct atoms

 Group   1 Type N   : 12s5p4d2f1g contracted to 6s4p3d1f1g pattern {711111/2111/211/2/1}
 Group   2 Type C   : 12s5p4d2f1g contracted to 6s4p3d1f1g pattern {711111/2111/211/2/1}
 Group   3 Type O   : 12s5p4d2f1g contracted to 6s4p3d1f1g pattern {711111/2111/211/2/1}
 Group   4 Type H   : 5s2p1d contracted to 3s1p1d pattern {311/2/1}

Atom   0N    basis set group =>   1
Atom   1C    basis set group =>   2
Atom   2C    basis set group =>   2
Atom   3O    basis set group =>   3
Atom   4C    basis set group =>   2
Atom   5C    basis set group =>   2
Atom   6C    basis set group =>   2
Atom   7C    basis set group =>   2
Atom   8N    basis set group =>   1
Atom   9H    basis set group =>   4
Atom  10H    basis set group =>   4
Atom  11H    basis set group =>   4
Atom  12H    basis set group =>   4
Atom  13H    basis set group =>   4
Atom  14H    basis set group =>   4
Atom  15H    basis set group =>   4
Atom  16H    basis set group =>   4
Atom  17C    basis set group =>   2
Atom  18N    basis set group =>   1
Atom  19H    basis set group =>   4
Atom  20O    basis set group =>   3
Atom  21C    basis set group =>   2
Atom  22H    basis set group =>   4
Atom  23H    basis set group =>   4
Atom  24H    basis set group =>   4
Atom  25C    basis set group =>   2
Atom  26H    basis set group =>   4
Atom  27H    basis set group =>   4
Atom  28H    basis set group =>   4
Atom  29H    basis set group =>   4
Atom  30H    basis set group =>   4
Atom  31H    basis set group =>   4


           ************************************************************
           *        Program running with 16 parallel MPI-processes    *
           *              working on a common directory               *
           ************************************************************
------------------------------------------------------------------------------
                           ORCA GTO INTEGRAL CALCULATION
                           -- RI-GTO INTEGRALS CHOSEN --
------------------------------------------------------------------------------
------------------------------------------------------------------------------
                   ___                                                        
                  /   \      - P O W E R E D   B Y -                         
                 /     \                                                     
                 |  |  |   _    _      __       _____    __    __             
                 |  |  |  | |  | |    /  \     |  _  \  |  |  /  |          
                  \  \/   | |  | |   /    \    | | | |  |  | /  /          
                 / \  \   | |__| |  /  /\  \   | |_| |  |  |/  /          
                |  |  |   |  __  | /  /__\  \  |    /   |      \           
                |  |  |   | |  | | |   __   |  |    \   |  |\   \          
                \     /   | |  | | |  |  |  |  | |\  \  |  | \   \       
                 \___/    |_|  |_| |__|  |__|  |_| \__\ |__|  \__/        
                                                                              
                      - O R C A' S   B I G   F R I E N D -                    
                                      &                                       
                       - I N T E G R A L  F E E D E R -                       
                                                                              
 v1 FN, 2020, v2 2021                                                         
------------------------------------------------------------------------------


Reading SHARK input file opt.SHARKINP.tmp ... ok
----------------------
SHARK INTEGRAL PACKAGE
----------------------

Number of atoms                             ...     32
Number of basis functions                   ...    364
Number of shells                            ...    216
Maximum angular momentum                    ...      2
Integral batch strategy                     ... SHARK/LIBINT Hybrid
RI-J (if used) integral strategy            ... SPLIT-RIJ (Revised 2003 algorithm where possible)
Printlevel                                  ...      1
Contraction scheme used                     ... SEGMENTED contraction
Coulomb Range Separation                    ... NOT USED
Exchange Range Separation                   ... NOT USED
Finite Nucleus Model                        ... NOT USED
Auxiliary Coulomb fitting basis             ... AVAILABLE
   # of basis functions in Aux-J            ...    884
   # of shells in Aux-J                     ...    300
   Maximum angular momentum in Aux-J        ...      4
Auxiliary J/K fitting basis                 ... NOT available
Auxiliary Correlation fitting basis         ... NOT available
Auxiliary 'external' fitting basis          ... NOT available
Integral threshold                          ...     2.500000e-11
Primitive cut-off                           ...     2.500000e-12
Primitive pair pre-selection threshold      ...     2.500000e-12

Calculating pre-screening integrals         ... done (  0.0 sec) Dimension = 216
Organizing shell pair data                  ... done (  0.0 sec)
Shell pair information
Total number of shell pairs                 ...     23436
Shell pairs after pre-screening             ...     15297
Total number of primitive shell pairs       ...     61703
Primitive shell pairs kept                  ...     29258
          la=0 lb=0:   7165 shell pairs
          la=1 lb=0:   5223 shell pairs
          la=1 lb=1:    894 shell pairs
          la=2 lb=0:   1425 shell pairs
          la=2 lb=1:    509 shell pairs
          la=2 lb=2:     81 shell pairs

Calculating one electron integrals          ... done (  0.0 sec)
Calculating RI/J V-Matrix + Cholesky decomp.... done (  0.0 sec)
Calculating Nuclear repulsion               ... done (  0.0 sec) ENN=    921.177997337214 Eh

SHARK setup successfully completed in   0.2 seconds

Maximum memory used throughout the entire GTOINT-calculation: 22.2 MB


           ************************************************************
           *        Program running with 16 parallel MPI-processes    *
           *              working on a common directory               *
           ************************************************************
-------------------------------------------------------------------------------
                                 ORCA SCF
-------------------------------------------------------------------------------

------------
SCF SETTINGS
------------
Hamiltonian:
 Density Functional     Method          .... DFT(GTOs)
 Exchange Functional    Exchange        .... B88
   X-Alpha parameter    XAlpha          ....  0.666667
   Becke's b parameter  XBeta           ....  0.004200
 Correlation Functional Correlation     .... LYP
 LDA part of GGA corr.  LDAOpt          .... VWN-5
 Gradients option       PostSCFGGA      .... off
 Hybrid DFT is turned on
   Fraction HF Exchange ScalHFX         ....  0.200000
   Scaling of DF-GGA-X  ScalDFX         ....  0.720000
   Scaling of DF-GGA-C  ScalDFC         ....  0.810000
   Scaling of DF-LDA-C  ScalLDAC        ....  1.000000
   Perturbative correction              ....  0.000000
   Density functional embedding theory  .... OFF
   NL short-range parameter             ....  4.800000
 RI-approximation to the Coulomb term is turned on
   Number of AuxJ basis functions       .... 884
   RIJ-COSX (HFX calculated with COS-X)).... on


General Settings:
 Integral files         IntName         .... opt
 Hartree-Fock type      HFTyp           .... UHF
 Total Charge           Charge          ....    0
 Multiplicity           Mult            ....    2
 Number of Electrons    NEL             ....  109
 Basis Dimension        Dim             ....  364
 Nuclear Repulsion      ENuc            ....    921.1779973372 Eh

Convergence Acceleration:
 DIIS                   CNVDIIS         .... on
   Start iteration      DIISMaxIt       ....    12
   Startup error        DIISStart       ....  0.200000
   # of expansion vecs  DIISMaxEq       ....     5
   Bias factor          DIISBfac        ....   1.050
   Max. coefficient     DIISMaxC        ....  10.000
 Trust-Rad. Augm. Hess. CNVTRAH         .... auto
   Auto Start mean grad. ratio tolernc. ....  1.125000
   Auto Start start iteration           ....    20
   Auto Start num. interpolation iter.  ....    10
   Max. Number of Micro iterations      ....    16
   Max. Number of Macro iterations      .... Maxiter - #DIIS iter
   Number of Davidson start vectors     ....     2
   Converg. threshold I  (grad. norm)   ....   1.000e-05
   Converg. threshold II (energy diff.) ....   1.000e-08
   Grad. Scal. Fac. for Micro threshold ....   0.100
   Minimum threshold for Micro iter.    ....   0.010
   NR start threshold (gradient norm)   ....   0.001
   Initial trust radius                 ....   0.400
   Minimum AH scaling param. (alpha)    ....   1.000
   Maximum AH scaling param. (alpha)    .... 1000.000
   Orbital update algorithm             .... Taylor
   White noise on init. David. guess    .... on
   Maximum white noise                  ....   0.010
   Quad. conv. algorithm                .... NR
 SOSCF                  CNVSOSCF        .... off
 Level Shifting         CNVShift        .... on
   Level shift para.    LevelShift      ....    0.2500
   Turn off err/grad.   ShiftErr        ....    0.0010
 Zerner damping         CNVZerner       .... off
 Static damping         CNVDamp         .... on
   Fraction old density DampFac         ....    0.7000
   Max. Damping (<1)    DampMax         ....    0.9800
   Min. Damping (>=0)   DampMin         ....    0.0000
   Turn off err/grad.   DampErr         ....    0.1000
 Fernandez-Rico         CNVRico         .... off

SCF Procedure:
 Maximum # iterations   MaxIter         ....   125
 SCF integral mode      SCFMode         .... Direct
   Integral package                     .... SHARK and LIBINT hybrid scheme
 Reset frequency        DirectResetFreq ....    20
 Integral Threshold     Thresh          ....  2.500e-11 Eh
 Primitive CutOff       TCut            ....  2.500e-12 Eh

Convergence Tolerance:
 Convergence Check Mode ConvCheckMode   .... Total+1el-Energy
 Convergence forced     ConvForced      .... 0
 Energy Change          TolE            ....  1.000e-08 Eh
 1-El. energy change                    ....  1.000e-05 Eh
 DIIS Error             TolErr          ....  5.000e-07


Diagonalization of the overlap matrix:
Smallest eigenvalue                        ... 9.049e-04
Time for diagonalization                   ...    0.014 sec
Threshold for overlap eigenvalues          ... 1.000e-08
Number of eigenvalues below threshold      ... 0
Time for construction of square roots      ...    0.010 sec
Total time needed                          ...    0.025 sec

Time for model grid setup =    0.107 sec

------------------------------
INITIAL GUESS: MODEL POTENTIAL
------------------------------
Loading Hartree-Fock densities                     ... done
Calculating cut-offs                               ... done
Initializing the effective Hamiltonian             ... done
Setting up the integral package (SHARK)            ... done
Starting the Coulomb interaction                   ... done (   0.0 sec)
Reading the grid                                   ... done
Mapping shells                                     ... done
Starting the XC term evaluation                    ... done (   0.0 sec)
  promolecular density results
     # of electrons  =    108.988768905
     EX              =    -87.746526643
     EC              =     -3.659853981
     EX+EC           =    -91.406380624
Transforming the Hamiltonian                       ... done (   0.0 sec)
Diagonalizing the Hamiltonian                      ... done (   0.0 sec)
Back transforming the eigenvectors                 ... done (   0.0 sec)
Now organizing SCF variables                       ... done
                      ------------------
                      INITIAL GUESS DONE (   0.3 sec)
                      ------------------
-------------------
DFT GRID GENERATION
-------------------

General Integration Accuracy     IntAcc      ... 4.388
Radial Grid Type                 RadialGrid  ... OptM3 with GC (2021)
Angular Grid (max. ang.)         AngularGrid ... 4 (Lebedev-302)
Angular grid pruning method      GridPruning ... 4 (adaptive)
Weight generation scheme         WeightScheme... Becke
Basis function cutoff            BFCut       ... 1.0000e-11
Integration weight cutoff        WCut        ... 1.0000e-14
Angular grids for H and He will be reduced by one unit
Partially contracted basis set               ... off
Rotationally invariant grid construction     ... off

Total number of grid points                  ...   141746
Total number of batches                      ...     2235
Average number of points per batch           ...       63
Average number of grid points per atom       ...     4430
Time for grid setup =    0.581 sec

--------------------
COSX GRID GENERATION
--------------------

GRIDX 1
-------
General Integration Accuracy     IntAcc      ... 3.816
Radial Grid Type                 RadialGrid  ... OptM3 with GC (2021)
Angular Grid (max. ang.)         AngularGrid ... 1 (Lebedev-50)
Angular grid pruning method      GridPruning ... 4 (adaptive)
Weight generation scheme         WeightScheme... Becke
Basis function cutoff            BFCut       ... 1.0000e-11
Integration weight cutoff        WCut        ... 1.0000e-14
Angular grids for H and He will be reduced by one unit
Partially contracted basis set               ... on
Rotationally invariant grid construction     ... off

Total number of grid points                  ...    18090
Total number of batches                      ...      303
Average number of points per batch           ...       59
Average number of grid points per atom       ...      565
UseSFitting                                  ... on

GRIDX 2
-------
General Integration Accuracy     IntAcc      ... 4.020
Radial Grid Type                 RadialGrid  ... OptM3 with GC (2021)
Angular Grid (max. ang.)         AngularGrid ... 2 (Lebedev-110)
Angular grid pruning method      GridPruning ... 4 (adaptive)
Weight generation scheme         WeightScheme... Becke
Basis function cutoff            BFCut       ... 1.0000e-11
Integration weight cutoff        WCut        ... 1.0000e-14
Angular grids for H and He will be reduced by one unit
Partially contracted basis set               ... on
Rotationally invariant grid construction     ... off

Total number of grid points                  ...    38374
Total number of batches                      ...      616
Average number of points per batch           ...       62
Average number of grid points per atom       ...     1199
UseSFitting                                  ... on

GRIDX 3
-------
General Integration Accuracy     IntAcc      ... 4.338
Radial Grid Type                 RadialGrid  ... OptM3 with GC (2021)
Angular Grid (max. ang.)         AngularGrid ... 3 (Lebedev-194)
Angular grid pruning method      GridPruning ... 4 (adaptive)
Weight generation scheme         WeightScheme... Becke
Basis function cutoff            BFCut       ... 1.0000e-11
Integration weight cutoff        WCut        ... 1.0000e-14
Angular grids for H and He will be reduced by one unit
Partially contracted basis set               ... on
Rotationally invariant grid construction     ... off

Total number of grid points                  ...    83692
Total number of batches                      ...     1325
Average number of points per batch           ...       63
Average number of grid points per atom       ...     2615
UseSFitting                                  ... on

Time for X-Grid setup             =    0.733 sec

--------------
SCF ITERATIONS
--------------
ITER       Energy         Delta-E        Max-DP      RMS-DP      [F,P]     Damp
               ***  Starting incremental Fock matrix formation  ***
  0   -667.6894510791   0.000000000000 0.06070285  0.00098005  0.1285900 0.7000
  1   -667.9418140719  -0.252362992807 0.05031754  0.00070530  0.0533722 0.7000
                               ***Turning on DIIS***
  2   -668.0332714058  -0.091457333847 0.08119072  0.00109093  0.0168509 0.0000
  3   -668.1809795844  -0.147708178621 0.04399057  0.00052456  0.0323330 0.0000
  4   -668.2145447886  -0.033565204209 0.01722601  0.00018386  0.0075581 0.0000
  5   -668.2163424420  -0.001797653375 0.00764456  0.00007350  0.0048945 0.0000
  6   -668.2167170291  -0.000374587145 0.00487306  0.00004634  0.0007298 0.0000
               *** Restarting incremental Fock matrix formation ***
                                   *** Resetting DIIS ***
  7   -668.2167263857  -0.000009356543 0.00160258  0.00001977  0.0006961 0.0000
  8   -668.2167135230   0.000012862685 0.00073387  0.00000775  0.0010629 0.0000
  9   -668.2167359301  -0.000022407114 0.00029057  0.00000489  0.0002838 0.0000
 10   -668.2167375587  -0.000001628558 0.00013047  0.00000142  0.0000704 0.0000
 11   -668.2167376112  -0.000000052502 0.00008100  0.00000090  0.0000786 0.0000
 12   -668.2167376941  -0.000000082932 0.00002607  0.00000032  0.0000200 0.0000
 13   -668.2167376987  -0.000000004557 0.00001211  0.00000015  0.0000118 0.0000
 14   -668.2167377072  -0.000000008523 0.00000709  0.00000007  0.0000043 0.0000
 15   -668.2167377000   0.000000007191 0.00000329  0.00000004  0.0000037 0.0000
                            ***DIIS convergence achieved***

               *****************************************************
               *                     SUCCESS                       *
               *           SCF CONVERGED AFTER  16 CYCLES          *
               *****************************************************

Old exchange energy                            =    -17.870540909 Eh
New exchange energy                            =    -17.870607162 Eh
Exchange energy change after final integration =     -0.000066253 Eh
Total energy after final integration           =   -668.216803955 Eh
Final COS-X integration done in                =     2.217 sec

----------------
TOTAL SCF ENERGY
----------------

Total Energy       :         -668.21680395 Eh          -18183.10365 eV

Components:
Nuclear Repulsion  :          921.17799734 Eh           25066.52767 eV
Electronic Energy  :        -1589.39480129 Eh          -43249.63131 eV
One Electron Energy:        -2736.36445303 Eh          -74460.26225 eV
Two Electron Energy:         1146.96965174 Eh           31210.63094 eV
Max COSX asymmetry :            0.00000302 Eh               0.00008 eV

Virial components:
Potential Energy   :        -1332.05016145 Eh          -36246.92765 eV
Kinetic Energy     :          663.83335750 Eh           18063.82400 eV
Virial Ratio       :            2.00660323


DFT components:
N(Alpha)           :       55.000015556525 electrons
N(Beta)            :       54.000057208944 electrons
N(Total)           :      109.000072765469 electrons
E(X)               :      -70.972763644326 Eh       
E(C)               :       -4.315254534070 Eh       
E(XC)              :      -75.288018178396 Eh       
DFET-embed. en.    :        0.000000000000 Eh       

---------------
SCF CONVERGENCE
---------------

  Last Energy change         ...   -1.8545e-09  Tolerance :   1.0000e-08
  Last MAX-Density change    ...    0.0000e+00  Tolerance :   1.0000e-07
  Last RMS-Density change    ...    0.0000e+00  Tolerance :   5.0000e-09
  Last DIIS Error            ...    5.9127e-07  Tolerance :   5.0000e-07

             **** THE GBW FILE WAS UPDATED (opt.gbw) ****
             **** DENSITY opt.scfp WAS UPDATED ****
             **** ENERGY FILE WAS UPDATED (opt.en.tmp) ****
----------------------
UHF SPIN CONTAMINATION
----------------------

Warning: in a DFT calculation there is little theoretical justification to 
         calculate <S**2> as in Hartree-Fock theory. We will do it anyways
         but you should keep in mind that the values have only limited relevance

Expectation value of <S**2>     :     0.754017
Ideal value S*(S+1) for S=0.5   :     0.750000
Deviation                       :     0.004017

             **** THE GBW FILE WAS UPDATED (opt.gbw) ****
             **** DENSITY opt.scfp WAS UPDATED ****
----------------
ORBITAL ENERGIES
----------------
                 SPIN UP ORBITALS
  NO   OCC          E(Eh)            E(eV) 
   0   1.0000     -19.120269      -520.2890 
   1   1.0000     -19.098586      -519.6989 
   2   1.0000     -14.368238      -390.9796 
   3   1.0000     -14.347647      -390.4193 
   4   1.0000     -14.306349      -389.2955 
   5   1.0000     -10.298065      -280.2246 
   6   1.0000     -10.284643      -279.8594 
   7   1.0000     -10.237068      -278.5648 
   8   1.0000     -10.224360      -278.2190 
   9   1.0000     -10.205715      -277.7116 
  10   1.0000     -10.193743      -277.3858 
  11   1.0000     -10.190505      -277.2977 
  12   1.0000     -10.184603      -277.1371 
  13   1.0000     -10.183754      -277.1140 
  14   1.0000      -1.052826       -28.6489 
  15   1.0000      -1.030268       -28.0350 
  16   1.0000      -0.933275       -25.3957 
  17   1.0000      -0.920299       -25.0426 
  18   1.0000      -0.876810       -23.8592 
  19   1.0000      -0.800749       -21.7895 
  20   1.0000      -0.760264       -20.6878 
  21   1.0000      -0.726705       -19.7746 
  22   1.0000      -0.713020       -19.4023 
  23   1.0000      -0.666448       -18.1350 
  24   1.0000      -0.616211       -16.7680 
  25   1.0000      -0.599054       -16.3011 
  26   1.0000      -0.584517       -15.9055 
  27   1.0000      -0.558190       -15.1891 
  28   1.0000      -0.538128       -14.6432 
  29   1.0000      -0.491291       -13.3687 
  30   1.0000      -0.481380       -13.0990 
  31   1.0000      -0.473650       -12.8887 
  32   1.0000      -0.464480       -12.6391 
  33   1.0000      -0.456952       -12.4343 
  34   1.0000      -0.454325       -12.3628 
  35   1.0000      -0.447983       -12.1902 
  36   1.0000      -0.433536       -11.7971 
  37   1.0000      -0.426176       -11.5968 
  38   1.0000      -0.422600       -11.4995 
  39   1.0000      -0.404595       -11.0096 
  40   1.0000      -0.401461       -10.9243 
  41   1.0000      -0.397113       -10.8060 
  42   1.0000      -0.388001       -10.5580 
  43   1.0000      -0.375966       -10.2306 
  44   1.0000      -0.371353       -10.1050 
  45   1.0000      -0.362997        -9.8777 
  46   1.0000      -0.349761        -9.5175 
  47   1.0000      -0.343890        -9.3577 
  48   1.0000      -0.331050        -9.0083 
  49   1.0000      -0.270255        -7.3540 
  50   1.0000      -0.268612        -7.3093 
  51   1.0000      -0.251337        -6.8392 
  52   1.0000      -0.246214        -6.6998 
  53   1.0000      -0.234452        -6.3798 
  54   1.0000      -0.184736        -5.0269 
  55   0.0000       0.008412         0.2289 
  56   0.0000       0.014604         0.3974 
  57   0.0000       0.026052         0.7089 
  58   0.0000       0.029397         0.7999 
  59   0.0000       0.032271         0.8781 
  60   0.0000       0.036768         1.0005 
  61   0.0000       0.047395         1.2897 
  62   0.0000       0.059568         1.6209 
  63   0.0000       0.064261         1.7486 
  64   0.0000       0.080706         2.1961 
  65   0.0000       0.090304         2.4573 
  66   0.0000       0.094678         2.5763 
  67   0.0000       0.117859         3.2071 
  68   0.0000       0.125205         3.4070 
  69   0.0000       0.149633         4.0717 
  70   0.0000       0.154781         4.2118 
  71   0.0000       0.162023         4.4089 
  72   0.0000       0.168094         4.5741 
  73   0.0000       0.176497         4.8027 
  74   0.0000       0.183890         5.0039 
  75   0.0000       0.187353         5.0981 
  76   0.0000       0.192337         5.2338 
  77   0.0000       0.196840         5.3563 
  78   0.0000       0.202750         5.5171 
  79   0.0000       0.205949         5.6042 
  80   0.0000       0.213924         5.8212 
  81   0.0000       0.223558         6.0833 
  82   0.0000       0.229450         6.2436 
  83   0.0000       0.231772         6.3068 
  84   0.0000       0.236127         6.4253 
  85   0.0000       0.244784         6.6609 
  86   0.0000       0.250288         6.8107 
  87   0.0000       0.251487         6.8433 
  88   0.0000       0.255461         6.9515 
  89   0.0000       0.264338         7.1930 
  90   0.0000       0.268091         7.2951 
  91   0.0000       0.277617         7.5543 
  92   0.0000       0.280331         7.6282 
  93   0.0000       0.283462         7.7134 
  94   0.0000       0.290330         7.9003 
  95   0.0000       0.292770         7.9667 
  96   0.0000       0.304319         8.2809 
  97   0.0000       0.311035         8.4637 
  98   0.0000       0.316183         8.6038 
  99   0.0000       0.320663         8.7257 
 100   0.0000       0.327902         8.9227 
 101   0.0000       0.328505         8.9391 
 102   0.0000       0.334144         9.0925 
 103   0.0000       0.347035         9.4433 
 104   0.0000       0.369746        10.0613 
 105   0.0000       0.373618        10.1667 
 106   0.0000       0.379204        10.3187 
 107   0.0000       0.386096        10.5062 
 108   0.0000       0.393177        10.6989 
 109   0.0000       0.407541        11.0897 
 110   0.0000       0.410512        11.1706 
 111   0.0000       0.426744        11.6123 
 112   0.0000       0.430210        11.7066 
 113   0.0000       0.449540        12.2326 
 114   0.0000       0.450815        12.2673 
 115   0.0000       0.462778        12.5928 
 116   0.0000       0.472643        12.8613 
 117   0.0000       0.491737        13.3809 
 118   0.0000       0.500717        13.6252 
 119   0.0000       0.510749        13.8982 
 120   0.0000       0.523835        14.2543 
 121   0.0000       0.532340        14.4857 
 122   0.0000       0.542321        14.7573 
 123   0.0000       0.565450        15.3867 
 124   0.0000       0.568547        15.4709 
 125   0.0000       0.574466        15.6320 
 126   0.0000       0.599126        16.3030 
 127   0.0000       0.612356        16.6631 
 128   0.0000       0.613032        16.6815 
 129   0.0000       0.628104        17.0916 
 130   0.0000       0.662607        18.0304 
 131   0.0000       0.672433        18.2978 
 132   0.0000       0.680208        18.5094 
 133   0.0000       0.688448        18.7336 
 134   0.0000       0.705077        19.1861 
 135   0.0000       0.736837        20.0504 
 136   0.0000       0.758864        20.6497 
 137   0.0000       0.783045        21.3077 
 138   0.0000       0.785818        21.3832 
 139   0.0000       0.792713        21.5708 
 140   0.0000       0.806588        21.9484 
 141   0.0000       0.815928        22.2025 
 142   0.0000       0.821126        22.3440 
 143   0.0000       0.831874        22.6364 
 144   0.0000       0.838469        22.8159 
 145   0.0000       0.846952        23.0467 
 146   0.0000       0.860227        23.4080 
 147   0.0000       0.867808        23.6143 
 148   0.0000       0.875170        23.8146 
 149   0.0000       0.878813        23.9137 
 150   0.0000       0.884277        24.0624 
 151   0.0000       0.889806        24.2128 
 152   0.0000       0.898323        24.4446 
 153   0.0000       0.915783        24.9197 
 154   0.0000       0.916997        24.9528 
 155   0.0000       0.923957        25.1422 
 156   0.0000       0.927809        25.2470 
 157   0.0000       0.931681        25.3523 
 158   0.0000       0.941941        25.6315 
 159   0.0000       0.943796        25.6820 
 160   0.0000       0.954112        25.9627 
 161   0.0000       0.962065        26.1791 
 162   0.0000       0.973069        26.4785 
 163   0.0000       0.975085        26.5334 
 164   0.0000       0.986682        26.8490 
 165   0.0000       1.005169        27.3520 
 166   0.0000       1.019652        27.7461 
 167   0.0000       1.029381        28.0109 
 168   0.0000       1.043787        28.4029 
 169   0.0000       1.046718        28.4826 
 170   0.0000       1.066656        29.0252 
 171   0.0000       1.087980        29.6054 
 172   0.0000       1.089670        29.6514 
 173   0.0000       1.139957        31.0198 
 174   0.0000       1.143804        31.1245 
 175   0.0000       1.155427        31.4408 
 176   0.0000       1.160872        31.5889 
 177   0.0000       1.171993        31.8916 
 178   0.0000       1.180003        32.1095 
 179   0.0000       1.182798        32.1856 
 180   0.0000       1.199347        32.6359 
 181   0.0000       1.214105        33.0375 
 182   0.0000       1.229971        33.4692 
 183   0.0000       1.239115        33.7180 
 184   0.0000       1.283134        34.9159 
 185   0.0000       1.300394        35.3855 
 186   0.0000       1.312967        35.7276 
 187   0.0000       1.338756        36.4294 
 188   0.0000       1.353321        36.8257 
 189   0.0000       1.365111        37.1466 
 190   0.0000       1.369211        37.2581 
 191   0.0000       1.381245        37.5856 
 192   0.0000       1.396242        37.9937 
 193   0.0000       1.405630        38.2491 
 194   0.0000       1.410135        38.3717 
 195   0.0000       1.412292        38.4304 
 196   0.0000       1.427032        38.8315 
 197   0.0000       1.461829        39.7784 
 198   0.0000       1.477715        40.2107 
 199   0.0000       1.488891        40.5148 
 200   0.0000       1.493452        40.6389 
 201   0.0000       1.503938        40.9242 
 202   0.0000       1.519120        41.3374 
 203   0.0000       1.525719        41.5169 
 204   0.0000       1.539072        41.8803 
 205   0.0000       1.561171        42.4816 
 206   0.0000       1.566717        42.6325 
 207   0.0000       1.573654        42.8213 
 208   0.0000       1.584758        43.1235 
 209   0.0000       1.593349        43.3572 
 210   0.0000       1.618633        44.0452 
 211   0.0000       1.623045        44.1653 
 212   0.0000       1.625969        44.2449 
 213   0.0000       1.637386        44.5555 
 214   0.0000       1.649976        44.8981 
 215   0.0000       1.657633        45.1065 
 216   0.0000       1.667754        45.3819 
 217   0.0000       1.685826        45.8737 
 218   0.0000       1.689334        45.9691 
 219   0.0000       1.698970        46.2313 
 220   0.0000       1.706955        46.4486 
 221   0.0000       1.723536        46.8998 
 222   0.0000       1.735577        47.2274 
 223   0.0000       1.737675        47.2845 
 224   0.0000       1.740394        47.3585 
 225   0.0000       1.754577        47.7445 
 226   0.0000       1.766604        48.0717 
 227   0.0000       1.787308        48.6351 
 228   0.0000       1.794130        48.8207 
 229   0.0000       1.830619        49.8137 
 230   0.0000       1.836495        49.9736 
 231   0.0000       1.843922        50.1757 
 232   0.0000       1.850053        50.3425 
 233   0.0000       1.870788        50.9067 
 234   0.0000       1.883889        51.2632 
 235   0.0000       1.895787        51.5870 
 236   0.0000       1.914243        52.0892 
 237   0.0000       1.943279        52.8793 
 238   0.0000       1.956373        53.2356 
 239   0.0000       1.976678        53.7882 
 240   0.0000       1.993457        54.2447 
 241   0.0000       2.017044        54.8866 
 242   0.0000       2.040581        55.5270 
 243   0.0000       2.047915        55.7266 
 244   0.0000       2.062260        56.1170 
 245   0.0000       2.073955        56.4352 
 246   0.0000       2.091843        56.9219 
 247   0.0000       2.101556        57.1862 
 248   0.0000       2.136477        58.1365 
 249   0.0000       2.143310        58.3224 
 250   0.0000       2.154046        58.6146 
 251   0.0000       2.161285        58.8115 
 252   0.0000       2.172281        59.1108 
 253   0.0000       2.201477        59.9052 
 254   0.0000       2.211707        60.1836 
 255   0.0000       2.244366        61.0723 
 256   0.0000       2.259527        61.4849 
 257   0.0000       2.259915        61.4954 
 258   0.0000       2.280184        62.0469 
 259   0.0000       2.296963        62.5036 
 260   0.0000       2.340246        63.6813 
 261   0.0000       2.345101        63.8134 
 262   0.0000       2.366849        64.4052 
 263   0.0000       2.390381        65.0456 
 264   0.0000       2.394042        65.1452 
 265   0.0000       2.397201        65.2312 
 266   0.0000       2.404678        65.4346 
 267   0.0000       2.418107        65.8000 
 268   0.0000       2.424630        65.9775 
 269   0.0000       2.435902        66.2843 
 270   0.0000       2.445273        66.5393 
 271   0.0000       2.460576        66.9557 
 272   0.0000       2.484176        67.5979 
 273   0.0000       2.495071        67.8943 
 274   0.0000       2.497370        67.9569 
 275   0.0000       2.501982        68.0824 
 276   0.0000       2.524040        68.6826 
 277   0.0000       2.557838        69.6023 
 278   0.0000       2.560900        69.6856 
 279   0.0000       2.593615        70.5759 
 280   0.0000       2.630496        71.5794 
 281   0.0000       2.641672        71.8835 
 282   0.0000       2.670468        72.6671 
 283   0.0000       2.689381        73.1818 
 284   0.0000       2.711602        73.7864 
 285   0.0000       2.724745        74.1441 
 286   0.0000       2.755203        74.9729 
 287   0.0000       2.763822        75.2074 
 288   0.0000       2.784368        75.7665 
 289   0.0000       2.791347        75.9564 
 290   0.0000       2.831622        77.0524 
 291   0.0000       2.916314        79.3569 
 292   0.0000       3.003066        81.7176 
 293   0.0000       3.045995        82.8857 
 294   0.0000       3.103868        84.4605 
 295   0.0000       3.129734        85.1644 
 296   0.0000       3.390590        92.2627 
 297   0.0000       3.441249        93.6411 
 298   0.0000       3.457013        94.0701 
 299   0.0000       3.465838        94.3102 
 300   0.0000       4.923447       133.9738 
 301   0.0000       4.975399       135.3875 
 302   0.0000       4.988089       135.7328 
 303   0.0000       4.991604       135.8284 
 304   0.0000       4.998784       136.0238 
 305   0.0000       5.013000       136.4107 
 306   0.0000       5.019488       136.5872 
 307   0.0000       5.048646       137.3806 
 308   0.0000       5.056284       137.5885 
 309   0.0000       5.081926       138.2862 
 310   0.0000       5.134415       139.7145 
 311   0.0000       5.162247       140.4719 
 312   0.0000       5.180066       140.9568 
 313   0.0000       5.204245       141.6147 
 314   0.0000       5.254980       142.9953 
 315   0.0000       5.268954       143.3755 
 316   0.0000       5.298303       144.1742 
 317   0.0000       5.307454       144.4232 
 318   0.0000       5.345297       145.4529 
 319   0.0000       5.354067       145.6916 
 320   0.0000       5.369773       146.1190 
 321   0.0000       5.478028       149.0647 
 322   0.0000       5.575620       151.7203 
 323   0.0000       5.641755       153.5200 
 324   0.0000       5.714031       155.4867 
 325   0.0000       5.740919       156.2183 
 326   0.0000       5.859392       159.4422 
 327   0.0000       7.221997       196.5205 
 328   0.0000       7.314480       199.0371 
 329   0.0000       7.346561       199.9101 
 330   0.0000       9.094861       247.4838 
 331   0.0000       9.116318       248.0676 
 332   0.0000      29.594847       805.3167 
 333   0.0000      29.635274       806.4168 
 334   0.0000      29.775564       810.2343 
 335   0.0000      29.900646       813.6379 
 336   0.0000      29.908519       813.8522 
 337   0.0000      30.051527       817.7436 
 338   0.0000      30.085271       818.6618 
 339   0.0000      30.153215       820.5107 
 340   0.0000      30.266619       823.5966 
 341   0.0000      36.540101       994.3067 
 342   0.0000      36.606112       996.1030 
 343   0.0000      36.607770       996.1481 
 344   0.0000      36.612794       996.2848 
 345   0.0000      36.619926       996.4788 
 346   0.0000      36.636949       996.9421 
 347   0.0000      36.642006       997.0797 
 348   0.0000      36.665953       997.7313 
 349   0.0000      36.700341       998.6671 
 350   0.0000      36.717734       999.1403 
 351   0.0000      36.731693       999.5202 
 352   0.0000      36.791838      1001.1568 
 353   0.0000      36.805830      1001.5376 
 354   0.0000      36.853894      1002.8454 
 355   0.0000      36.886966      1003.7454 
 356   0.0000      36.895665      1003.9821 
 357   0.0000      36.921413      1004.6827 
 358   0.0000      36.926174      1004.8123 
 359   0.0000      41.164292      1120.1373 
 360   0.0000      41.253675      1122.5696 
 361   0.0000      41.286749      1123.4696 
 362   0.0000      53.632495      1459.4144 
 363   0.0000      53.653097      1459.9750 

                 SPIN DOWN ORBITALS
  NO   OCC          E(Eh)            E(eV) 
   0   1.0000     -19.120201      -520.2871 
   1   1.0000     -19.098475      -519.6959 
   2   1.0000     -14.368205      -390.9787 
   3   1.0000     -14.347586      -390.4177 
   4   1.0000     -14.306301      -389.2942 
   5   1.0000     -10.298079      -280.2250 
   6   1.0000     -10.284652      -279.8596 
   7   1.0000     -10.236948      -278.5615 
   8   1.0000     -10.224358      -278.2189 
   9   1.0000     -10.205552      -277.7072 
  10   1.0000     -10.194597      -277.4091 
  11   1.0000     -10.184619      -277.1376 
  12   1.0000     -10.184602      -277.1371 
  13   1.0000     -10.176751      -276.9235 
  14   1.0000      -1.052702       -28.6455 
  15   1.0000      -1.030116       -28.0309 
  16   1.0000      -0.933194       -25.3935 
  17   1.0000      -0.920048       -25.0358 
  18   1.0000      -0.876436       -23.8490 
  19   1.0000      -0.792473       -21.5643 
  20   1.0000      -0.754327       -20.5263 
  21   1.0000      -0.726627       -19.7725 
  22   1.0000      -0.711877       -19.3712 
  23   1.0000      -0.662416       -18.0252 
  24   1.0000      -0.611462       -16.6387 
  25   1.0000      -0.598993       -16.2994 
  26   1.0000      -0.580281       -15.7902 
  27   1.0000      -0.547365       -14.8946 
  28   1.0000      -0.537639       -14.6299 
  29   1.0000      -0.490111       -13.3366 
  30   1.0000      -0.480083       -13.0637 
  31   1.0000      -0.473441       -12.8830 
  32   1.0000      -0.463332       -12.6079 
  33   1.0000      -0.456385       -12.4189 
  34   1.0000      -0.450370       -12.2552 
  35   1.0000      -0.447239       -12.1700 
  36   1.0000      -0.427543       -11.6340 
  37   1.0000      -0.423760       -11.5311 
  38   1.0000      -0.420318       -11.4374 
  39   1.0000      -0.404362       -11.0033 
  40   1.0000      -0.399177       -10.8622 
  41   1.0000      -0.395423       -10.7600 
  42   1.0000      -0.386179       -10.5085 
  43   1.0000      -0.373370       -10.1599 
  44   1.0000      -0.369372       -10.0511 
  45   1.0000      -0.360155        -9.8003 
  46   1.0000      -0.344928        -9.3860 
  47   1.0000      -0.340526        -9.2662 
  48   1.0000      -0.328705        -8.9445 
  49   1.0000      -0.269987        -7.3467 
  50   1.0000      -0.267973        -7.2919 
  51   1.0000      -0.250057        -6.8044 
  52   1.0000      -0.245841        -6.6897 
  53   1.0000      -0.233853        -6.3635 
  54   0.0000      -0.043781        -1.1913 
  55   0.0000       0.009258         0.2519 
  56   0.0000       0.014720         0.4005 
  57   0.0000       0.026232         0.7138 
  58   0.0000       0.030371         0.8264 
  59   0.0000       0.032607         0.8873 
  60   0.0000       0.037115         1.0099 
  61   0.0000       0.047622         1.2959 
  62   0.0000       0.061191         1.6651 
  63   0.0000       0.064598         1.7578 
  64   0.0000       0.081057         2.2057 
  65   0.0000       0.090965         2.4753 
  66   0.0000       0.095680         2.6036 
  67   0.0000       0.119422         3.2496 
  68   0.0000       0.126973         3.4551 
  69   0.0000       0.151764         4.1297 
  70   0.0000       0.155655         4.2356 
  71   0.0000       0.162345         4.4176 
  72   0.0000       0.169225         4.6049 
  73   0.0000       0.177546         4.8313 
  74   0.0000       0.184099         5.0096 
  75   0.0000       0.187951         5.1144 
  76   0.0000       0.194191         5.2842 
  77   0.0000       0.198026         5.3886 
  78   0.0000       0.203269         5.5312 
  79   0.0000       0.209163         5.6916 
  80   0.0000       0.215815         5.8726 
  81   0.0000       0.224936         6.1208 
  82   0.0000       0.230814         6.2808 
  83   0.0000       0.233508         6.3541 
  84   0.0000       0.239357         6.5132 
  85   0.0000       0.247007         6.7214 
  86   0.0000       0.251723         6.8497 
  87   0.0000       0.252455         6.8697 
  88   0.0000       0.257771         7.0143 
  89   0.0000       0.266718         7.2578 
  90   0.0000       0.269366         7.3298 
  91   0.0000       0.279990         7.6189 
  92   0.0000       0.281239         7.6529 
  93   0.0000       0.287409         7.8208 
  94   0.0000       0.293546         7.9878 
  95   0.0000       0.295105         8.0302 
  96   0.0000       0.306705         8.3459 
  97   0.0000       0.312396         8.5007 
  98   0.0000       0.316982         8.6255 
  99   0.0000       0.324539         8.8312 
 100   0.0000       0.329400         8.9634 
 101   0.0000       0.331724         9.0267 
 102   0.0000       0.334434         9.1004 
 103   0.0000       0.352910         9.6032 
 104   0.0000       0.370502        10.0819 
 105   0.0000       0.379048        10.3144 
 106   0.0000       0.381889        10.3917 
 107   0.0000       0.391986        10.6665 
 108   0.0000       0.393883        10.7181 
 109   0.0000       0.410295        11.1647 
 110   0.0000       0.413342        11.2476 
 111   0.0000       0.428877        11.6703 
 112   0.0000       0.431974        11.7546 
 113   0.0000       0.450039        12.2462 
 114   0.0000       0.451971        12.2988 
 115   0.0000       0.463801        12.6207 
 116   0.0000       0.475541        12.9401 
 117   0.0000       0.495874        13.4934 
 118   0.0000       0.501690        13.6517 
 119   0.0000       0.512509        13.9461 
 120   0.0000       0.529233        14.4012 
 121   0.0000       0.533279        14.5113 
 122   0.0000       0.544784        14.8243 
 123   0.0000       0.568503        15.4697 
 124   0.0000       0.573801        15.6139 
 125   0.0000       0.584869        15.9151 
 126   0.0000       0.600628        16.3439 
 127   0.0000       0.613530        16.6950 
 128   0.0000       0.615556        16.7501 
 129   0.0000       0.630853        17.1664 
 130   0.0000       0.663240        18.0477 
 131   0.0000       0.673585        18.3292 
 132   0.0000       0.681697        18.5499 
 133   0.0000       0.691271        18.8104 
 134   0.0000       0.706574        19.2269 
 135   0.0000       0.738583        20.0979 
 136   0.0000       0.760009        20.6809 
 137   0.0000       0.784642        21.3512 
 138   0.0000       0.789533        21.4843 
 139   0.0000       0.794775        21.6269 
 140   0.0000       0.809086        22.0163 
 141   0.0000       0.816870        22.2282 
 142   0.0000       0.823352        22.4045 
 143   0.0000       0.832507        22.6537 
 144   0.0000       0.840182        22.8625 
 145   0.0000       0.848544        23.0901 
 146   0.0000       0.860989        23.4287 
 147   0.0000       0.868929        23.6448 
 148   0.0000       0.876111        23.8402 
 149   0.0000       0.884059        24.0565 
 150   0.0000       0.887674        24.1549 
 151   0.0000       0.891161        24.2497 
 152   0.0000       0.901653        24.5352 
 153   0.0000       0.916345        24.9350 
 154   0.0000       0.918000        24.9801 
 155   0.0000       0.926110        25.2007 
 156   0.0000       0.928340        25.2614 
 157   0.0000       0.932951        25.3869 
 158   0.0000       0.944383        25.6980 
 159   0.0000       0.947663        25.7872 
 160   0.0000       0.956759        26.0347 
 161   0.0000       0.966708        26.3055 
 162   0.0000       0.974212        26.5097 
 163   0.0000       0.976781        26.5796 
 164   0.0000       0.988559        26.9001 
 165   0.0000       1.006290        27.3826 
 166   0.0000       1.021074        27.7848 
 167   0.0000       1.033506        28.1231 
 168   0.0000       1.044766        28.4295 
 169   0.0000       1.048234        28.5239 
 170   0.0000       1.067930        29.0599 
 171   0.0000       1.090129        29.6639 
 172   0.0000       1.094245        29.7759 
 173   0.0000       1.141004        31.0483 
 174   0.0000       1.148578        31.2544 
 175   0.0000       1.158181        31.5157 
 176   0.0000       1.163645        31.6644 
 177   0.0000       1.172691        31.9105 
 178   0.0000       1.182793        32.1854 
 179   0.0000       1.184973        32.2448 
 180   0.0000       1.201238        32.6874 
 181   0.0000       1.215946        33.0876 
 182   0.0000       1.231648        33.5148 
 183   0.0000       1.243122        33.8271 
 184   0.0000       1.286183        34.9988 
 185   0.0000       1.308770        35.6134 
 186   0.0000       1.314631        35.7729 
 187   0.0000       1.340762        36.4840 
 188   0.0000       1.354048        36.8455 
 189   0.0000       1.370896        37.3040 
 190   0.0000       1.375173        37.4204 
 191   0.0000       1.384950        37.6864 
 192   0.0000       1.404072        38.2067 
 193   0.0000       1.406583        38.2751 
 194   0.0000       1.410892        38.3923 
 195   0.0000       1.412516        38.4365 
 196   0.0000       1.432813        38.9888 
 197   0.0000       1.463970        39.8366 
 198   0.0000       1.479369        40.2557 
 199   0.0000       1.489857        40.5411 
 200   0.0000       1.496016        40.7087 
 201   0.0000       1.505115        40.9563 
 202   0.0000       1.522610        41.4323 
 203   0.0000       1.527432        41.5635 
 204   0.0000       1.540304        41.9138 
 205   0.0000       1.562343        42.5135 
 206   0.0000       1.567791        42.6618 
 207   0.0000       1.575764        42.8787 
 208   0.0000       1.585863        43.1535 
 209   0.0000       1.597857        43.4799 
 210   0.0000       1.621455        44.1220 
 211   0.0000       1.624510        44.2052 
 212   0.0000       1.628466        44.3128 
 213   0.0000       1.640080        44.6289 
 214   0.0000       1.652839        44.9760 
 215   0.0000       1.662742        45.2455 
 216   0.0000       1.668994        45.4156 
 217   0.0000       1.690624        46.0042 
 218   0.0000       1.690852        46.0104 
 219   0.0000       1.703649        46.3586 
 220   0.0000       1.709502        46.5179 
 221   0.0000       1.727520        47.0082 
 222   0.0000       1.736135        47.2426 
 223   0.0000       1.738498        47.3069 
 224   0.0000       1.742597        47.4185 
 225   0.0000       1.756770        47.8041 
 226   0.0000       1.768913        48.1346 
 227   0.0000       1.791619        48.7524 
 228   0.0000       1.799240        48.9598 
 229   0.0000       1.835815        49.9551 
 230   0.0000       1.837714        50.0067 
 231   0.0000       1.848357        50.2964 
 232   0.0000       1.850897        50.3655 
 233   0.0000       1.874074        50.9961 
 234   0.0000       1.888963        51.4013 
[...]
  6 C s       :     2.875315  s :     2.875315
      pz      :     1.018101  p :     3.044297
      px      :     1.010833
      py      :     1.015362
      dz2     :     0.025448  d :     0.177907
      dxz     :     0.047052
      dyz     :     0.033221
      dx2y2   :     0.044048
      dxy     :     0.028139
  7 C s       :     2.872105  s :     2.872105
      pz      :     1.017116  p :     2.967135
      px      :     0.920570
      py      :     1.029448
      dz2     :     0.029640  d :     0.217713
      dxz     :     0.069109
      dyz     :     0.033490
      dx2y2   :     0.051843
      dxy     :     0.033631
  8 N s       :     3.176376  s :     3.176376
      pz      :     1.420472  p :     3.866594
      px      :     1.154239
      py      :     1.291882
      dz2     :     0.006908  d :     0.053063
      dxz     :     0.017976
      dyz     :     0.002498
      dx2y2   :     0.019878
      dxy     :     0.005804
  9 H s       :     0.862719  s :     0.862719
      pz      :     0.046984  p :     0.091865
      px      :     0.019311
      py      :     0.025569
 10 H s       :     0.868981  s :     0.868981
      pz      :     0.021084  p :     0.079514
      px      :     0.016220
      py      :     0.042210
 11 H s       :     0.866289  s :     0.866289
      pz      :     0.034125  p :     0.079698
      px      :     0.018946
      py      :     0.026627
 12 H s       :     0.881726  s :     0.881726
      pz      :     0.019685  p :     0.077998
      px      :     0.013658
      py      :     0.044654
 13 H s       :     0.897225  s :     0.897225
      pz      :     0.034740  p :     0.079038
      px      :     0.018675
      py      :     0.025622
 14 H s       :     0.810006  s :     0.810006
      pz      :     0.062377  p :     0.140684
      px      :     0.046976
      py      :     0.031331
 15 H s       :     0.808316  s :     0.808316
      pz      :     0.041879  p :     0.140757
      px      :     0.024845
      py      :     0.074034
 16 H s       :     0.755359  s :     0.755359
      pz      :     0.079744  p :     0.154366
      px      :     0.036601
      py      :     0.038020
 17 C s       :     2.842921  s :     2.842921
      pz      :     1.007739  p :     2.772339
      px      :     0.869529
      py      :     0.895071
      dz2     :     0.115111  d :     0.488068
      dxz     :     0.132915
      dyz     :     0.138558
      dx2y2   :     0.058110
      dxy     :     0.043375
 18 N s       :     3.062237  s :     3.062237
      pz      :     1.123376  p :     3.815436
      px      :     1.506951
      py      :     1.185110
      dz2     :     0.020995  d :     0.080342
      dxz     :     0.006055
      dyz     :     0.025036
      dx2y2   :     0.014173
      dxy     :     0.014083
 19 H s       :     0.774255  s :     0.774255
      pz      :     0.076970  p :     0.146569
      px      :     0.045872
      py      :     0.023727
 20 O s       :     3.585744  s :     3.585744
      pz      :     1.439659  p :     4.581412
      px      :     1.559260
      py      :     1.582493
      dz2     :     0.016815  d :     0.031873
      dxz     :     0.006531
      dyz     :     0.007725
      dx2y2   :     0.000414
      dxy     :     0.000387
 21 C s       :     2.871770  s :     2.871770
      pz      :     1.002504  p :     3.065183
      px      :     1.032064
      py      :     1.030616
      dz2     :     0.029128  d :     0.105746
      dxz     :     0.018518
      dyz     :     0.020922
      dx2y2   :     0.025259
      dxy     :     0.011920
 22 H s       :     0.864349  s :     0.864349
      pz      :     0.015916  p :     0.081592
      px      :     0.019230
      py      :     0.046445
 23 H s       :     0.864091  s :     0.864091
      pz      :     0.016908  p :     0.081568
      px      :     0.047004
      py      :     0.017655
 24 H s       :     0.884854  s :     0.884854
      pz      :     0.044123  p :     0.081433
      px      :     0.017773
      py      :     0.019537
 25 C s       :     2.857070  s :     2.857070
      pz      :     1.025290  p :     2.971036
      px      :     1.043118
      py      :     0.902628
      dz2     :     0.016067  d :     0.159909
      dxz     :     0.032052
      dyz     :     0.038191
      dx2y2   :     0.030871
      dxy     :     0.042727
 26 H s       :     0.884519  s :     0.884519
      pz      :     0.020131  p :     0.079264
      px      :     0.037986
      py      :     0.021148
 27 H s       :     0.888648  s :     0.888648
      pz      :     0.030034  p :     0.078685
      px      :     0.024661
      py      :     0.023990
 28 H s       :     0.874508  s :     0.874508
      pz      :     0.037585  p :     0.080634
      px      :     0.029036
      py      :     0.014014
 29 H s       :     0.850100  s :     0.850100
      pz      :     0.036531  p :     0.083115
      px      :     0.029865
      py      :     0.016719
 30 H s       :     0.873189  s :     0.873189
      pz      :     0.031761  p :     0.079443
      px      :     0.020722
      py      :     0.026961
 31 H s       :     0.849583  s :     0.849583
      pz      :     0.023790  p :     0.082925
      px      :     0.019514
      py      :     0.039621

SPIN
  0 N s       :    -0.000038  s :    -0.000038
      pz      :     0.000004  p :     0.001267
      px      :     0.000331
      py      :     0.000931
      dz2     :     0.000021  d :     0.000094
      dxz     :     0.000001
      dyz     :     0.000004
      dx2y2   :     0.000070
      dxy     :    -0.000002
  1 C s       :     0.001834  s :     0.001834
      pz      :     0.000365  p :     0.004818
      px      :     0.004330
      py      :     0.000122
      dz2     :    -0.000090  d :    -0.000182
      dxz     :     0.000077
      dyz     :     0.000117
      dx2y2   :    -0.000204
      dxy     :    -0.000082
  2 C s       :     0.002171  s :     0.002171
      pz      :     0.000050  p :     0.001721
      px      :     0.001620
      py      :     0.000052
      dz2     :     0.000253  d :     0.000673
      dxz     :     0.000017
      dyz     :    -0.000016
      dx2y2   :     0.000296
      dxy     :     0.000122
  3 O s       :     0.000757  s :     0.000757
      pz      :     0.000103  p :     0.002334
      px      :     0.001190
      py      :     0.001042
      dz2     :    -0.000000  d :     0.000001
      dxz     :     0.000000
      dyz     :    -0.000002
      dx2y2   :     0.000000
      dxy     :     0.000002
  4 C s       :    -0.003505  s :    -0.003505
      pz      :    -0.008812  p :    -0.022430
      px      :    -0.007616
      py      :    -0.006002
      dz2     :     0.000345  d :     0.035009
      dxz     :     0.005061
      dyz     :     0.017589
      dx2y2   :     0.000968
      dxy     :     0.011046
  5 C s       :     0.030699  s :     0.030699
      pz      :     0.033186  p :     0.795169
      px      :     0.057801
      py      :     0.704181
      dz2     :    -0.001099  d :    -0.003247
      dxz     :    -0.001317
      dyz     :     0.000957
      dx2y2   :    -0.001123
      dxy     :    -0.000666
  6 C s       :    -0.002378  s :    -0.002378
      pz      :    -0.004135  p :    -0.023217
      px      :    -0.013066
      py      :    -0.006016
      dz2     :     0.000974  d :     0.034357
      dxz     :     0.000930
      dyz     :     0.007263
      dx2y2   :     0.011104
      dxy     :     0.014087
  7 C s       :     0.002859  s :     0.002859
      pz      :     0.002921  p :     0.006035
      px      :     0.001778
      py      :     0.001336
      dz2     :    -0.000204  d :    -0.000614
      dxz     :    -0.000042
      dyz     :     0.000152
      dx2y2   :    -0.000278
      dxy     :    -0.000241
  8 N s       :    -0.000075  s :    -0.000075
      pz      :     0.000217  p :     0.001422
      px      :    -0.000356
      py      :     0.001561
      dz2     :     0.000017  d :     0.000060
      dxz     :    -0.000001
      dyz     :     0.000001
      dx2y2   :    -0.000005
      dxy     :     0.000048
  9 H s       :    -0.018638  s :    -0.018638
      pz      :     0.004018  p :     0.027376
      px      :     0.001630
      py      :     0.021727
 10 H s       :     0.044684  s :     0.044684
      pz      :    -0.000183  p :    -0.000683
      px      :     0.000127
      py      :    -0.000627
 11 H s       :     0.017968  s :     0.017968
      pz      :    -0.000406  p :    -0.000976
      px      :    -0.000353
      py      :    -0.000217
 12 H s       :    -0.000506  s :    -0.000506
      pz      :     0.000293  p :     0.000485
      px      :    -0.000022
      py      :     0.000214
 13 H s       :    -0.000386  s :    -0.000386
      pz      :     0.000046  p :     0.000206
      px      :     0.000140
      py      :     0.000019
 14 H s       :    -0.000158  s :    -0.000158
      pz      :     0.000004  p :     0.000134
      px      :    -0.000014
      py      :     0.000144
 15 H s       :     0.000157  s :     0.000157
      pz      :     0.000112  p :     0.000198
      px      :     0.000097
      py      :    -0.000011
 16 H s       :    -0.000018  s :    -0.000018
      pz      :     0.000006  p :     0.000063
      px      :     0.000004
      py      :     0.000053
 17 C s       :    -0.000027  s :    -0.000027
      pz      :     0.000134  p :    -0.000125
      px      :    -0.000283
      py      :     0.000024
      dz2     :     0.000011  d :     0.000347
      dxz     :     0.000207
      dyz     :    -0.000019
      dx2y2   :     0.000123
      dxy     :     0.000025
 18 N s       :     0.000239  s :     0.000239
      pz      :     0.000398  p :     0.000369
      px      :    -0.000198
      py      :     0.000169
      dz2     :     0.000008  d :     0.000002
      dxz     :    -0.000003
      dyz     :     0.000001
      dx2y2   :     0.000008
      dxy     :    -0.000012
 19 H s       :     0.000377  s :     0.000377
      pz      :     0.000027  p :     0.000149
      px      :     0.000006
      py      :     0.000116
 20 O s       :     0.000592  s :     0.000592
      pz      :     0.000155  p :     0.002429
      px      :     0.002262
      py      :     0.000011
      dz2     :    -0.000002  d :    -0.000003
      dxz     :    -0.000003
      dyz     :    -0.000001
      dx2y2   :     0.000003
      dxy     :     0.000001
 21 C s       :    -0.000009  s :    -0.000009
      pz      :     0.000017  p :     0.000020
      px      :     0.000006
      py      :    -0.000002
      dz2     :    -0.000000  d :     0.000002
      dxz     :    -0.000003
      dyz     :    -0.000000
      dx2y2   :     0.000004
      dxy     :     0.000001
 22 H s       :     0.000002  s :     0.000002
      pz      :    -0.000001  p :    -0.000002
      px      :    -0.000000
      py      :    -0.000001
 23 H s       :    -0.000008  s :    -0.000008
      pz      :     0.000000  p :     0.000002
      px      :     0.000002
      py      :    -0.000000
 24 H s       :     0.000027  s :     0.000027
      pz      :    -0.000002  p :    -0.000002
      px      :     0.000000
      py      :    -0.000001
 25 C s       :     0.000335  s :     0.000335
      pz      :     0.000012  p :     0.000046
      px      :    -0.000006
      py      :     0.000040
      dz2     :     0.000009  d :     0.000014
      dxz     :    -0.000002
      dyz     :     0.000002
      dx2y2   :     0.000019
      dxy     :    -0.000014
 26 H s       :    -0.000012  s :    -0.000012
      pz      :     0.000000  p :     0.000005
      px      :     0.000005
      py      :     0.000001
 27 H s       :     0.000014  s :     0.000014
      pz      :     0.000000  p :    -0.000001
      px      :    -0.000001
      py      :    -0.000001
 28 H s       :    -0.000001  s :    -0.000001
      pz      :     0.000006  p :     0.000016
      px      :     0.000010
      py      :     0.000000
 29 H s       :    -0.000294  s :    -0.000294
      pz      :     0.000002  p :     0.000155
      px      :     0.000168
      py      :    -0.000015
 30 H s       :     0.018951  s :     0.018951
      pz      :    -0.000675  p :    -0.000854
      px      :    -0.000261
      py      :     0.000083
 31 H s       :     0.042730  s :     0.042730
      pz      :    -0.000312  p :    -0.000983
      px      :    -0.000089
      py      :    -0.000582


                      *****************************
                      * MAYER POPULATION ANALYSIS *
                      *****************************

  NA   - Mulliken gross atomic population
  ZA   - Total nuclear charge
  QA   - Mulliken gross atomic charge
  VA   - Mayer's total valence
  BVA  - Mayer's bonded valence
  FA   - Mayer's free valence

  ATOM       NA         ZA         QA         VA         BVA        FA
  0 N      7.1111     7.0000    -0.1111     3.2721     3.2721    -0.0000
  1 C      6.1448     6.0000    -0.1448     4.1301     4.1300     0.0001
  2 C      5.8805     6.0000     0.1195     4.0238     4.0236     0.0002
  3 O      8.3360     8.0000    -0.3360     2.1044     2.1044    -0.0000
  4 C      6.2711     6.0000    -0.2711     3.9261     3.9239     0.0022
  5 C      6.0779     6.0000    -0.0779     3.8676     3.1005     0.7670
  6 C      6.3163     6.0000    -0.3163     3.9394     3.9367     0.0027
  7 C      6.2860     6.0000    -0.2860     3.9124     3.9124     0.0001
  8 N      7.4586     7.0000    -0.4586     2.9631     2.9631     0.0000
  9 H      0.8732     1.0000     0.1268     0.9825     0.9796     0.0029
 10 H      0.8525     1.0000     0.1475     0.9647     0.9615     0.0031
 11 H      0.8373     1.0000     0.1627     0.9661     0.9657     0.0004
 12 H      0.8342     1.0000     0.1658     0.9524     0.9524     0.0000
 13 H      0.8642     1.0000     0.1358     0.9484     0.9484     0.0000
 14 H      0.7902     1.0000     0.2098     0.9589     0.9589     0.0000
 15 H      0.7900     1.0000     0.2100     0.9610     0.9610     0.0000
 16 H      0.7486     1.0000     0.2514     0.9708     0.9708     0.0000
 17 C      5.8243     6.0000     0.1757     3.9656     3.9656     0.0000
 18 N      7.1039     7.0000    -0.1039     3.2138     3.2138     0.0000
 19 H      0.7666     1.0000     0.2334     0.9626     0.9626     0.0000
 20 O      8.3281     8.0000    -0.3281     2.1137     2.1137     0.0000
 21 C      6.5544     6.0000    -0.5544     3.8593     3.8593     0.0000
 22 H      0.8150     1.0000     0.1850     0.9591     0.9591     0.0000
 23 H      0.8138     1.0000     0.1862     0.9588     0.9588     0.0000
 24 H      0.8512     1.0000     0.1488     0.9714     0.9714     0.0000
 25 C      6.4427     6.0000    -0.4427     3.9406     3.9406     0.0000
 26 H      0.8232     1.0000     0.1768     0.9494     0.9494     0.0000
 27 H      0.8555     1.0000     0.1445     0.9668     0.9668    -0.0000
 28 H      0.8116     1.0000     0.1884     0.9534     0.9534     0.0000
 29 H      0.8445     1.0000     0.1555     0.9527     0.9527     0.0000
 30 H      0.8732     1.0000     0.1268     0.9726     0.9721     0.0005
 31 H      0.8194     1.0000     0.1806     0.9604     0.9577     0.0027

  Mayer bond orders larger than 0.100000
B(  0-N ,  1-C ) :   1.0319 B(  0-N , 16-H ) :   0.8910 B(  0-N , 17-C ) :   1.2075 
B(  1-C ,  2-C ) :   0.9059 B(  1-C ,  4-C ) :   0.9399 B(  1-C , 20-O ) :   0.1425 
B(  1-C , 29-H ) :   0.9716 B(  2-C ,  3-O ) :   1.8333 B(  2-C , 18-N ) :   1.2142 
B(  4-C ,  5-C ) :   0.9831 B(  4-C , 30-H ) :   0.9715 B(  4-C , 31-H ) :   0.9437 
B(  5-C ,  6-C ) :   0.9724 B(  5-C ,  9-H ) :   0.9913 B(  6-C ,  7-C ) :   0.9608 
B(  6-C , 10-H ) :   0.9585 B(  6-C , 11-H ) :   0.9654 B(  7-C ,  8-N ) :   1.0118 
B(  7-C , 12-H ) :   0.9579 B(  7-C , 13-H ) :   0.9436 B(  8-N , 14-H ) :   0.9440 
B(  8-N , 15-H ) :   0.9478 B( 17-C , 20-O ) :   1.8563 B( 17-C , 21-C ) :   0.8934 
B( 18-N , 19-H ) :   0.9347 B( 18-N , 25-C ) :   0.9653 B( 21-C , 22-H ) :   0.9591 
B( 21-C , 23-H ) :   0.9588 B( 21-C , 24-H ) :   0.9758 B( 25-C , 26-H ) :   0.9535 
B( 25-C , 27-H ) :   0.9671 B( 25-C , 28-H ) :   0.9489 

-------
TIMINGS
-------

Total SCF time: 0 days 0 hours 0 min 18 sec 

Total time                  ....      18.578 sec
Sum of individual times     ....      17.802 sec  ( 95.8%)

Fock matrix formation       ....      15.624 sec  ( 84.1%)
  Split-RI-J                ....       1.201 sec  (  7.7% of F)
  Chain of spheres X        ....      11.148 sec  ( 71.4% of F)
  XC integration            ....       2.931 sec  ( 18.8% of F)
    Basis function eval.    ....       0.315 sec  ( 10.8% of XC)
    Density eval.           ....       0.440 sec  ( 15.0% of XC)
    XC-Functional eval.     ....       0.074 sec  (  2.5% of XC)
    XC-Potential eval.      ....       0.276 sec  (  9.4% of XC)
Diagonalization             ....       0.497 sec  (  2.7%)
Density matrix formation    ....       0.023 sec  (  0.1%)
Population analysis         ....       0.068 sec  (  0.4%)
Initial guess               ....       0.054 sec  (  0.3%)
Orbital Transformation      ....       0.000 sec  (  0.0%)
Orbital Orthonormalization  ....       0.041 sec  (  0.2%)
DIIS solution               ....       0.251 sec  (  1.4%)
Grid generation             ....       1.285 sec  (  6.9%)

Maximum memory used throughout the entire SCF-calculation: 83.8 MB

-------------------------   --------------------
FINAL SINGLE POINT ENERGY      -668.218298549670
-------------------------   --------------------

                                *** OPTIMIZATION RUN DONE ***

                            ***************************************
                            *     ORCA property calculations      *
                            ***************************************

                                    ---------------------
                                    Active property flags
                                    ---------------------
   (+) Dipole Moment


------------------------------------------------------------------------------
                       ORCA ELECTRIC PROPERTIES CALCULATION
------------------------------------------------------------------------------

Dipole Moment Calculation                       ... on
Quadrupole Moment Calculation                   ... off
Polarizability Calculation                      ... off
GBWName                                         ... opt.gbw
Electron density                                ... opt.scfp
The origin for moment calculation is the CENTER OF MASS  = ( 0.092803,  0.016801 -0.026806)

-------------
DIPOLE MOMENT
-------------
                                X             Y             Z
Electronic contribution:      9.92300       1.43279      -1.00888
Nuclear contribution   :    -10.59094      -0.79078       1.27181
                        -----------------------------------------
Total Dipole Moment    :     -0.66793       0.64201       0.26293
                        -----------------------------------------
Magnitude (a.u.)       :      0.96304
Magnitude (Debye)      :      2.44785



--------------------
Rotational spectrum 
--------------------
 
Rotational constants in cm-1:     0.021101     0.012722     0.009061 
Rotational constants in MHz :   632.606217   381.391096   271.638687 

 Dipole components along the rotational axes: 
x,y,z [a.u.] :    -0.669451     0.655692     0.222142 
x,y,z [Debye]:    -1.701610     1.666637     0.564641 

 

Timings for individual modules:

Sum of individual times         ...      342.430 sec (=   5.707 min)
GTO integral calculation        ...       28.540 sec (=   0.476 min)   8.3 %
SCF iterations                  ...      233.964 sec (=   3.899 min)  68.3 %
SCF Gradient evaluation         ...       79.450 sec (=   1.324 min)  23.2 %
Geometry relaxation             ...        0.475 sec (=   0.008 min)   0.1 %
                             ****ORCA TERMINATED NORMALLY****
TOTAL RUN TIME: 0 days 0 hours 6 minutes 6 seconds 750 msec
