
                                 *****************
                                 * O   R   C   A *
                                 *****************

                                            #,                                       
                                            ###                                      
                                            ####                                     
                                            #####                                    
                                            ######                                   
                                           ########,                                 
                                     ,,################,,,,,                         
                               ,,#################################,,                 
                          ,,##########################################,,             
                       ,#########################################, ''#####,          
                    ,#############################################,,   '####,        
                  ,##################################################,,,,####,       
                ,###########''''           ''''###############################       
              ,#####''   ,,,,##########,,,,          '''####'''          '####       
            ,##' ,,,,###########################,,,                        '##       
           ' ,,###''''                  '''############,,,                           
         ,,##''                                '''############,,,,        ,,,,,,###''
      ,#''                                            '''#######################'''  
     '                                                          ''''####''''         
             ,#######,   #######,   ,#######,      ##                                
            ,#'     '#,  ##    ##  ,#'     '#,    #''#        ######   ,####,        
            ##       ##  ##   ,#'  ##            #'  '#       #        #'  '#        
            ##       ##  #######   ##           ,######,      #####,   #    #        
            '#,     ,#'  ##    ##  '#,     ,#' ,#      #,         ##   #,  ,#        
             '#######'   ##     ##  '#######'  #'      '#     #####' # '####'        



                  #######################################################
                  #                        -***-                        #
                  #          Department of theory and spectroscopy      #
                  #    Directorship and core code : Frank Neese         #
                  #        Max Planck Institute fuer Kohlenforschung    #
                  #                Kaiser Wilhelm Platz 1               #
                  #                 D-45470 Muelheim/Ruhr               #
                  #                      Germany                        #
                  #                                                     #
                  #                  All rights reserved                #
                  #                        -***-                        #
                  #######################################################


                         Program Version 5.0.4 -  RELEASE  -


 With contributions from (in alphabetic order):
   Daniel Aravena         : Magnetic Suceptibility
   Michael Atanasov       : Ab Initio Ligand Field Theory (pilot matlab implementation)
   Alexander A. Auer      : GIAO ZORA, VPT2 properties, NMR spectrum
   Ute Becker             : Parallelization
   Giovanni Bistoni       : ED, misc. LED, open-shell LED, HFLD
   Martin Brehm           : Molecular dynamics
   Dmytro Bykov           : SCF Hessian
   Vijay G. Chilkuri      : MRCI spin determinant printing, contributions to CSF-ICE
   Dipayan Datta          : RHF DLPNO-CCSD density
   Achintya Kumar Dutta   : EOM-CC, STEOM-CC
   Dmitry Ganyushin       : Spin-Orbit,Spin-Spin,Magnetic field MRCI
   Miquel Garcia          : C-PCM and meta-GGA Hessian, CC/C-PCM, Gaussian charge scheme
   Yang Guo               : DLPNO-NEVPT2, F12-NEVPT2, CIM, IAO-localization
   Andreas Hansen         : Spin unrestricted coupled pair/coupled cluster methods
   Benjamin Helmich-Paris : MC-RPA, TRAH-SCF, COSX integrals
   Lee Huntington         : MR-EOM, pCC
   Robert Izsak           : Overlap fitted RIJCOSX, COSX-SCS-MP3, EOM
   Marcus Kettner         : VPT2
   Christian Kollmar      : KDIIS, OOCD, Brueckner-CCSD(T), CCSD density, CASPT2, CASPT2-K
   Simone Kossmann        : Meta GGA functionals, TD-DFT gradient, OOMP2, MP2 Hessian
   Martin Krupicka        : Initial AUTO-CI
   Lucas Lang             : DCDCAS
   Marvin Lechner         : AUTO-CI (C++ implementation), FIC-MRCC
   Dagmar Lenk            : GEPOL surface, SMD
   Dimitrios Liakos       : Extrapolation schemes; Compound Job, initial MDCI parallelization
   Dimitrios Manganas     : Further ROCIS development; embedding schemes
   Dimitrios Pantazis     : SARC Basis sets
   Anastasios Papadopoulos: AUTO-CI, single reference methods and gradients
   Taras Petrenko         : DFT Hessian,TD-DFT gradient, ASA, ECA, R-Raman, ABS, FL, XAS/XES, NRVS
   Peter Pinski           : DLPNO-MP2, DLPNO-MP2 Gradient
   Christoph Reimann      : Effective Core Potentials
   Marius Retegan         : Local ZFS, SOC
   Christoph Riplinger    : Optimizer, TS searches, QM/MM, DLPNO-CCSD(T), (RO)-DLPNO pert. Triples
   Tobias Risthaus        : Range-separated hybrids, TD-DFT gradient, RPA, STAB
   Michael Roemelt        : Original ROCIS implementation
   Masaaki Saitow         : Open-shell DLPNO-CCSD energy and density
   Barbara Sandhoefer     : DKH picture change effects
   Avijit Sen             : IP-ROCIS
   Kantharuban Sivalingam : CASSCF convergence, NEVPT2, FIC-MRCI
   Bernardo de Souza      : ESD, SOC TD-DFT
   Georgi Stoychev        : AutoAux, RI-MP2 NMR, DLPNO-MP2 response
   Willem Van den Heuvel  : Paramagnetic NMR
   Boris Wezisla          : Elementary symmetry handling
   Frank Wennmohs         : Technical directorship


 We gratefully acknowledge several colleagues who have allowed us to
 interface, adapt or use parts of their codes:
   Stefan Grimme, W. Hujo, H. Kruse, P. Pracht,  : VdW corrections, initial TS optimization,
                  C. Bannwarth, S. Ehlert          DFT functionals, gCP, sTDA/sTD-DF
   Ed Valeev, F. Pavosevic, A. Kumar             : LibInt (2-el integral package), F12 methods
   Garnet Chan, S. Sharma, J. Yang, R. Olivares  : DMRG
   Ulf Ekstrom                                   : XCFun DFT Library
   Mihaly Kallay                                 : mrcc  (arbitrary order and MRCC methods)
   Jiri Pittner, Ondrej Demel                    : Mk-CCSD
   Frank Weinhold                                : gennbo (NPA and NBO analysis)
   Christopher J. Cramer and Donald G. Truhlar   : smd solvation model
   Lars Goerigk                                  : TD-DFT with DH, B97 family of functionals
   V. Asgeirsson, H. Jonsson                     : NEB implementation
   FAccTs GmbH                                   : IRC, NEB, NEB-TS, DLPNO-Multilevel, CI-OPT
                                                   MM, QMMM, 2- and 3-layer-ONIOM, Crystal-QMMM,
                                                   LR-CPCM, SF, NACMEs, symmetry and pop. for TD-DFT,
                                                   nearIR, NL-DFT gradient (VV10), updates on ESD,
                                                   ML-optimized integration grids
   S Lehtola, MJT Oliveira, MAL Marques          : LibXC Library
   Liviu Ungur et al                             : ANISO software


 Your calculation uses the libint2 library for the computation of 2-el integrals
 For citations please refer to: http://libint.valeyev.net

 Your ORCA version has been built with support for libXC version: 5.1.0
 For citations please refer to: https://tddft.org/programs/libxc/

 This ORCA versions uses:
   CBLAS   interface :  Fast vector & matrix operations
   LAPACKE interface :  Fast linear algebra routines
   SCALAPACK package :  Parallel linear algebra routines
   Shared memory     :  Shared parallel matrices
   BLAS/LAPACK       :  OpenBLAS 0.3.15  USE64BITINT DYNAMIC_ARCH NO_AFFINITY Zen SINGLE_THREADED
        Core in use  :  Zen
   Copyright (c) 2011-2014, The OpenBLAS Project




***************************************
The coordinates will be read from file: opt.xyz
***************************************


XCFun DFT library Copyright 2009-2010 Ulf Ekstrom and contributors.
See http://admol.org/xcfun for more information.
This is free software; see the source code for copying conditions.
There is ABSOLUTELY NO WARRANTY; not even for MERCHANTABILITY or FITNESS FOR A PARTICULAR PURPOSE.
For details see the documentation.
Scientific users of this library should cite U. Ekstrom, L. Visscher, R. Bast, A. J. Thorvaldsen and K. Ruud;
J.Chem.Theor.Comp. 2010, DOI: 10.1021/ct100117s
XCFun Version 0.99 

================================================================================

----- Orbital basis set information -----
Your calculation utilizes the basis: def2-TZVP
   F. Weigend and R. Ahlrichs, Phys. Chem. Chem. Phys. 7, 3297 (2005).

----- AuxJ basis set information -----
Your calculation utilizes the auxiliary basis: def2/J
   F. Weigend, Phys. Chem. Chem. Phys. 8, 1057 (2006).

================================================================================
                                        WARNINGS
                       Please study these warnings very carefully!
================================================================================


WARNING: your system is open-shell and RHF/RKS was chosen
  ===> : WILL SWITCH to UHF/UKS


WARNING: Geometry Optimization
  ===> : Switching off AutoStart
         For restart on a previous wavefunction, please use MOREAD

WARNING: Minnesota functionals are quite sensitive to the integration grid.
         see SE Wheeler, KN Houk, JCTC 2010, 6, 395,
             N Mardirossian, M Head-Gordon, JCTC 2016, 12, 4303.
         DEFGRID3 seems to be a minimum grid for reliable results with these functionals!
  ===> : Please increase the integration grid!


INFO   : the flag for use of the SHARK integral package has been found!

================================================================================
                                       INPUT FILE
================================================================================
NAME = freq.inp
|  1> ! M062X def2-TZVP OPT FREQ
|  2> %pal nprocs 16 end
|  3> *XYZFile 0 2 opt.xyz
|  4> 
|  5>                          ****END OF INPUT****
================================================================================

                       *****************************
                       * Geometry Optimization Run *
                       *****************************

Geometry optimization settings:
Update method            Update   .... BFGS
Choice of coordinates    CoordSys .... Z-matrix Internals
Initial Hessian          InHess   .... Almoef's Model

Convergence Tolerances:
Energy Change            TolE     ....  5.0000e-06 Eh
Max. Gradient            TolMAXG  ....  3.0000e-04 Eh/bohr
RMS Gradient             TolRMSG  ....  1.0000e-04 Eh/bohr
Max. Displacement        TolMAXD  ....  4.0000e-03 bohr
RMS Displacement         TolRMSD  ....  2.0000e-03 bohr
Strict Convergence                ....  False
------------------------------------------------------------------------------
                        ORCA OPTIMIZATION COORDINATE SETUP
------------------------------------------------------------------------------

The optimization will be done in new redundant internal coordinates
Making redundant internal coordinates   ...  (new redundants) done
Evaluating the initial hessian          ...  (Almloef) done
Evaluating the coordinates              ...  done
Calculating the B-matrix                .... done
Calculating the G-matrix                .... done
Diagonalizing the G-matrix              .... done
Small eigenvalue found = 1.047e-02
Small eigenvalue found = 1.270e-02
Small eigenvalue found = 1.458e-02
The first mode is                       ....   52
The number of degrees of freedom        ....   75

    -----------------------------------------------------------------
                    Redundant Internal Coordinates


    -----------------------------------------------------------------
         Definition                    Initial Value    Approx d2E/dq
    -----------------------------------------------------------------
      1. B(C   1,N   0)                  1.4524         0.444982   
      2. B(C   2,C   1)                  1.5431         0.356069   
      3. B(O   3,C   2)                  1.2330         0.996080   
      4. B(C   4,C   1)                  1.5535         0.342657   
      5. B(C   5,C   4)                  1.5408         0.359103   
      6. B(C   6,C   5)                  1.5059         0.408223   
      7. B(O   7,C   6)                  1.2633         0.891216   
      8. B(O   8,C   6)                  1.2691         0.872527   
      9. B(H   9,N   0)                  1.0123         0.429068   
     10. B(H  10,C   1)                  1.0966         0.351464   
     11. B(C  11,N   0)                  1.3706         0.600997   
     12. B(N  12,C   2)                  1.3624         0.619395   
     13. B(H  13,N  12)                  1.0091         0.434155   
     14. B(O  14,C  11)                  1.2307         1.004567   
     15. B(C  15,C  11)                  1.5247         0.380962   
     16. B(H  16,C  15)                  1.0938         0.355071   
     17. B(H  17,C  15)                  1.0929         0.356343   
     18. B(H  18,C  15)                  1.0932         0.355910   
     19. B(C  19,N  12)                  1.4606         0.431758   
     20. B(H  20,C  19)                  1.0953         0.353176   
     21. B(H  21,C  19)                  1.0941         0.354774   
     22. B(H  22,C  19)                  1.0899         0.360180   
     23. B(H  23,C   4)                  1.0947         0.353890   
     24. B(H  24,C   4)                  1.0935         0.355440   
     25. B(H  25,C   5)                  1.0984         0.349197   
     26. B(H  26,C   5)                  1.0941         0.354659   
     27. A(C   1,N   0,H   9)          115.3782         0.338687   
     28. A(H   9,N   0,C  11)          121.6809         0.356264   
     29. A(C   1,N   0,C  11)          121.9346         0.401652   
     30. A(C   2,C   1,C   4)          111.3944         0.355133   
     31. A(N   0,C   1,H  10)          108.4598         0.330477   
     32. A(N   0,C   1,C   4)          112.7654         0.366601   
     33. A(C   4,C   1,H  10)          107.0815         0.318498   
     34. A(N   0,C   1,C   2)          107.1724         0.369024   
     35. A(C   2,C   1,H  10)          109.9330         0.320501   
     36. A(C   1,C   2,O   3)          121.1640         0.425049   
     37. A(O   3,C   2,N  12)          123.7260         0.466775   
     38. A(C   1,C   2,N  12)          115.0730         0.390788   
     39. A(C   5,C   4,H  23)          109.7922         0.321307   
     40. A(C   1,C   4,H  23)          109.1763         0.318856   
     41. A(C   1,C   4,C   5)          113.1989         0.355644   
     42. A(H  23,C   4,H  24)          107.1534         0.289455   
     43. A(C   1,C   4,H  24)          107.3277         0.319083   
     44. A(C   5,C   4,H  24)          109.9893         0.321537   
     45. A(C   6,C   5,H  25)          106.2871         0.327426   
     46. A(C   4,C   5,C   6)          112.4809         0.366423   
     47. A(C   6,C   5,H  26)          108.1886         0.328265   
     48. A(C   4,C   5,H  26)          111.6611         0.321422   
     49. A(C   4,C   5,H  25)          111.2277         0.320606   
     50. A(H  25,C   5,H  26)          106.6709         0.288750   
     51. A(C   5,C   6,O   7)          124.5803         0.426990   
     52. A(O   7,C   6,O   8)          111.6376         0.487089   
     53. A(C   5,C   6,O   8)          123.7660         0.425372   
     54. A(O  14,C  11,C  15)          122.1369         0.430884   
     55. A(N   0,C  11,C  15)          115.7951         0.393356   
     56. A(N   0,C  11,O  14)          122.0618         0.464926   
     57. A(H  13,N  12,C  19)          118.4998         0.337651   
     58. A(C   2,N  12,C  19)          123.1794         0.401651   
     59. A(C   2,N  12,H  13)          118.1125         0.358813   
     60. A(H  17,C  15,H  18)          109.4741         0.289828   
     61. A(H  16,C  15,H  18)          109.1347         0.289666   
     62. A(C  11,C  15,H  18)          113.5263         0.324739   
     63. A(H  16,C  15,H  17)          107.5688         0.289721   
     64. A(C  11,C  15,H  17)          108.4128         0.324804   
     65. A(C  11,C  15,H  16)          108.5524         0.324613   
     66. A(N  12,C  19,H  21)          110.4813         0.329343   
     67. A(N  12,C  19,H  20)          111.0975         0.329098   
     68. A(H  21,C  19,H  22)          109.3354         0.290170   
     69. A(H  20,C  19,H  22)          108.8583         0.289965   
     70. A(N  12,C  19,H  22)          107.8876         0.330167   
     71. A(H  20,C  19,H  21)          109.1418         0.289278   
     72. D(H  10,C   1,N   0,C  11)    -37.2837         0.016887   
     73. D(C   2,C   1,N   0,H   9)     12.7740         0.016887   
     74. D(H  10,C   1,N   0,H   9)    131.4163         0.016887   
     75. D(C   4,C   1,N   0,H   9)   -110.1650         0.016887   
     76. D(C   2,C   1,N   0,C  11)   -155.9260         0.016887   
     77. D(C   4,C   1,N   0,C  11)     81.1351         0.016887   
     78. D(O   3,C   2,C   1,N   0)    -20.0997         0.009551   
     79. D(N  12,C   2,C   1,N   0)    162.0334         0.009551   
     80. D(O   3,C   2,C   1,C   4)    103.6840         0.009551   
     81. D(N  12,C   2,C   1,H  10)     44.3492         0.009551   
     82. D(O   3,C   2,C   1,H  10)   -137.7839         0.009551   
     83. D(N  12,C   2,C   1,C   4)    -74.1830         0.009551   
     84. D(C   5,C   4,C   1,N   0)     59.4385         0.009494   
     85. D(C   5,C   4,C   1,C   2)    -61.1122         0.009494   
     86. D(H  24,C   4,C   1,C   2)    177.3332         0.009494   
     87. D(C   5,C   4,C   1,H  10)    178.6601         0.009494   
     88. D(H  24,C   4,C   1,N   0)    -62.1161         0.009494   
     89. D(H  23,C   4,C   1,H  10)    -58.7184         0.009494   
     90. D(H  23,C   4,C   1,C   2)     61.5093         0.009494   
     91. D(H  24,C   4,C   1,H  10)     57.1055         0.009494   
     92. D(H  23,C   4,C   1,N   0)   -177.9400         0.009494   
     93. D(H  26,C   5,C   4,H  24)     56.0172         0.010349   
     94. D(H  26,C   5,C   4,H  23)    173.6915         0.010349   
     95. D(H  26,C   5,C   4,C   1)    -64.0297         0.010349   
     96. D(H  25,C   5,C   4,H  24)    175.0566         0.010349   
     97. D(H  25,C   5,C   4,H  23)    -67.2691         0.010349   
     98. D(H  25,C   5,C   4,C   1)     55.0097         0.010349   
     99. D(C   6,C   5,C   4,H  24)    -65.8425         0.010349   
    100. D(C   6,C   5,C   4,H  23)     51.8318         0.010349   
    101. D(C   6,C   5,C   4,C   1)    174.1106         0.010349   
    102. D(O   7,C   6,C   5,C   4)    -30.0266         0.012346   
    103. D(O   8,C   6,C   5,H  26)     27.7437         0.012346   
    104. D(O   8,C   6,C   5,H  25)    -86.4979         0.012346   
    105. D(O   8,C   6,C   5,C   4)    151.5544         0.012346   
    106. D(O   7,C   6,C   5,H  26)   -153.8373         0.012346   
    107. D(O   7,C   6,C   5,H  25)     91.9211         0.012346   
    108. D(C  15,C  11,N   0,H   9)      7.8803         0.029112   
    109. D(C  15,C  11,N   0,C   1)    175.8729         0.029112   
    110. D(O  14,C  11,N   0,H   9)   -173.0026         0.029112   
    111. D(O  14,C  11,N   0,C   1)     -5.0100         0.029112   
    112. D(C  19,N  12,C   2,O   3)      1.1220         0.031061   
    113. D(C  19,N  12,C   2,C   1)    178.9274         0.031061   
    114. D(H  13,N  12,C   2,O   3)    175.7916         0.031061   
    115. D(H  13,N  12,C   2,C   1)     -6.4030         0.031061   
    116. D(H  18,C  15,C  11,O  14)    174.7639         0.010826   
    117. D(H  18,C  15,C  11,N   0)     -6.1198         0.010826   
    118. D(H  17,C  15,C  11,O  14)     52.8829         0.010826   
    119. D(H  17,C  15,C  11,N   0)   -128.0008         0.010826   
    120. D(H  16,C  15,C  11,O  14)    -63.6878         0.010826   
    121. D(H  16,C  15,C  11,N   0)    115.4285         0.010826   
    122. D(H  22,C  19,N  12,H  13)    175.9774         0.015893   
    123. D(H  22,C  19,N  12,C   2)     -9.3725         0.015893   
    124. D(H  21,C  19,N  12,H  13)     56.5090         0.015893   
    125. D(H  21,C  19,N  12,C   2)   -128.8410         0.015893   
    126. D(H  20,C  19,N  12,H  13)    -64.7757         0.015893   
    127. D(H  20,C  19,N  12,C   2)    109.8744         0.015893   
    -----------------------------------------------------------------

Number of atoms                         .... 27
Number of degrees of freedom            .... 127

         *************************************************************
         *                GEOMETRY OPTIMIZATION CYCLE   1            *
         *************************************************************
---------------------------------
CARTESIAN COORDINATES (ANGSTROEM)
---------------------------------
  N     -4.429999   -4.617090   -0.718484
  C     -2.978422   -4.656573   -0.690345
  C     -2.550999   -4.644616    0.792293
  O     -3.315962   -4.246701    1.673703
  C     -2.329809   -3.484164   -1.476582
  C     -2.731854   -2.097211   -0.939323
  C     -1.986971   -0.978533   -1.618522
  O     -0.819021   -1.077209   -2.089835
  O     -2.451610    0.193810   -1.761048
  H     -4.874945   -4.388446    0.161569
  H     -2.647050   -5.586678   -1.167467
  C     -5.147502   -5.089139   -1.786578
  N     -1.274125   -5.056798    1.028376
  H     -0.743117   -5.426850    0.254194
  O     -4.601908   -5.487975   -2.815148
  C     -6.663784   -5.069358   -1.628098
  H     -7.081494   -4.375212   -2.363040
  H     -7.048104   -6.065814   -1.859845
  H     -6.994254   -4.774649   -0.628602
  C     -0.679754   -5.093630    2.362060
  H     -0.534921   -6.125099    2.700799
  H      0.284114   -4.576039    2.366035
  H     -1.362370   -4.590509    3.046803
  H     -1.240690   -3.591219   -1.448258
  H     -2.636593   -3.583605   -2.521492
  H     -2.512078   -2.007113    0.133056
  H     -3.804181   -1.914035   -1.056437

----------------------------
CARTESIAN COORDINATES (A.U.)
----------------------------
  NO LB      ZA    FRAG     MASS         X           Y           Z
   0 N     7.0000    0    14.007   -8.371484   -8.725036   -1.357739
   1 C     6.0000    0    12.011   -5.628402   -8.799647   -1.304562
   2 C     6.0000    0    12.011   -4.820689   -8.777052    1.497217
   3 O     8.0000    0    15.999   -6.266260   -8.025101    3.162840
   4 C     6.0000    0    12.011   -4.402702   -6.584115   -2.790336
   5 C     6.0000    0    12.011   -5.162457   -3.963155   -1.775063
   6 C     6.0000    0    12.011   -3.754832   -1.849160   -3.058563
   7 O     8.0000    0    15.999   -1.547726   -2.035630   -3.949216
   8 O     8.0000    0    15.999   -4.632872    0.366247   -3.327899
   9 H     1.0000    0     1.008   -9.212310   -8.292960    0.305322
  10 H     1.0000    0     1.008   -5.002199  -10.557291   -2.206193
  11 C     6.0000    0    12.011   -9.727369   -9.617079   -3.376144
  12 N     7.0000    0    14.007   -2.407748   -9.555964    1.943348
  13 H     1.0000    0     1.008   -1.404289  -10.255261    0.480356
  14 O     8.0000    0    15.999   -8.696347  -10.370770   -5.319859
  15 C     6.0000    0    12.011  -12.592726   -9.579699   -3.076659
  16 H     1.0000    0     1.008  -13.382085   -8.267953   -4.465498
  17 H     1.0000    0     1.008  -13.318986  -11.462727   -3.514597
  18 H     1.0000    0     1.008  -13.217225   -9.022778   -1.187886
  19 C     6.0000    0    12.011   -1.284550   -9.625566    4.463646
  20 H     1.0000    0     1.008   -1.010854  -11.574759    5.103770
  21 H     1.0000    0     1.008    0.536898   -8.647461    4.471159
  22 H     1.0000    0     1.008   -2.574506   -8.674805    5.757624
  23 H     1.0000    0     1.008   -2.344564   -6.786420   -2.736812
  24 H     1.0000    0     1.008   -4.982439   -6.772033   -4.764929
  25 H     1.0000    0     1.008   -4.747139   -3.792894    0.251440
  26 H     1.0000    0     1.008   -7.188860   -3.617002   -1.996376

--------------------------------
INTERNAL COORDINATES (ANGSTROEM)
--------------------------------
 N      0   0   0     0.000000000000     0.00000000     0.00000000
 C      1   0   0     1.452385983401     0.00000000     0.00000000
 C      2   1   0     1.543064479538   107.17237410     0.00000000
 O      3   2   1     1.233040453678   121.16397568   339.90032365
 C      2   1   3     1.553515350907   112.76539709   237.06104658
 C      5   2   1     1.540754790824   113.19887727    59.43851008
 C      6   5   2     1.505856069391   112.48091491   174.11061019
 O      7   6   5     1.263321474745   124.58027655   329.97338740
 O      7   6   5     1.269090581164   123.76601415   151.55437993
 H      1   2   3     1.012299305782   115.37820216    12.77396098
 H      2   1   3     1.096607798619   108.45975158   118.64229643
 C      1   2   3     1.370571573414   121.93462001   204.07400558
 N      3   2   1     1.362363737846   115.07302738   162.03336602
 H     13   3   2     1.009091501335   118.11249022   353.59696744
 O     12   1   2     1.230731062752   122.06183894   354.98995335
 C     12   1   2     1.524669480290   115.79510473   175.87288398
 H     16  12   1     1.093828434589   108.55238599   115.42852026
 H     16  12   1     1.092854946215   108.41275415   231.99923641
 H     16  12   1     1.093185932913   113.52634995   353.88024548
 C     13   3   2     1.460597979172   123.17936533   178.92742013
 H     20  13   3     1.095284765230   111.09747836   109.87439706
 H     20  13   3     1.094056129456   110.48128843   231.15902344
 H     20  13   3     1.089939655190   107.88764779   350.62748798
 H      5   2   1     1.094735069478   109.17631246   182.05999606
 H      5   2   1     1.093545268959   107.32772613   297.88385661
 H      6   5   2     1.098369573242   111.22772130    55.00967371
 H      6   5   2     1.094144716408   111.66111836   295.97028029

---------------------------
INTERNAL COORDINATES (A.U.)
---------------------------
 N      0   0   0     0.000000000000     0.00000000     0.00000000
 C      1   0   0     2.744611749374     0.00000000     0.00000000
 C      2   1   0     2.915969273308   107.17237410     0.00000000
 O      3   2   1     2.330108769498   121.16397568   339.90032365
 C      2   1   3     2.935718558057   112.76539709   237.06104658
 C      5   2   1     2.911604594185   113.19887727    59.43851008
 C      6   5   2     2.845655568252   112.48091491   174.11061019
 O      7   6   5     2.387331606370   124.58027655   329.97338740
 O      7   6   5     2.398233637538   123.76601415   151.55437993
 H      1   2   3     1.912968453487   115.37820216    12.77396098
 H      2   1   3     2.072288415713   108.45975158   118.64229643
 C      1   2   3     2.590004920690   121.93462001   204.07400558
 N      3   2   1     2.574494359313   115.07302738   162.03336602
 H     13   3   2     1.906906581590   118.11249022   353.59696744
 O     12   1   2     2.325744653110   122.06183894   354.98995335
 C     12   1   2     2.881207762496   115.79510473   175.87288398
 H     16  12   1     2.067036178869   108.55238599   115.42852026
 H     16  12   1     2.065196552448   108.41275415   231.99923641
 H     16  12   1     2.065822026661   113.52634995   353.88024548
 C     13   3   2     2.760130172395   123.17936533   178.92742013
 H     20  13   3     2.069788244941   111.09747836   109.87439706
 H     20  13   3     2.067466459810   110.48128843   231.15902344
 H     20  13   3     2.059687450809   107.88764779   350.62748798
 H      5   2   1     2.068749470513   109.17631246   182.05999606
 H      5   2   1     2.066501073379   107.32772613   297.88385661
 H      6   5   2     2.075617687259   111.22772130    55.00967371
 H      6   5   2     2.067633864889   111.66111836   295.97028029

---------------------
BASIS SET INFORMATION
---------------------
There are 4 groups of distinct atoms

 Group   1 Type N   : 11s6p2d1f contracted to 5s3p2d1f pattern {62111/411/11/1}
 Group   2 Type C   : 11s6p2d1f contracted to 5s3p2d1f pattern {62111/411/11/1}
 Group   3 Type O   : 11s6p2d1f contracted to 5s3p2d1f pattern {62111/411/11/1}
 Group   4 Type H   : 5s1p contracted to 3s1p pattern {311/1}

Atom   0N    basis set group =>   1
Atom   1C    basis set group =>   2
Atom   2C    basis set group =>   2
Atom   3O    basis set group =>   3
Atom   4C    basis set group =>   2
Atom   5C    basis set group =>   2
Atom   6C    basis set group =>   2
Atom   7O    basis set group =>   3
Atom   8O    basis set group =>   3
Atom   9H    basis set group =>   4
Atom  10H    basis set group =>   4
Atom  11C    basis set group =>   2
Atom  12N    basis set group =>   1
Atom  13H    basis set group =>   4
Atom  14O    basis set group =>   3
Atom  15C    basis set group =>   2
Atom  16H    basis set group =>   4
Atom  17H    basis set group =>   4
Atom  18H    basis set group =>   4
Atom  19C    basis set group =>   2
Atom  20H    basis set group =>   4
Atom  21H    basis set group =>   4
Atom  22H    basis set group =>   4
Atom  23H    basis set group =>   4
Atom  24H    basis set group =>   4
Atom  25H    basis set group =>   4
Atom  26H    basis set group =>   4
---------------------------------
AUXILIARY/J BASIS SET INFORMATION
---------------------------------
There are 4 groups of distinct atoms

 Group   1 Type N   : 12s5p4d2f1g contracted to 6s4p3d1f1g pattern {711111/2111/211/2/1}
 Group   2 Type C   : 12s5p4d2f1g contracted to 6s4p3d1f1g pattern {711111/2111/211/2/1}
 Group   3 Type O   : 12s5p4d2f1g contracted to 6s4p3d1f1g pattern {711111/2111/211/2/1}
 Group   4 Type H   : 5s2p1d contracted to 3s1p1d pattern {311/2/1}

Atom   0N    basis set group =>   1
Atom   1C    basis set group =>   2
Atom   2C    basis set group =>   2
Atom   3O    basis set group =>   3
Atom   4C    basis set group =>   2
Atom   5C    basis set group =>   2
Atom   6C    basis set group =>   2
Atom   7O    basis set group =>   3
Atom   8O    basis set group =>   3
Atom   9H    basis set group =>   4
Atom  10H    basis set group =>   4
Atom  11C    basis set group =>   2
Atom  12N    basis set group =>   1
Atom  13H    basis set group =>   4
Atom  14O    basis set group =>   3
Atom  15C    basis set group =>   2
Atom  16H    basis set group =>   4
Atom  17H    basis set group =>   4
Atom  18H    basis set group =>   4
Atom  19C    basis set group =>   2
Atom  20H    basis set group =>   4
Atom  21H    basis set group =>   4
Atom  22H    basis set group =>   4
Atom  23H    basis set group =>   4
Atom  24H    basis set group =>   4
Atom  25H    basis set group =>   4
Atom  26H    basis set group =>   4


           ************************************************************
           *        Program running with 16 parallel MPI-processes    *
           *              working on a common directory               *
           ************************************************************
------------------------------------------------------------------------------
                           ORCA GTO INTEGRAL CALCULATION
                           -- RI-GTO INTEGRALS CHOSEN --
------------------------------------------------------------------------------
------------------------------------------------------------------------------
                   ___                                                        
                  /   \      - P O W E R E D   B Y -                         
                 /     \                                                     
                 |  |  |   _    _      __       _____    __    __             
                 |  |  |  | |  | |    /  \     |  _  \  |  |  /  |          
                  \  \/   | |  | |   /    \    | | | |  |  | /  /          
                 / \  \   | |__| |  /  /\  \   | |_| |  |  |/  /          
                |  |  |   |  __  | /  /__\  \  |    /   |      \           
                |  |  |   | |  | | |   __   |  |    \   |  |\   \          
                \     /   | |  | | |  |  |  |  | |\  \  |  | \   \       
                 \___/    |_|  |_| |__|  |__|  |_| \__\ |__|  \__/        
                                                                              
                      - O R C A' S   B I G   F R I E N D -                    
                                      &                                       
                       - I N T E G R A L  F E E D E R -                       
                                                                              
 v1 FN, 2020, v2 2021                                                         
------------------------------------------------------------------------------


Reading SHARK input file freq.SHARKINP.tmp ... ok
----------------------
SHARK INTEGRAL PACKAGE
----------------------

Number of atoms                             ...     27
Number of basis functions                   ...    512
Number of shells                            ...    206
Maximum angular momentum                    ...      3
Integral batch strategy                     ... SHARK/LIBINT Hybrid
RI-J (if used) integral strategy            ... SPLIT-RIJ (Revised 2003 algorithm where possible)
Printlevel                                  ...      1
Contraction scheme used                     ... SEGMENTED contraction
Coulomb Range Separation                    ... NOT USED
Exchange Range Separation                   ... NOT USED
Finite Nucleus Model                        ... NOT USED
Auxiliary Coulomb fitting basis             ... AVAILABLE
   # of basis functions in Aux-J            ...    829
   # of shells in Aux-J                     ...    275
   Maximum angular momentum in Aux-J        ...      4
Auxiliary J/K fitting basis                 ... NOT available
Auxiliary Correlation fitting basis         ... NOT available
Auxiliary 'external' fitting basis          ... NOT available
Integral threshold                          ...     2.500000e-11
Primitive cut-off                           ...     2.500000e-12
Primitive pair pre-selection threshold      ...     2.500000e-12

Calculating pre-screening integrals         ... done (  0.0 sec) Dimension = 206
Organizing shell pair data                  ... done (  0.1 sec)
Shell pair information
Total number of shell pairs                 ...     21321
Shell pairs after pre-screening             ...     16570
Total number of primitive shell pairs       ...     64608
Primitive shell pairs kept                  ...     34910
          la=0 lb=0:   4562 shell pairs
          la=1 lb=0:   4819 shell pairs
          la=1 lb=1:   1303 shell pairs
          la=2 lb=0:   2300 shell pairs
          la=2 lb=1:   1229 shell pairs
          la=2 lb=2:    307 shell pairs
          la=3 lb=0:   1101 shell pairs
          la=3 lb=1:    597 shell pairs
          la=3 lb=2:    279 shell pairs
          la=3 lb=3:     73 shell pairs

Calculating one electron integrals          ... done (  0.0 sec)
Calculating RI/J V-Matrix + Cholesky decomp.... done (  0.0 sec)
Calculating Nuclear repulsion               ... done (  0.0 sec) ENN=    910.446292091653 Eh

SHARK setup successfully completed in   0.3 seconds

Maximum memory used throughout the entire GTOINT-calculation: 28.8 MB


           ************************************************************
           *        Program running with 16 parallel MPI-processes    *
           *              working on a common directory               *
           ************************************************************
-------------------------------------------------------------------------------
                                 ORCA SCF
-------------------------------------------------------------------------------

------------
SCF SETTINGS
------------
Hamiltonian:
 Density Functional     Method          .... DFT(GTOs)
 Exchange Functional    Exchange        .... M062X
 Correlation Functional Correlation     .... M062X
 Gradients option       PostSCFGGA      .... off
 Hybrid DFT is turned on
   Fraction HF Exchange ScalHFX         ....  0.540000
   Scaling of DF-GGA-X  ScalDFX         ....  0.460000
   Scaling of DF-GGA-C  ScalDFC         ....  1.000000
   Scaling of DF-LDA-C  ScalLDAC        ....  1.000000
   Perturbative correction              ....  0.000000
   Density functional embedding theory  .... OFF
 RI-approximation to the Coulomb term is turned on
   Number of AuxJ basis functions       .... 829
   RIJ-COSX (HFX calculated with COS-X)).... on


General Settings:
 Integral files         IntName         .... freq
 Hartree-Fock type      HFTyp           .... UHF
 Total Charge           Charge          ....    0
 Multiplicity           Mult            ....    2
 Number of Electrons    NEL             ....  107
 Basis Dimension        Dim             ....  512
 Nuclear Repulsion      ENuc            ....    910.4462920917 Eh

Convergence Acceleration:
 DIIS                   CNVDIIS         .... on
   Start iteration      DIISMaxIt       ....    12
   Startup error        DIISStart       ....  0.200000
   # of expansion vecs  DIISMaxEq       ....     5
   Bias factor          DIISBfac        ....   1.050
   Max. coefficient     DIISMaxC        ....  10.000
 Trust-Rad. Augm. Hess. CNVTRAH         .... auto
   Auto Start mean grad. ratio tolernc. ....  1.125000
   Auto Start start iteration           ....    20
   Auto Start num. interpolation iter.  ....    10
   Max. Number of Micro iterations      ....    16
   Max. Number of Macro iterations      .... Maxiter - #DIIS iter
   Number of Davidson start vectors     ....     2
   Converg. threshold I  (grad. norm)   ....   1.000e-05
   Converg. threshold II (energy diff.) ....   1.000e-08
   Grad. Scal. Fac. for Micro threshold ....   0.100
   Minimum threshold for Micro iter.    ....   0.010
   NR start threshold (gradient norm)   ....   0.001
   Initial trust radius                 ....   0.400
   Minimum AH scaling param. (alpha)    ....   1.000
   Maximum AH scaling param. (alpha)    .... 1000.000
   Orbital update algorithm             .... Taylor
   White noise on init. David. guess    .... on
   Maximum white noise                  ....   0.010
   Quad. conv. algorithm                .... NR
 SOSCF                  CNVSOSCF        .... off
 Level Shifting         CNVShift        .... on
   Level shift para.    LevelShift      ....    0.2500
   Turn off err/grad.   ShiftErr        ....    0.0010
 Zerner damping         CNVZerner       .... off
 Static damping         CNVDamp         .... on
   Fraction old density DampFac         ....    0.7000
   Max. Damping (<1)    DampMax         ....    0.9800
   Min. Damping (>=0)   DampMin         ....    0.0000
   Turn off err/grad.   DampErr         ....    0.1000
 Fernandez-Rico         CNVRico         .... off

SCF Procedure:
 Maximum # iterations   MaxIter         ....   125
 SCF integral mode      SCFMode         .... Direct
   Integral package                     .... SHARK and LIBINT hybrid scheme
 Reset frequency        DirectResetFreq ....    20
 Integral Threshold     Thresh          ....  2.500e-11 Eh
 Primitive CutOff       TCut            ....  2.500e-12 Eh

Convergence Tolerance:
 Convergence Check Mode ConvCheckMode   .... Total+1el-Energy
 Convergence forced     ConvForced      .... 0
 Energy Change          TolE            ....  1.000e-08 Eh
 1-El. energy change                    ....  1.000e-05 Eh
 DIIS Error             TolErr          ....  5.000e-07


Diagonalization of the overlap matrix:
Smallest eigenvalue                        ... 7.207e-05
Time for diagonalization                   ...    0.040 sec
Threshold for overlap eigenvalues          ... 1.000e-08
Number of eigenvalues below threshold      ... 0
Time for construction of square roots      ...    0.021 sec
Total time needed                          ...    0.062 sec

Time for model grid setup =    0.093 sec

------------------------------
INITIAL GUESS: MODEL POTENTIAL
------------------------------
Loading Hartree-Fock densities                     ... done
Calculating cut-offs                               ... done
Initializing the effective Hamiltonian             ... done
Setting up the integral package (SHARK)            ... done
Starting the Coulomb interaction                   ... done (   0.1 sec)
Reading the grid                                   ... done
Mapping shells                                     ... done
Starting the XC term evaluation                    ... done (   0.1 sec)
  promolecular density results
     # of electrons  =    106.993577356
     EX              =    -90.388473589
     EC              =     -3.578565491
     EX+EC           =    -93.967039080
Transforming the Hamiltonian                       ... done (   0.0 sec)
Diagonalizing the Hamiltonian                      ... done (   0.0 sec)
Back transforming the eigenvectors                 ... done (   0.0 sec)
Now organizing SCF variables                       ... done
                      ------------------
                      INITIAL GUESS DONE (   0.4 sec)
                      ------------------
-------------------
DFT GRID GENERATION
-------------------

General Integration Accuracy     IntAcc      ... 4.388
Radial Grid Type                 RadialGrid  ... OptM3 with GC (2021)
Angular Grid (max. ang.)         AngularGrid ... 4 (Lebedev-302)
Angular grid pruning method      GridPruning ... 4 (adaptive)
Weight generation scheme         WeightScheme... Becke
Basis function cutoff            BFCut       ... 1.0000e-11
Integration weight cutoff        WCut        ... 1.0000e-14
Angular grids for H and He will be reduced by one unit
Partially contracted basis set               ... off
Rotationally invariant grid construction     ... off

Total number of grid points                  ...   125835
Total number of batches                      ...     1980
Average number of points per batch           ...       63
Average number of grid points per atom       ...     4661
Time for grid setup =    0.541 sec

--------------------
COSX GRID GENERATION
--------------------

GRIDX 1
-------
General Integration Accuracy     IntAcc      ... 3.816
Radial Grid Type                 RadialGrid  ... OptM3 with GC (2021)
Angular Grid (max. ang.)         AngularGrid ... 1 (Lebedev-50)
Angular grid pruning method      GridPruning ... 4 (adaptive)
Weight generation scheme         WeightScheme... Becke
Basis function cutoff            BFCut       ... 1.0000e-11
Integration weight cutoff        WCut        ... 1.0000e-14
Angular grids for H and He will be reduced by one unit
Partially contracted basis set               ... on
Rotationally invariant grid construction     ... off

Total number of grid points                  ...    16027
Total number of batches                      ...      266
Average number of points per batch           ...       60
Average number of grid points per atom       ...      594
UseSFitting                                  ... on

GRIDX 2
-------
General Integration Accuracy     IntAcc      ... 4.020
Radial Grid Type                 RadialGrid  ... OptM3 with GC (2021)
Angular Grid (max. ang.)         AngularGrid ... 2 (Lebedev-110)
Angular grid pruning method      GridPruning ... 4 (adaptive)
Weight generation scheme         WeightScheme... Becke
Basis function cutoff            BFCut       ... 1.0000e-11
Integration weight cutoff        WCut        ... 1.0000e-14
Angular grids for H and He will be reduced by one unit
Partially contracted basis set               ... on
Rotationally invariant grid construction     ... off

Total number of grid points                  ...    34689
Total number of batches                      ...      556
Average number of points per batch           ...       62
Average number of grid points per atom       ...     1285
UseSFitting                                  ... on

GRIDX 3
-------
General Integration Accuracy     IntAcc      ... 4.338
Radial Grid Type                 RadialGrid  ... OptM3 with GC (2021)
Angular Grid (max. ang.)         AngularGrid ... 3 (Lebedev-194)
Angular grid pruning method      GridPruning ... 4 (adaptive)
Weight generation scheme         WeightScheme... Becke
Basis function cutoff            BFCut       ... 1.0000e-11
Integration weight cutoff        WCut        ... 1.0000e-14
Angular grids for H and He will be reduced by one unit
Partially contracted basis set               ... on
Rotationally invariant grid construction     ... off

Total number of grid points                  ...    75997
Total number of batches                      ...     1201
Average number of points per batch           ...       63
Average number of grid points per atom       ...     2815
UseSFitting                                  ... on

Time for X-Grid setup             =    0.689 sec

--------------
SCF ITERATIONS
--------------
ITER       Energy         Delta-E        Max-DP      RMS-DP      [F,P]     Damp
               ***  Starting incremental Fock matrix formation  ***
  0   -722.4018709262   0.000000000000 0.13150717  0.00069742  0.1571402 0.7000
  1   -722.6727602444  -0.270889318190 0.10178711  0.00053701  0.0671471 0.7000
                               ***Turning on DIIS***
  2   -722.7867771056  -0.114016861231 0.13141943  0.00081892  0.0275053 0.0000
  3   -722.9859960462  -0.199218940608 0.11840441  0.00056497  0.0625954 0.0000
  4   -723.0317780950  -0.045782048744 0.04782849  0.00026671  0.0116670 0.0000
  5   -723.0386701248  -0.006892029859 0.02027463  0.00014650  0.0092525 0.0000
  6   -723.0423124137  -0.003642288858 0.00883622  0.00008215  0.0048335 0.0000
  7   -723.0438992117  -0.001586798020 0.00333909  0.00004171  0.0035287 0.0000
  8   -723.0445979383  -0.000698726541 0.00243195  0.00002794  0.0024311 0.0000
  9   -723.0449340406  -0.000336102337 0.00184479  0.00001819  0.0016334 0.0000
 10   -723.0450815654  -0.000147524832 0.00121090  0.00001174  0.0010477 0.0000
 11   -723.0451459011  -0.000064335655 0.00179603  0.00001703  0.0006695 0.0000
               *** Restarting incremental Fock matrix formation ***
                                   *** Resetting DIIS ***
 12   -723.0453248727  -0.000178971661 0.00060317  0.00000671  0.0005277 0.0000
 13   -723.0453322354  -0.000007362614 0.00026595  0.00000206  0.0003757 0.0000
 14   -723.0453353347  -0.000003099388 0.00062724  0.00000449  0.0004206 0.0000
 15   -723.0453412238  -0.000005889073 0.00037441  0.00000324  0.0003451 0.0000
 16   -723.0453455778  -0.000004353974 0.00104899  0.00000851  0.0002280 0.0000
 17   -723.0453543938  -0.000008815987 0.00073904  0.00000630  0.0002003 0.0000
 18   -723.0453592045  -0.000004810724 0.00113100  0.00000906  0.0001264 0.0000
 19   -723.0453636042  -0.000004399652 0.00066254  0.00000523  0.0000859 0.0000
 20   -723.0453647612  -0.000001157015 0.00031501  0.00000256  0.0000466 0.0000
 21   -723.0453649679  -0.000000206700 0.00005157  0.00000045  0.0000291 0.0000
 22   -723.0453649816  -0.000000013692 0.00013301  0.00000103  0.0000271 0.0000
 23   -723.0453650024  -0.000000020841 0.00003915  0.00000029  0.0000183 0.0000
 24   -723.0453650251  -0.000000022662 0.00002329  0.00000019  0.0000165 0.0000
 25   -723.0453650204   0.000000004699 0.00002826  0.00000020  0.0000146 0.0000
 26   -723.0453650492  -0.000000028858 0.00006820  0.00000048  0.0000130 0.0000
 27   -723.0453650565  -0.000000007305 0.00006454  0.00000047  0.0000088 0.0000
 28   -723.0453650841  -0.000000027595 0.00001620  0.00000011  0.0000048 0.0000
 29   -723.0453650784   0.000000005706 0.00003248  0.00000025  0.0000037 0.0000
                 **** Energy Check signals convergence ****

               *****************************************************
               *                     SUCCESS                       *
               *           SCF CONVERGED AFTER  30 CYCLES          *
               *****************************************************

Old exchange energy                            =    -49.748355999 Eh
New exchange energy                            =    -49.748409708 Eh
Exchange energy change after final integration =     -0.000053708 Eh
Total energy after final integration           =   -723.045418787 Eh
Final COS-X integration done in                =     3.962 sec

----------------
TOTAL SCF ENERGY
----------------

Total Energy       :         -723.04541879 Eh          -19675.06611 eV

Components:
Nuclear Repulsion  :          910.44629209 Eh           24774.50312 eV
Electronic Energy  :        -1633.49171088 Eh          -44449.56923 eV
One Electron Energy:        -2791.87666615 Eh          -75970.82637 eV
Two Electron Energy:         1158.38495527 Eh           31521.25714 eV
Max COSX asymmetry :            0.00000102 Eh               0.00003 eV

Virial components:
Potential Energy   :        -1442.32402148 Eh          -39247.63194 eV
Kinetic Energy     :          719.27860270 Eh           19572.56583 eV
Virial Ratio       :            2.00523694


DFT components:
N(Alpha)           :       54.000051104784 electrons
N(Beta)            :       53.000052537428 electrons
N(Total)           :      107.000103642212 electrons
E(XC)              :      -46.373305974303 Eh       
DFET-embed. en.    :        0.000000000000 Eh       

---------------
SCF CONVERGENCE
---------------

  Last Energy change         ...   -6.0902e-10  Tolerance :   1.0000e-08
  Last MAX-Density change    ...    0.0000e+00  Tolerance :   1.0000e-07
  Last RMS-Density change    ...    0.0000e+00  Tolerance :   5.0000e-09
  Last DIIS Error            ...    2.7114e-06  Tolerance :   5.0000e-07

             **** THE GBW FILE WAS UPDATED (freq.gbw) ****
             **** DENSITY freq.scfp WAS UPDATED ****
             **** ENERGY FILE WAS UPDATED (freq.en.tmp) ****
----------------------
UHF SPIN CONTAMINATION
----------------------

Warning: in a DFT calculation there is little theoretical justification to 
         calculate <S**2> as in Hartree-Fock theory. We will do it anyways
         but you should keep in mind that the values have only limited relevance

Expectation value of <S**2>     :     0.760222
Ideal value S*(S+1) for S=0.5   :     0.750000
Deviation                       :     0.010222

             **** THE GBW FILE WAS UPDATED (freq.gbw) ****
             **** DENSITY freq.scfp WAS UPDATED ****
----------------
ORBITAL ENERGIES
----------------
                 SPIN UP ORBITALS
  NO   OCC          E(Eh)            E(eV) 
   0   1.0000     -19.699546      -536.0519 
   1   1.0000     -19.685025      -535.6568 
   2   1.0000     -19.622281      -533.9494 
   3   1.0000     -19.598848      -533.3118 
   4   1.0000     -14.803380      -402.8204 
   5   1.0000     -14.782902      -402.2632 
   6   1.0000     -10.702797      -291.2379 
   7   1.0000     -10.673148      -290.4311 
   8   1.0000     -10.655580      -289.9531 
   9   1.0000     -10.612820      -288.7895 
  10   1.0000     -10.590416      -288.1799 
  11   1.0000     -10.578360      -287.8518 
  12   1.0000     -10.571021      -287.6521 
  13   1.0000     -10.550088      -287.0825 
  14   1.0000      -1.267594       -34.4930 
  15   1.0000      -1.185477       -32.2585 
  16   1.0000      -1.161689       -31.6112 
  17   1.0000      -1.147146       -31.2154 
  18   1.0000      -1.056981       -28.7619 
  19   1.0000      -1.044414       -28.4200 
  20   1.0000      -0.925436       -25.1824 
  21   1.0000      -0.868674       -23.6378 
  22   1.0000      -0.835619       -22.7383 
  23   1.0000      -0.804410       -21.8891 
  24   1.0000      -0.743003       -20.2181 
  25   1.0000      -0.695141       -18.9158 
  26   1.0000      -0.676582       -18.4107 
  27   1.0000      -0.656752       -17.8711 
  28   1.0000      -0.632622       -17.2145 
  29   1.0000      -0.615588       -16.7510 
  30   1.0000      -0.586665       -15.9640 
  31   1.0000      -0.580813       -15.8047 
  32   1.0000      -0.570134       -15.5141 
  33   1.0000      -0.559942       -15.2368 
  34   1.0000      -0.554765       -15.0959 
  35   1.0000      -0.546640       -14.8748 
  36   1.0000      -0.534847       -14.5539 
  37   1.0000      -0.525372       -14.2961 
  38   1.0000      -0.507531       -13.8106 
  39   1.0000      -0.497345       -13.5334 
  40   1.0000      -0.485024       -13.1982 
  41   1.0000      -0.479849       -13.0574 
  42   1.0000      -0.472346       -12.8532 
  43   1.0000      -0.462480       -12.5847 
  44   1.0000      -0.449793       -12.2395 
  45   1.0000      -0.445637       -12.1264 
  46   1.0000      -0.438808       -11.9406 
  47   1.0000      -0.425441       -11.5768 
  48   1.0000      -0.419033       -11.4025 
  49   1.0000      -0.416467       -11.3326 
  50   1.0000      -0.363320        -9.8864 
  51   1.0000      -0.350770        -9.5449 
  52   1.0000      -0.339992        -9.2516 
  53   1.0000      -0.330359        -8.9895 
  54   0.0000       0.017232         0.4689 
  55   0.0000       0.032454         0.8831 
  56   0.0000       0.037138         1.0106 
  57   0.0000       0.052649         1.4327 
  58   0.0000       0.054490         1.4827 
  59   0.0000       0.076839         2.0909 
  60   0.0000       0.085022         2.3136 
  61   0.0000       0.099989         2.7208 
  62   0.0000       0.109546         2.9809 
  63   0.0000       0.116649         3.1742 
  64   0.0000       0.119797         3.2599 
  65   0.0000       0.132209         3.5976 
  66   0.0000       0.135571         3.6891 
  67   0.0000       0.140032         3.8105 
  68   0.0000       0.149368         4.0645 
  69   0.0000       0.153678         4.1818 
  70   0.0000       0.160627         4.3709 
  71   0.0000       0.168443         4.5836 
  72   0.0000       0.175768         4.7829 
  73   0.0000       0.181937         4.9507 
  74   0.0000       0.196494         5.3469 
  75   0.0000       0.200047         5.4436 
  76   0.0000       0.207583         5.6486 
  77   0.0000       0.217313         5.9134 
  78   0.0000       0.221118         6.0169 
  79   0.0000       0.221565         6.0291 
  80   0.0000       0.241448         6.5701 
  81   0.0000       0.241984         6.5847 
  82   0.0000       0.250541         6.8176 
  83   0.0000       0.252331         6.8663 
  84   0.0000       0.260891         7.0992 
  85   0.0000       0.277490         7.5509 
  86   0.0000       0.280804         7.6411 
  87   0.0000       0.295361         8.0372 
  88   0.0000       0.300328         8.1723 
  89   0.0000       0.318961         8.6794 
  90   0.0000       0.323202         8.7948 
  91   0.0000       0.334820         9.1109 
  92   0.0000       0.347081         9.4446 
  93   0.0000       0.359549         9.7838 
  94   0.0000       0.376635        10.2488 
  95   0.0000       0.379803        10.3350 
  96   0.0000       0.383355        10.4316 
  97   0.0000       0.384280        10.4568 
  98   0.0000       0.398301        10.8383 
  99   0.0000       0.403655        10.9840 
 100   0.0000       0.409786        11.1509 
 101   0.0000       0.413529        11.2527 
 102   0.0000       0.420216        11.4347 
 103   0.0000       0.425703        11.5840 
 104   0.0000       0.427888        11.6434 
 105   0.0000       0.435539        11.8516 
 106   0.0000       0.436559        11.8794 
 107   0.0000       0.442833        12.0501 
 108   0.0000       0.449221        12.2239 
 109   0.0000       0.458374        12.4730 
 110   0.0000       0.462798        12.5934 
 111   0.0000       0.470547        12.8042 
 112   0.0000       0.478249        13.0138 
 113   0.0000       0.479774        13.0553 
 114   0.0000       0.488719        13.2987 
 115   0.0000       0.492477        13.4010 
 116   0.0000       0.498491        13.5646 
 117   0.0000       0.506017        13.7694 
 118   0.0000       0.508732        13.8433 
 119   0.0000       0.512204        13.9378 
 120   0.0000       0.529522        14.4090 
 121   0.0000       0.536427        14.5969 
 122   0.0000       0.546450        14.8697 
 123   0.0000       0.548469        14.9246 
 124   0.0000       0.565649        15.3921 
 125   0.0000       0.569129        15.4868 
 126   0.0000       0.574489        15.6326 
 127   0.0000       0.581794        15.8314 
 128   0.0000       0.586938        15.9714 
 129   0.0000       0.593635        16.1536 
 130   0.0000       0.599449        16.3118 
 131   0.0000       0.604734        16.4556 
 132   0.0000       0.614289        16.7157 
 133   0.0000       0.618168        16.8212 
 134   0.0000       0.625921        17.0322 
 135   0.0000       0.631858        17.1937 
 136   0.0000       0.645876        17.5752 
 137   0.0000       0.663244        18.0478 
 138   0.0000       0.676205        18.4005 
 139   0.0000       0.686500        18.6806 
 140   0.0000       0.696783        18.9604 
 141   0.0000       0.700018        19.0485 
 142   0.0000       0.713122        19.4050 
 143   0.0000       0.728166        19.8144 
 144   0.0000       0.750030        20.4093 
 145   0.0000       0.758792        20.6478 
 146   0.0000       0.772608        21.0237 
 147   0.0000       0.787833        21.4380 
 148   0.0000       0.796732        21.6802 
 149   0.0000       0.806912        21.9572 
 150   0.0000       0.816095        22.2071 
 151   0.0000       0.817627        22.2488 
 152   0.0000       0.841299        22.8929 
 153   0.0000       0.864586        23.5266 
 154   0.0000       0.867886        23.6164 
 155   0.0000       0.888186        24.1688 
 156   0.0000       0.900021        24.4908 
 157   0.0000       0.911939        24.8151 
 158   0.0000       0.916954        24.9516 
 159   0.0000       0.944374        25.6977 
 160   0.0000       0.948649        25.8140 
 161   0.0000       0.958319        26.0772 
 162   0.0000       0.963712        26.2239 
 163   0.0000       0.979121        26.6432 
 164   0.0000       0.990358        26.9490 
 165   0.0000       0.996084        27.1048 
 166   0.0000       1.008291        27.4370 
 167   0.0000       1.027437        27.9580 
 168   0.0000       1.034109        28.1395 
 169   0.0000       1.059670        28.8351 
 170   0.0000       1.066982        29.0341 
 171   0.0000       1.076561        29.2947 
 172   0.0000       1.079313        29.3696 
 173   0.0000       1.097100        29.8536 
 174   0.0000       1.102866        30.0105 
 175   0.0000       1.112670        30.2773 
 176   0.0000       1.131132        30.7797 
 177   0.0000       1.147546        31.2263 
 178   0.0000       1.153710        31.3941 
 179   0.0000       1.201389        32.6915 
 180   0.0000       1.201994        32.7079 
 181   0.0000       1.218149        33.1475 
 182   0.0000       1.230832        33.4926 
 183   0.0000       1.249403        33.9980 
 184   0.0000       1.258919        34.2569 
 185   0.0000       1.296941        35.2915 
 186   0.0000       1.303730        35.4763 
 187   0.0000       1.312834        35.7240 
 188   0.0000       1.326502        36.0960 
 189   0.0000       1.352252        36.7967 
 190   0.0000       1.364402        37.1273 
 191   0.0000       1.387898        37.7666 
 192   0.0000       1.391171        37.8557 
 193   0.0000       1.413256        38.4566 
 194   0.0000       1.421478        38.6804 
 195   0.0000       1.449476        39.4423 
 196   0.0000       1.456759        39.6404 
 197   0.0000       1.481465        40.3127 
 198   0.0000       1.491806        40.5941 
 199   0.0000       1.500957        40.8431 
 200   0.0000       1.506359        40.9901 
 201   0.0000       1.520401        41.3722 
 202   0.0000       1.534467        41.7550 
 203   0.0000       1.536249        41.8035 
 204   0.0000       1.544873        42.0381 
 205   0.0000       1.548161        42.1276 
 206   0.0000       1.550019        42.1782 
 207   0.0000       1.560598        42.4660 
 208   0.0000       1.565717        42.6053 
 209   0.0000       1.572654        42.7941 
 210   0.0000       1.581240        43.0277 
 211   0.0000       1.589967        43.2652 
 212   0.0000       1.600176        43.5430 
 213   0.0000       1.603855        43.6431 
 214   0.0000       1.620096        44.0850 
 215   0.0000       1.630378        44.3648 
 216   0.0000       1.632856        44.4323 
 217   0.0000       1.653172        44.9851 
 218   0.0000       1.661329        45.2071 
 219   0.0000       1.674033        45.5528 
 220   0.0000       1.682273        45.7770 
 221   0.0000       1.692076        46.0437 
 222   0.0000       1.708935        46.5025 
 223   0.0000       1.715126        46.6710 
 224   0.0000       1.747094        47.5408 
 225   0.0000       1.752054        47.6758 
 226   0.0000       1.762936        47.9719 
 227   0.0000       1.775523        48.3144 
 228   0.0000       1.807005        49.1711 
 229   0.0000       1.812763        49.3278 
 230   0.0000       1.830455        49.8092 
 231   0.0000       1.833108        49.8814 
 232   0.0000       1.854437        50.4618 
 233   0.0000       1.876783        51.0699 
 234   0.0000       1.882032        51.2127 
 235   0.0000       1.889057        51.4039 
 236   0.0000       1.900182        51.7066 
 237   0.0000       1.915996        52.1369 
 238   0.0000       1.928225        52.4697 
 239   0.0000       1.947799        53.0023 
 240   0.0000       1.950321        53.0709 
 241   0.0000       1.964975        53.4697 
 242   0.0000       1.967426        53.5364 
 243   0.0000       1.993836        54.2550 
 244   0.0000       1.995760        54.3074 
 245   0.0000       2.005250        54.5656 
 246   0.0000       2.017411        54.8966 
 247   0.0000       2.026820        55.1526 
 248   0.0000       2.030317        55.2477 
 249   0.0000       2.058969        56.0274 
 250   0.0000       2.060278        56.0630 
 251   0.0000       2.077517        56.5321 
 252   0.0000       2.110575        57.4317 
 253   0.0000       2.127950        57.9045 
 254   0.0000       2.142414        58.2980 
 255   0.0000       2.143148        58.3180 
 256   0.0000       2.159583        58.7652 
 257   0.0000       2.170832        59.0714 
 258   0.0000       2.190367        59.6029 
 259   0.0000       2.206467        60.0410 
 260   0.0000       2.211930        60.1897 
 261   0.0000       2.224344        60.5275 
 262   0.0000       2.228149        60.6310 
 263   0.0000       2.245825        61.1120 
 264   0.0000       2.258440        61.4553 
 265   0.0000       2.265392        61.6445 
 266   0.0000       2.300820        62.6085 
 267   0.0000       2.303359        62.6776 
 268   0.0000       2.305092        62.7247 
 269   0.0000       2.314394        62.9779 
 270   0.0000       2.333816        63.5064 
 271   0.0000       2.340100        63.6773 
 272   0.0000       2.357830        64.1598 
 273   0.0000       2.365218        64.3608 
 274   0.0000       2.375291        64.6350 
 275   0.0000       2.389097        65.0106 
 276   0.0000       2.397411        65.2369 
 277   0.0000       2.420731        65.8714 
 278   0.0000       2.425399        65.9985 
 279   0.0000       2.442232        66.4565 
 280   0.0000       2.458467        66.8983 
 281   0.0000       2.489556        67.7443 
 282   0.0000       2.502387        68.0934 
 283   0.0000       2.507487        68.2322 
 284   0.0000       2.521978        68.6265 
 285   0.0000       2.536014        69.0084 
 286   0.0000       2.544407        69.2368 
 287   0.0000       2.554820        69.5202 
 288   0.0000       2.565962        69.8234 
 289   0.0000       2.570916        69.9582 
 290   0.0000       2.583803        70.3088 
 291   0.0000       2.590066        70.4793 
 292   0.0000       2.613055        71.1049 
 293   0.0000       2.618197        71.2448 
 294   0.0000       2.624134        71.4063 
 295   0.0000       2.646933        72.0267 
 296   0.0000       2.658728        72.3477 
 297   0.0000       2.665733        72.5383 
 298   0.0000       2.673668        72.7542 
 299   0.0000       2.682773        73.0020 
 300   0.0000       2.696946        73.3876 
 301   0.0000       2.704958        73.6056 
 302   0.0000       2.726516        74.1923 
 303   0.0000       2.743189        74.6460 
 304   0.0000       2.757683        75.0404 
 305   0.0000       2.765551        75.2545 
 306   0.0000       2.779796        75.6421 
 307   0.0000       2.803964        76.2997 
 308   0.0000       2.822794        76.8121 
 309   0.0000       2.829626        76.9980 
 310   0.0000       2.859046        77.7986 
 311   0.0000       2.869874        78.0932 
 312   0.0000       2.891148        78.6721 
 313   0.0000       2.915602        79.3376 
 314   0.0000       2.923036        79.5399 
 315   0.0000       2.924818        79.5883 
 316   0.0000       2.939467        79.9870 
 317   0.0000       2.952196        80.3333 
 318   0.0000       2.955978        80.4362 
 319   0.0000       2.971592        80.8611 
 320   0.0000       2.974470        80.9394 
 321   0.0000       2.982771        81.1653 
 322   0.0000       2.993015        81.4441 
 323   0.0000       3.013992        82.0149 
 324   0.0000       3.022477        82.2458 
 325   0.0000       3.035142        82.5904 
 326   0.0000       3.040776        82.7437 
 327   0.0000       3.046424        82.8974 
 328   0.0000       3.054556        83.1187 
 329   0.0000       3.059825        83.2621 
 330   0.0000       3.087031        84.0024 
 331   0.0000       3.090533        84.0977 
 332   0.0000       3.099016        84.3285 
 333   0.0000       3.123351        84.9907 
 334   0.0000       3.139084        85.4188 
 335   0.0000       3.150339        85.7251 
 336   0.0000       3.151824        85.7655 
 337   0.0000       3.159824        85.9832 
 338   0.0000       3.175112        86.3992 
 339   0.0000       3.185786        86.6897 
 340   0.0000       3.189545        86.7919 
 341   0.0000       3.209935        87.3468 
 342   0.0000       3.219566        87.6088 
 343   0.0000       3.227067        87.8130 
 344   0.0000       3.240911        88.1897 
 345   0.0000       3.248853        88.4058 
 346   0.0000       3.262184        88.7685 
 347   0.0000       3.272566        89.0511 
 348   0.0000       3.278186        89.2040 
 349   0.0000       3.300382        89.8080 
 350   0.0000       3.303787        89.9006 
 351   0.0000       3.308849        90.0384 
 352   0.0000       3.318808        90.3094 
 353   0.0000       3.326200        90.5105 
 354   0.0000       3.330307        90.6223 
 355   0.0000       3.345295        91.0301 
 356   0.0000       3.352921        91.2376 
 357   0.0000       3.365543        91.5811 
 358   0.0000       3.382649        92.0466 
 359   0.0000       3.383551        92.0711 
 360   0.0000       3.389948        92.2452 
 361   0.0000       3.397928        92.4623 
 362   0.0000       3.402850        92.5962 
 363   0.0000       3.440877        93.6310 
 364   0.0000       3.448269        93.8322 
 365   0.0000       3.465268        94.2947 
 366   0.0000       3.471446        94.4629 
 367   0.0000       3.474280        94.5400 
 368   0.0000       3.483352        94.7868 
 369   0.0000       3.508577        95.4732 
 370   0.0000       3.520150        95.7881 
 371   0.0000       3.525369        95.9302 
 372   0.0000       3.539153        96.3052 
 373   0.0000       3.547175        96.5235 
 374   0.0000       3.581852        97.4671 
 375   0.0000       3.585952        97.5787 
 376   0.0000       3.600139        97.9648 
 377   0.0000       3.619433        98.4898 
 378   0.0000       3.643287        99.1389 
 379   0.0000       3.678675       100.1018 
 380   0.0000       3.697405       100.6115 
 381   0.0000       3.715591       101.1064 
 382   0.0000       3.734605       101.6238 
 383   0.0000       3.756945       102.2317 
 384   0.0000       3.767200       102.5107 
 385   0.0000       3.776712       102.7696 
 386   0.0000       3.790698       103.1501 
 387   0.0000       3.830942       104.2452 
 388   0.0000       3.851535       104.8056 
 389   0.0000       3.856860       104.9505 
 390   0.0000       3.865071       105.1739 
 391   0.0000       3.898247       106.0767 
 392   0.0000       3.909444       106.3814 
 393   0.0000       3.924730       106.7973 
 394   0.0000       3.962749       107.8319 
 395   0.0000       3.984554       108.4252 
 396   0.0000       3.997702       108.7830 
 397   0.0000       4.040387       109.9445 
 398   0.0000       4.049095       110.1815 
 399   0.0000       4.084565       111.1467 
 400   0.0000       4.090627       111.3116 
 401   0.0000       4.100939       111.5922 
 402   0.0000       4.129022       112.3564 
 403   0.0000       4.137215       112.5793 
 404   0.0000       4.173785       113.5745 
 405   0.0000       4.207767       114.4992 
 406   0.0000       4.252389       115.7134 
 407   0.0000       4.310972       117.3075 
 408   0.0000       4.320904       117.5778 
 409   0.0000       4.350135       118.3732 
 410   0.0000       4.356661       118.5508 
 411   0.0000       4.369050       118.8879 
 412   0.0000       4.386152       119.3533 
 413   0.0000       4.390907       119.4827 
 414   0.0000       4.414368       120.1211 
 415   0.0000       4.439417       120.8027 
 416   0.0000       4.449251       121.0703 
 417   0.0000       4.468067       121.5823 
 418   0.0000       4.497751       122.3900 
 419   0.0000       4.506174       122.6192 
 420   0.0000       4.535432       123.4154 
 421   0.0000       4.562156       124.1426 
 422   0.0000       4.610922       125.4696 
 423   0.0000       4.646027       126.4248 
 424   0.0000       4.680454       127.3616 
 425   0.0000       4.714493       128.2879 
 426   0.0000       4.742677       129.0548 
 427   0.0000       4.753666       129.3538 
 428   0.0000       4.800430       130.6263 
 429   0.0000       4.835132       131.5706 
 430   0.0000       4.852574       132.0453 
 431   0.0000       4.943203       134.5114 
 432   0.0000       4.972543       135.3098 
 433   0.0000       4.995083       135.9231 
 434   0.0000       5.006995       136.2473 
 435   0.0000       5.034622       136.9990 
 436   0.0000       5.085572       138.3854 
 437   0.0000       5.092084       138.5626 
 438   0.0000       5.120675       139.3406 
 439   0.0000       5.132570       139.6643 
 440   0.0000       5.141343       139.9030 
 441   0.0000       5.151578       140.1816 
 442   0.0000       5.165666       140.5649 
 443   0.0000       5.181934       141.0076 
 444   0.0000       5.206411       141.6737 
 445   0.0000       5.207969       141.7160 
 446   0.0000       5.213014       141.8533 
 447   0.0000       5.251212       142.8927 
 448   0.0000       5.259212       143.1104 
 449   0.0000       5.283559       143.7730 
 450   0.0000       5.295621       144.1012 
 451   0.0000       5.341428       145.3476 
 452   0.0000       5.410457       147.2260 
 453   0.0000       5.418261       147.4384 
 454   0.0000       5.421947       147.5387 
 455   0.0000       5.469306       148.8274 
 456   0.0000       5.510352       149.9443 
 457   0.0000       5.518333       150.1615 
 458   0.0000       5.567114       151.4889 
 459   0.0000       5.634908       153.3336 
 460   0.0000       5.641829       153.5220 
 461   0.0000       5.660403       154.0274 
 462   0.0000       5.707074       155.2974 
 463   0.0000       5.757436       156.6678 
 464   0.0000       5.829878       158.6391 
 465   0.0000       5.852872       159.2648 
 466   0.0000       5.872458       159.7977 
 467   0.0000       5.889002       160.2479 
 468   0.0000       6.023076       163.8962 
 469   0.0000       6.073284       165.2625 
 470   0.0000       6.076694       165.3553 
 471   0.0000       6.095021       165.8540 
 472   0.0000       6.212643       169.0546 
 473   0.0000       6.249712       170.0633 
 474   0.0000       6.283803       170.9910 
 475   0.0000       6.292677       171.2325 
 476   0.0000       6.332965       172.3287 
 477   0.0000       6.386070       173.7738 
 478   0.0000       6.412736       174.4994 
 479   0.0000       6.419801       174.6917 
 480   0.0000       6.446084       175.4069 
 481   0.0000       6.536798       177.8753 
 482   0.0000       6.545823       178.1209 
 483   0.0000       6.624089       180.2506 
 484   0.0000       6.637506       180.6157 
 485   0.0000       6.649577       180.9442 
 486   0.0000       6.732186       183.1921 
 487   0.0000       6.758623       183.9115 
 488   0.0000       6.817015       185.5004 
 489   0.0000       6.822425       185.6476 
 490   0.0000       6.849872       186.3945 
 491   0.0000       6.929711       188.5670 
 492   0.0000       7.004596       190.6047 
 493   0.0000       7.030607       191.3125 
 494   0.0000       7.034716       191.4244 
 495   0.0000       7.056035       192.0045 
 496   0.0000       7.067310       192.3113 
 497   0.0000       7.082059       192.7126 
 498   0.0000      22.393956       609.3705 
 499   0.0000      22.458611       611.1299 
 500   0.0000      22.530853       613.0957 
 501   0.0000      22.595257       614.8482 
 502   0.0000      22.772601       619.6740 
 503   0.0000      23.338896       635.0837 
 504   0.0000      23.365433       635.8058 
 505   0.0000      23.424912       637.4243 
 506   0.0000      32.478032       883.7722 
 507   0.0000      32.662256       888.7852 
 508   0.0000      43.869304      1193.7445 
 509   0.0000      43.897850      1194.5212 
 510   0.0000      44.056693      1198.8436 
 511   0.0000      44.099291      1200.0027 

                 SPIN DOWN ORBITALS
  NO   OCC          E(Eh)            E(eV) 
   0   1.0000     -19.687582      -535.7263 
   1   1.0000     -19.675009      -535.3842 
   2   1.0000     -19.622284      -533.9495 
   3   1.0000     -19.598841      -533.3116 
   4   1.0000     -14.803379      -402.8204 
   5   1.0000     -14.782884      -402.2627 
   6   1.0000     -10.703601      -291.2598 
   7   1.0000     -10.673149      -290.4312 
   8   1.0000     -10.655581      -289.9531 
   9   1.0000     -10.612785      -288.7886 
  10   1.0000     -10.590416      -288.1799 
  11   1.0000     -10.578454      -287.8544 
  12   1.0000     -10.570933      -287.6497 
  13   1.0000     -10.550088      -287.0825 
  14   1.0000      -1.236762       -33.6540 
  15   1.0000      -1.185476       -32.2585 
  16   1.0000      -1.161667       -31.6106 
  17   1.0000      -1.105734       -30.0886 
  18   1.0000      -1.056978       -28.7618 
  19   1.0000      -1.044333       -28.4177 
  20   1.0000      -0.924318       -25.1520 
  21   1.0000      -0.867640       -23.6097 
  22   1.0000      -0.835579       -22.7373 
  23   1.0000      -0.803493       -21.8641 
  24   1.0000      -0.741783       -20.1850 
  25   1.0000      -0.695133       -18.9155 
  26   1.0000      -0.673673       -18.3316 
  27   1.0000      -0.640969       -17.4417 
  28   1.0000      -0.632450       -17.2098 
  29   1.0000      -0.583949       -15.8901 
  30   1.0000      -0.580199       -15.7880 
  31   1.0000      -0.572470       -15.5777 
  32   1.0000      -0.561996       -15.2927 
  33   1.0000      -0.552635       -15.0380 
  34   1.0000      -0.548532       -14.9263 
  35   1.0000      -0.540928       -14.7194 
  36   1.0000      -0.530735       -14.4420 
  37   1.0000      -0.520603       -14.1663 
  38   1.0000      -0.500394       -13.6164 
  39   1.0000      -0.495682       -13.4882 
  40   1.0000      -0.483550       -13.1581 
  41   1.0000      -0.479785       -13.0556 
  42   1.0000      -0.471829       -12.8391 
  43   1.0000      -0.459414       -12.5013 
  44   1.0000      -0.448234       -12.1971 
  45   1.0000      -0.442159       -12.0318 
  46   1.0000      -0.426676       -11.6105 
  47   1.0000      -0.391507       -10.6534 
  48   1.0000      -0.363540        -9.8924 
  49   1.0000      -0.358677        -9.7601 
  50   1.0000      -0.350517        -9.5381 
  51   1.0000      -0.339898        -9.2491 
  52   1.0000      -0.330305        -8.9881 
  53   0.0000      -0.146774        -3.9939 
  54   0.0000       0.020091         0.5467 
  55   0.0000       0.033545         0.9128 
  56   0.0000       0.037456         1.0192 
  57   0.0000       0.052795         1.4366 
  58   0.0000       0.054621         1.4863 
  59   0.0000       0.077038         2.0963 
  60   0.0000       0.085410         2.3241 
  61   0.0000       0.100124         2.7245 
  62   0.0000       0.109694         2.9849 
  63   0.0000       0.116855         3.1798 
  64   0.0000       0.120174         3.2701 
  65   0.0000       0.133139         3.6229 
  66   0.0000       0.135711         3.6929 
  67   0.0000       0.140103         3.8124 
  68   0.0000       0.149944         4.0802 
  69   0.0000       0.154134         4.1942 
  70   0.0000       0.162307         4.4166 
  71   0.0000       0.168778         4.5927 
  72   0.0000       0.175817         4.7842 
  73   0.0000       0.182198         4.9579 
  74   0.0000       0.197878         5.3845 
  75   0.0000       0.202482         5.5098 
  76   0.0000       0.208041         5.6611 
  77   0.0000       0.218080         5.9343 
  78   0.0000       0.221734         6.0337 
  79   0.0000       0.224363         6.1052 
  80   0.0000       0.242099         6.5879 
  81   0.0000       0.242538         6.5998 
  82   0.0000       0.250958         6.8289 
  83   0.0000       0.253080         6.8866 
  84   0.0000       0.261682         7.1207 
  85   0.0000       0.277709         7.5568 
  86   0.0000       0.281655         7.6642 
  87   0.0000       0.298077         8.1111 
  88   0.0000       0.301243         8.1972 
  89   0.0000       0.323568         8.8047 
  90   0.0000       0.324494         8.8299 
  91   0.0000       0.334936         9.1141 
  92   0.0000       0.348308         9.4779 
  93   0.0000       0.360946         9.8218 
  94   0.0000       0.376921        10.2565 
  95   0.0000       0.379913        10.3380 
  96   0.0000       0.384160        10.4535 
  97   0.0000       0.384992        10.4762 
  98   0.0000       0.398894        10.8545 
  99   0.0000       0.403184        10.9712 
 100   0.0000       0.410294        11.1647 
 101   0.0000       0.414623        11.2825 
 102   0.0000       0.420161        11.4332 
 103   0.0000       0.426240        11.5986 
 104   0.0000       0.428076        11.6485 
 105   0.0000       0.435926        11.8622 
 106   0.0000       0.436733        11.8841 
 107   0.0000       0.443278        12.0622 
 108   0.0000       0.449483        12.2311 
 109   0.0000       0.459419        12.5014 
 110   0.0000       0.463282        12.6065 
 111   0.0000       0.470820        12.8117 
 112   0.0000       0.478778        13.0282 
 113   0.0000       0.479773        13.0553 
 114   0.0000       0.490022        13.3342 
 115   0.0000       0.493411        13.4264 
 116   0.0000       0.499968        13.6048 
 117   0.0000       0.506737        13.7890 
 118   0.0000       0.509168        13.8552 
 119   0.0000       0.512926        13.9574 
 120   0.0000       0.531290        14.4571 
 121   0.0000       0.536665        14.6034 
 122   0.0000       0.548818        14.9341 
 123   0.0000       0.551156        14.9977 
[...]
     71      -0.009844   0.002813   0.000146  -0.005465   0.000011  -0.000131
     72       0.185461  -0.099537  -0.004382   0.231378   0.000319  -0.000300
     73       0.033308  -0.017534  -0.000998   0.049221   0.000062   0.000077
     74       0.516806  -0.308192  -0.013634   0.716469   0.001187  -0.001357
     75       0.024499   0.058909  -0.000636   0.037033   0.000014  -0.000126
     76       0.004973   0.010517  -0.000236   0.012171   0.000023  -0.000076
     77       0.101821   0.284880  -0.003629   0.169791  -0.000151  -0.000501
     78       0.004867   0.863601  -0.008142   0.320627  -0.001727  -0.001087
     79       0.001275  -0.154729   0.001550  -0.061841   0.000227   0.000131
     80      -0.001319   0.053498  -0.000567   0.018888  -0.000176   0.000051
                 78         79         80    
      0      -0.000030  -0.033230   0.000760
      1      -0.000008   0.014191  -0.000336
      2      -0.000037   0.064000  -0.001567
      3       0.000053  -0.000093   0.000212
      4       0.000013   0.000188  -0.000015
      5       0.000024  -0.000118   0.000023
      6      -0.000383   0.000401  -0.000712
      7       0.000065  -0.000214  -0.000200
      8       0.000689  -0.000372  -0.001418
      9      -0.000244  -0.000133  -0.001030
     10      -0.000003   0.000100   0.000378
     11      -0.000508   0.000645   0.000732
     12       0.000138   0.000213  -0.000031
     13      -0.000010   0.000185  -0.000058
     14       0.000041   0.000021  -0.000006
     15      -0.000038  -0.000078   0.000067
     16      -0.000002   0.000020   0.000022
     17      -0.000073  -0.000026  -0.000004
     18      -0.000003  -0.000036  -0.000003
     19      -0.000017  -0.000003  -0.000081
     20       0.000013   0.000025   0.000022
     21       0.000011   0.000027   0.000009
     22      -0.000008   0.000001   0.000005
     23       0.000004  -0.000013  -0.000008
     24       0.000011   0.000006  -0.000010
     25      -0.000004  -0.000005   0.000042
     26       0.000008  -0.000001  -0.000004
     27      -0.000087   0.464215  -0.010324
     28       0.000078  -0.184577   0.004280
     29       0.000352  -0.862753   0.020747
     30       0.000079   0.005706  -0.001141
     31       0.000102  -0.006172   0.000676
     32       0.000329  -0.001016   0.000727
     33       0.000009  -0.000816   0.000046
     34       0.000007  -0.000284   0.000061
     35       0.000010  -0.000344   0.000148
     36       0.000708   0.000534   0.041657
     37      -0.000313  -0.000388  -0.021428
     38      -0.000676  -0.001291  -0.056445
     39      -0.011225  -0.014291  -0.559681
     40       0.005146   0.007238   0.293181
     41       0.005163   0.017813   0.771151
     42      -0.000005   0.000282   0.000012
     43       0.000001  -0.000510  -0.000009
     44      -0.000008  -0.001591  -0.000028
     45      -0.000005  -0.000070  -0.000002
     46       0.000014   0.000157  -0.000010
     47       0.000028   0.000298  -0.000004
     48      -0.000055  -0.000388  -0.000010
     49       0.000115   0.000016   0.000021
     50      -0.000089  -0.000233  -0.000014
     51      -0.000052  -0.000266  -0.000042
     52      -0.000111  -0.000433  -0.000024
     53      -0.000034  -0.000128  -0.000003
     54       0.000074  -0.000096   0.000067
     55      -0.000051  -0.001369   0.000013
     56      -0.000246  -0.005518   0.000077
     57      -0.075884   0.000030   0.001077
     58       0.029947   0.000020  -0.000331
     59       0.043350   0.000105   0.000726
     60       0.037121  -0.000078  -0.000215
     61      -0.204425   0.000154  -0.000097
     62       0.066581  -0.000248  -0.000389
     63       0.264089  -0.000336  -0.001502
     64       0.196608  -0.000147  -0.000266
     65       0.000903  -0.000055  -0.001045
     66       0.612356   0.000443  -0.006363
     67      -0.350403  -0.000071   0.004411
     68      -0.580963   0.000137   0.010646
     69      -0.001585   0.001541  -0.001549
     70       0.000099   0.000562   0.001138
     71       0.000069  -0.000092  -0.000058
     72      -0.000166  -0.000432  -0.000145
     73      -0.000075  -0.000822   0.000268
     74      -0.000432   0.000851  -0.000536
     75       0.000327   0.000310   0.000057
     76      -0.000080   0.000307  -0.000360
     77       0.001010   0.000181   0.000024
     78       0.000229   0.000480  -0.000191
     79      -0.000023  -0.000718  -0.000130
     80      -0.000024  -0.000189  -0.000075


-----------
IR SPECTRUM
-----------

 Mode   freq       eps      Int      T**2         TX        TY        TZ
       cm**-1   L/(mol*cm) km/mol    a.u.
----------------------------------------------------------------------------
  6:     20.49   0.000124    0.63  0.001886  ( 0.015894 -0.000686  0.040410)
  7:     35.96   0.000537    2.71  0.004656  ( 0.026356 -0.051800  0.035752)
  8:     46.78   0.000258    1.30  0.001718  ( 0.016623  0.037871  0.002796)
  9:     62.38   0.000464    2.35  0.002322  ( 0.035546  0.002791  0.032415)
 10:     66.59   0.000592    2.99  0.002773  ( 0.015130  0.050429 -0.000963)
 11:     86.67   0.000310    1.57  0.001116  (-0.027880 -0.017474 -0.005817)
 12:     97.48   0.001855    9.37  0.005938  ( 0.001571  0.071232 -0.029349)
 13:    117.29   0.001527    7.72  0.004062  ( 0.042569 -0.025802  0.039803)
 14:    159.44   0.000347    1.75  0.000680  (-0.005614  0.015746 -0.020003)
 15:    167.50   0.002786   14.08  0.005190  ( 0.043697  0.048396  0.030630)
 16:    192.81   0.000305    1.54  0.000494  ( 0.015763  0.001973  0.015559)
 17:    211.76   0.000314    1.59  0.000462  ( 0.009550 -0.013065  0.014154)
 18:    246.36   0.000532    2.69  0.000674  (-0.023685 -0.003743 -0.009934)
 19:    299.92   0.000718    3.63  0.000747  ( 0.021761  0.011680  0.011691)
 20:    326.64   0.000411    2.08  0.000393  (-0.016122 -0.011507  0.000738)
 21:    383.27   0.016486   83.32  0.013423  (-0.069998  0.091605 -0.011494)
 22:    396.97   0.011323   57.22  0.008901  ( 0.003332 -0.086553 -0.037398)
 23:    464.06   0.007387   37.33  0.004967  ( 0.023796  0.061163 -0.025693)
 24:    528.55   0.003473   17.55  0.002051  ( 0.030199 -0.029551  0.016291)
 25:    533.98   0.003406   17.21  0.001991  ( 0.043977 -0.006150  0.004351)
 26:    546.34   0.030161  152.42  0.017228  (-0.001639 -0.128683  0.025807)
 27:    559.56   0.001036    5.23  0.000578  (-0.006532 -0.023126  0.000269)
 28:    608.18   0.008912   45.04  0.004573  ( 0.032472 -0.057393 -0.014988)
 29:    644.52   0.002711   13.70  0.001313  (-0.026309 -0.017910 -0.017310)
 30:    667.00   0.000825    4.17  0.000386  (-0.010855  0.011742 -0.011422)
 31:    696.17   0.000296    1.49  0.000132  (-0.010680 -0.004079  0.001324)
 32:    777.66   0.012090   61.10  0.004852  (-0.033789  0.053661  0.028819)
 33:    809.38   0.005711   28.86  0.002202  (-0.033209  0.028785 -0.016444)
 34:    856.04   0.035724  180.54  0.013023  ( 0.083814 -0.074940 -0.019551)
 35:    895.26   0.000262    1.32  0.000091  ( 0.005289 -0.006526 -0.004563)
 36:    937.02   0.001281    6.47  0.000426  ( 0.014262 -0.005348 -0.013945)
 37:    973.50   0.005382   27.20  0.001725  ( 0.033551 -0.018899 -0.015564)
 38:   1005.72   0.004453   22.50  0.001382  (-0.036265  0.002522 -0.007757)
 39:   1015.65   0.001373    6.94  0.000422  ( 0.008939 -0.009846 -0.015656)
 40:   1055.76   0.000845    4.27  0.000250  ( 0.008347 -0.012574 -0.004702)
 41:   1066.58   0.001359    6.87  0.000398  ( 0.002068 -0.019622  0.002873)
 42:   1072.44   0.000920    4.65  0.000268  ( 0.015845 -0.001904 -0.003606)
 43:   1106.51   0.000195    0.99  0.000055  (-0.003592  0.006454  0.000742)
 44:   1160.64   0.000826    4.17  0.000222  (-0.013716 -0.001136 -0.005718)
 45:   1171.28   0.001342    6.78  0.000358  (-0.001166  0.001053 -0.018844)
 46:   1186.45   0.008082   40.84  0.002126  (-0.042780  0.012761 -0.011524)
 47:   1222.64   0.000571    2.89  0.000146  (-0.010508 -0.004660 -0.003687)
 48:   1244.77   0.004995   25.24  0.001252  ( 0.020491  0.004647  0.028473)
 49:   1273.87   0.009951   50.29  0.002438  ( 0.039975 -0.005660  0.028421)
 50:   1279.67   0.003069   15.51  0.000749  (-0.013939 -0.021338  0.009945)
 51:   1316.87   0.004092   20.68  0.000970  (-0.026266  0.007486 -0.014961)
 52:   1343.82   0.004809   24.30  0.001117  (-0.019688 -0.014641 -0.022688)
 53:   1386.12   0.002413   12.20  0.000543  ( 0.010609  0.000666  0.020744)
 54:   1405.52   0.003668   18.54  0.000814  (-0.023905 -0.003335 -0.015229)
 55:   1410.83   0.006233   31.50  0.001379  (-0.033416 -0.005281 -0.015300)
 56:   1452.47   0.002913   14.72  0.000626  (-0.018555  0.012239  0.011480)
 57:   1457.87   0.002143   10.83  0.000459  ( 0.016685 -0.003006 -0.013091)
 58:   1475.31   0.001710    8.64  0.000362  ( 0.003364  0.018460  0.003106)
 59:   1486.16   0.011954   60.41  0.002510  ( 0.022435  0.006513  0.044320)
 60:   1496.94   0.003001   15.16  0.000626  ( 0.016396  0.003127 -0.018626)
 61:   1506.76   0.015094   76.28  0.003126  ( 0.039993  0.003943  0.038874)
 62:   1514.16   0.002495   12.61  0.000514  (-0.004666  0.016475 -0.014869)
 63:   1543.41   0.096022  485.26  0.019415  ( 0.118040  0.027888  0.068583)
 64:   1594.81   0.031379  158.58  0.006140  ( 0.062756 -0.031876  0.034434)
 65:   1650.31   0.046041  232.67  0.008706  ( 0.032043  0.080015 -0.035734)
 66:   1779.38   0.087221  440.78  0.015297  ( 0.066148 -0.037986 -0.097355)
 67:   1791.81   0.015666   79.17  0.002728  ( 0.045879  0.005180  0.024428)
 68:   3067.01   0.001146    5.79  0.000117  (-0.002180 -0.010479  0.001441)
 69:   3076.20   0.003574   18.06  0.000363  (-0.014349  0.008868 -0.008835)
 70:   3080.46   0.006719   33.96  0.000681  (-0.018718  0.006797 -0.016856)
 71:   3089.83   0.000461    2.33  0.000047  (-0.005223  0.001032  0.004267)
 72:   3099.55   0.000940    4.75  0.000095  ( 0.009457 -0.002088  0.000927)
 73:   3135.23   0.000034    0.17  0.000003  ( 0.001709  0.000102  0.000675)
 74:   3148.66   0.002173   10.98  0.000215  ( 0.006336  0.013085 -0.002014)
 75:   3154.24   0.000439    2.22  0.000043  (-0.004528  0.003601 -0.003162)
 76:   3173.10   0.000300    1.52  0.000029  ( 0.002138  0.003078 -0.003930)
 77:   3181.09   0.001282    6.48  0.000126  (-0.003163  0.003662  0.010115)
 78:   3195.24   0.000003    0.01  0.000000  (-0.000410 -0.000026 -0.000279)
 79:   3612.83   0.020669  104.45  0.001785  (-0.002252 -0.006154 -0.041742)
 80:   3655.85   0.008628   43.60  0.000736  (-0.021337  0.009360  0.013914)

* The epsilon (eps) is given for a Dirac delta lineshape.
** The dipole moment derivative (T) already includes vibrational overlap.

The first frequency considered to be a vibration is 6
The total number of vibrations considered is 75


--------------------------
THERMOCHEMISTRY AT 298.15K
--------------------------

Temperature         ... 298.15 K
Pressure            ... 1.00 atm
Total Mass          ... 201.20 AMU

Throughout the following assumptions are being made:
  (1) The electronic state is orbitally nondegenerate
      but the spin degeneracy is treated
  (2) There are no thermally accessible electronically excited states
  (3) Hindered rotations indicated by low frequency modes are not
      treated as such but are treated as vibrations and this may
      cause some error
  (4) All equations used are the standard statistical mechanics
      equations for an ideal gas
  (5) All vibrations are strictly harmonic

freq.      20.49  E(vib)   ...       0.56 
freq.      35.96  E(vib)   ...       0.54 
freq.      46.78  E(vib)   ...       0.53 
freq.      62.38  E(vib)   ...       0.51 
freq.      66.59  E(vib)   ...       0.50 
freq.      86.67  E(vib)   ...       0.48 
freq.      97.48  E(vib)   ...       0.46 
freq.     117.29  E(vib)   ...       0.44 
freq.     159.44  E(vib)   ...       0.39 
freq.     167.50  E(vib)   ...       0.38 
freq.     192.81  E(vib)   ...       0.36 
freq.     211.76  E(vib)   ...       0.34 
freq.     246.36  E(vib)   ...       0.31 
freq.     299.92  E(vib)   ...       0.26 
freq.     326.64  E(vib)   ...       0.24 
freq.     383.27  E(vib)   ...       0.20 
freq.     396.97  E(vib)   ...       0.20 
freq.     464.06  E(vib)   ...       0.16 
freq.     528.55  E(vib)   ...       0.13 
freq.     533.98  E(vib)   ...       0.13 
freq.     546.34  E(vib)   ...       0.12 
freq.     559.56  E(vib)   ...       0.12 
freq.     608.18  E(vib)   ...       0.10 
freq.     644.52  E(vib)   ...       0.09 
freq.     667.00  E(vib)   ...       0.08 
freq.     696.17  E(vib)   ...       0.07 
freq.     777.66  E(vib)   ...       0.05 
freq.     809.38  E(vib)   ...       0.05 
freq.     856.04  E(vib)   ...       0.04 
freq.     895.26  E(vib)   ...       0.03 
freq.     937.02  E(vib)   ...       0.03 
freq.     973.50  E(vib)   ...       0.03 
freq.    1005.72  E(vib)   ...       0.02 
freq.    1015.65  E(vib)   ...       0.02 
freq.    1055.76  E(vib)   ...       0.02 
freq.    1066.58  E(vib)   ...       0.02 
freq.    1072.44  E(vib)   ...       0.02 
freq.    1106.51  E(vib)   ...       0.02 
freq.    1160.64  E(vib)   ...       0.01 
freq.    1171.28  E(vib)   ...       0.01 
freq.    1186.45  E(vib)   ...       0.01 
freq.    1222.64  E(vib)   ...       0.01 
freq.    1244.77  E(vib)   ...       0.01 
freq.    1273.87  E(vib)   ...       0.01 
freq.    1279.67  E(vib)   ...       0.01 
freq.    1316.87  E(vib)   ...       0.01 
freq.    1343.82  E(vib)   ...       0.01 
freq.    1386.12  E(vib)   ...       0.00 
freq.    1405.52  E(vib)   ...       0.00 
freq.    1410.83  E(vib)   ...       0.00 
freq.    1452.47  E(vib)   ...       0.00 
freq.    1457.87  E(vib)   ...       0.00 
freq.    1475.31  E(vib)   ...       0.00 
freq.    1486.16  E(vib)   ...       0.00 
freq.    1496.94  E(vib)   ...       0.00 
freq.    1506.76  E(vib)   ...       0.00 
freq.    1514.16  E(vib)   ...       0.00 
freq.    1543.41  E(vib)   ...       0.00 
freq.    1594.81  E(vib)   ...       0.00 
freq.    1650.31  E(vib)   ...       0.00 
freq.    1779.38  E(vib)   ...       0.00 
freq.    1791.81  E(vib)   ...       0.00 
freq.    3067.01  E(vib)   ...       0.00 
freq.    3076.20  E(vib)   ...       0.00 
freq.    3080.46  E(vib)   ...       0.00 
freq.    3089.83  E(vib)   ...       0.00 
freq.    3099.55  E(vib)   ...       0.00 
freq.    3135.23  E(vib)   ...       0.00 
freq.    3148.66  E(vib)   ...       0.00 
freq.    3154.24  E(vib)   ...       0.00 
freq.    3173.10  E(vib)   ...       0.00 
freq.    3181.09  E(vib)   ...       0.00 
freq.    3195.24  E(vib)   ...       0.00 
freq.    3612.83  E(vib)   ...       0.00 
freq.    3655.85  E(vib)   ...       0.00 

------------
INNER ENERGY
------------

The inner energy is: U= E(el) + E(ZPE) + E(vib) + E(rot) + E(trans)
    E(el)   - is the total energy from the electronic structure calculation
              = E(kin-el) + E(nuc-el) + E(el-el) + E(nuc-nuc)
    E(ZPE)  - the the zero temperature vibrational energy from the frequency calculation
    E(vib)  - the the finite temperature correction to E(ZPE) due to population
              of excited vibrational states
    E(rot)  - is the rotational thermal energy
    E(trans)- is the translational thermal energy

Summary of contributions to the inner energy U:
Electronic energy                ...   -723.04912098 Eh
Zero point energy                ...      0.21770023 Eh     136.61 kcal/mol
Thermal vibrational correction   ...      0.01302526 Eh       8.17 kcal/mol
Thermal rotational correction    ...      0.00141627 Eh       0.89 kcal/mol
Thermal translational correction ...      0.00141627 Eh       0.89 kcal/mol
-----------------------------------------------------------------------
Total thermal energy                   -722.81556294 Eh


Summary of corrections to the electronic energy:
(perhaps to be used in another calculation)
Total thermal correction                  0.01585780 Eh       9.95 kcal/mol
Non-thermal (ZPE) correction              0.21770023 Eh     136.61 kcal/mol
-----------------------------------------------------------------------
Total correction                          0.23355803 Eh     146.56 kcal/mol


--------
ENTHALPY
--------

The enthalpy is H = U + kB*T
                kB is Boltzmann's constant
Total free energy                 ...   -722.81556294 Eh 
Thermal Enthalpy correction       ...      0.00094421 Eh       0.59 kcal/mol
-----------------------------------------------------------------------
Total Enthalpy                    ...   -722.81461873 Eh


Note: Only C1 symmetry has been detected, increase convergence thresholds 
      if your molecule has a higher symmetry. Symmetry factor of 1.0 is   
      used for the rotational entropy correction. 
 

Note: Rotational entropy computed according to Herzberg 
Infrared and Raman Spectra, Chapter V,1, Van Nostrand Reinhold, 1945 
Point Group:  C1, Symmetry Number:   1  
Rotational constants in cm-1:     0.020417     0.017101     0.010871 

Vibrational entropy computed according to the QRRHO of S. Grimme
Chem.Eur.J. 2012 18 9955


-------
ENTROPY
-------

The entropy contributions are T*S = T*(S(el)+S(vib)+S(rot)+S(trans))
     S(el)   - electronic entropy
     S(vib)  - vibrational entropy
     S(rot)  - rotational entropy
     S(trans)- translational entropy
The entropies will be listed as multiplied by the temperature to get
units of energy

Electronic entropy                ...      0.00065446 Eh      0.41 kcal/mol
Vibrational entropy               ...      0.02394192 Eh     15.02 kcal/mol
Rotational entropy                ...      0.01540328 Eh      9.67 kcal/mol
Translational entropy             ...      0.01986141 Eh     12.46 kcal/mol
-----------------------------------------------------------------------
Final entropy term                ...      0.05986107 Eh     37.56 kcal/mol

In case the symmetry of your molecule has not been determined correctly
or in case you have a reason to use a different symmetry number we print 
out the resulting rotational entropy values for sn=1,12 :
 --------------------------------------------------------
|  sn= 1 | S(rot)=       0.01540328 Eh      9.67 kcal/mol|
|  sn= 2 | S(rot)=       0.01474882 Eh      9.26 kcal/mol|
|  sn= 3 | S(rot)=       0.01436599 Eh      9.01 kcal/mol|
|  sn= 4 | S(rot)=       0.01409436 Eh      8.84 kcal/mol|
|  sn= 5 | S(rot)=       0.01388368 Eh      8.71 kcal/mol|
|  sn= 6 | S(rot)=       0.01371153 Eh      8.60 kcal/mol|
|  sn= 7 | S(rot)=       0.01356599 Eh      8.51 kcal/mol|
|  sn= 8 | S(rot)=       0.01343991 Eh      8.43 kcal/mol|
|  sn= 9 | S(rot)=       0.01332870 Eh      8.36 kcal/mol|
|  sn=10 | S(rot)=       0.01322922 Eh      8.30 kcal/mol|
|  sn=11 | S(rot)=       0.01313923 Eh      8.24 kcal/mol|
|  sn=12 | S(rot)=       0.01305708 Eh      8.19 kcal/mol|
 --------------------------------------------------------


-------------------
GIBBS FREE ENERGY
-------------------

The Gibbs free energy is G = H - T*S

Total enthalpy                    ...   -722.81461873 Eh 
Total entropy correction          ...     -0.05986107 Eh    -37.56 kcal/mol
-----------------------------------------------------------------------
Final Gibbs free energy         ...   -722.87447980 Eh

For completeness - the Gibbs free energy minus the electronic energy
G-E(el)                           ...      0.17464117 Eh    109.59 kcal/mol


Timings for individual modules:

Sum of individual times         ...     1428.514 sec (=  23.809 min)
GTO integral calculation        ...       32.187 sec (=   0.536 min)   2.3 %
SCF iterations                  ...      576.820 sec (=   9.614 min)  40.4 %
SCF Gradient evaluation         ...      123.557 sec (=   2.059 min)   8.6 %
Geometry relaxation             ...        0.405 sec (=   0.007 min)   0.0 %
Analytical frequency calculation...      695.545 sec (=  11.592 min)  48.7 %
                             ****ORCA TERMINATED NORMALLY****
TOTAL RUN TIME: 0 days 0 hours 24 minutes 15 seconds 910 msec
