27
Energy: -722.75469719
N      -4.416545000000000     -4.642250000000000     -0.729473000000000
C      -2.974261000000000     -4.673987000000000     -0.700087000000000
C      -2.542896000000000     -4.665822000000000      0.776657000000000
O      -3.302816000000000     -4.316130000000000      1.661001000000000
C      -2.342455000000000     -3.486629000000000     -1.472066000000000
C      -2.697475000000000     -2.127356000000000     -0.849510000000000
C      -2.063430000000000     -0.980613000000000     -1.584697000000000
O      -1.173579000000000     -1.078613000000000     -2.444902000000000
O      -2.361413000000000      0.223580000000000     -1.386036000000000
H      -4.874257000000000     -4.431040000000000      0.147255000000000
H      -2.636206000000000     -5.599648000000000     -1.185348000000000
C      -5.110189000000000     -5.069562000000000     -1.818692000000000
N      -1.261484000000000     -5.020021000000000      1.010702000000000
H      -0.706929000000000     -5.379191000000000      0.249642000000000
O      -4.549684000000000     -5.422054000000000     -2.838381000000000
C      -6.625205000000000     -5.084144000000000     -1.680762000000000
H      -7.057226000000000     -4.555393000000000     -2.536933000000000
H      -6.963235000000000     -6.126155000000000     -1.726569000000000
H      -6.979074000000000     -4.629884000000000     -0.749469000000000
C      -0.712713000000000     -5.043681000000000      2.355222000000000
H      -1.148396000000000     -5.857797000000000      2.948636000000000
H       0.370485000000000     -5.180858000000000      2.291909000000000
H      -0.928002000000000     -4.096565000000000      2.860683000000000
H      -1.252735000000000     -3.609358000000000     -1.503065000000000
H      -2.705289000000000     -3.541814000000000     -2.504720000000000
H      -2.360272000000000     -2.056525000000000      0.195429000000000
H      -3.782123000000000     -1.958944000000000     -0.836643000000000
