
                                 *****************
                                 * O   R   C   A *
                                 *****************

                                            #,                                       
                                            ###                                      
                                            ####                                     
                                            #####                                    
                                            ######                                   
                                           ########,                                 
                                     ,,################,,,,,                         
                               ,,#################################,,                 
                          ,,##########################################,,             
                       ,#########################################, ''#####,          
                    ,#############################################,,   '####,        
                  ,##################################################,,,,####,       
                ,###########''''           ''''###############################       
              ,#####''   ,,,,##########,,,,          '''####'''          '####       
            ,##' ,,,,###########################,,,                        '##       
           ' ,,###''''                  '''############,,,                           
         ,,##''                                '''############,,,,        ,,,,,,###''
      ,#''                                            '''#######################'''  
     '                                                          ''''####''''         
             ,#######,   #######,   ,#######,      ##                                
            ,#'     '#,  ##    ##  ,#'     '#,    #''#        ######   ,####,        
            ##       ##  ##   ,#'  ##            #'  '#       #        #'  '#        
            ##       ##  #######   ##           ,######,      #####,   #    #        
            '#,     ,#'  ##    ##  '#,     ,#' ,#      #,         ##   #,  ,#        
             '#######'   ##     ##  '#######'  #'      '#     #####' # '####'        



                  #######################################################
                  #                        -***-                        #
                  #          Department of theory and spectroscopy      #
                  #    Directorship and core code : Frank Neese         #
                  #        Max Planck Institute fuer Kohlenforschung    #
                  #                Kaiser Wilhelm Platz 1               #
                  #                 D-45470 Muelheim/Ruhr               #
                  #                      Germany                        #
                  #                                                     #
                  #                  All rights reserved                #
                  #                        -***-                        #
                  #######################################################


                         Program Version 5.0.4 -  RELEASE  -


 With contributions from (in alphabetic order):
   Daniel Aravena         : Magnetic Suceptibility
   Michael Atanasov       : Ab Initio Ligand Field Theory (pilot matlab implementation)
   Alexander A. Auer      : GIAO ZORA, VPT2 properties, NMR spectrum
   Ute Becker             : Parallelization
   Giovanni Bistoni       : ED, misc. LED, open-shell LED, HFLD
   Martin Brehm           : Molecular dynamics
   Dmytro Bykov           : SCF Hessian
   Vijay G. Chilkuri      : MRCI spin determinant printing, contributions to CSF-ICE
   Dipayan Datta          : RHF DLPNO-CCSD density
   Achintya Kumar Dutta   : EOM-CC, STEOM-CC
   Dmitry Ganyushin       : Spin-Orbit,Spin-Spin,Magnetic field MRCI
   Miquel Garcia          : C-PCM and meta-GGA Hessian, CC/C-PCM, Gaussian charge scheme
   Yang Guo               : DLPNO-NEVPT2, F12-NEVPT2, CIM, IAO-localization
   Andreas Hansen         : Spin unrestricted coupled pair/coupled cluster methods
   Benjamin Helmich-Paris : MC-RPA, TRAH-SCF, COSX integrals
   Lee Huntington         : MR-EOM, pCC
   Robert Izsak           : Overlap fitted RIJCOSX, COSX-SCS-MP3, EOM
   Marcus Kettner         : VPT2
   Christian Kollmar      : KDIIS, OOCD, Brueckner-CCSD(T), CCSD density, CASPT2, CASPT2-K
   Simone Kossmann        : Meta GGA functionals, TD-DFT gradient, OOMP2, MP2 Hessian
   Martin Krupicka        : Initial AUTO-CI
   Lucas Lang             : DCDCAS
   Marvin Lechner         : AUTO-CI (C++ implementation), FIC-MRCC
   Dagmar Lenk            : GEPOL surface, SMD
   Dimitrios Liakos       : Extrapolation schemes; Compound Job, initial MDCI parallelization
   Dimitrios Manganas     : Further ROCIS development; embedding schemes
   Dimitrios Pantazis     : SARC Basis sets
   Anastasios Papadopoulos: AUTO-CI, single reference methods and gradients
   Taras Petrenko         : DFT Hessian,TD-DFT gradient, ASA, ECA, R-Raman, ABS, FL, XAS/XES, NRVS
   Peter Pinski           : DLPNO-MP2, DLPNO-MP2 Gradient
   Christoph Reimann      : Effective Core Potentials
   Marius Retegan         : Local ZFS, SOC
   Christoph Riplinger    : Optimizer, TS searches, QM/MM, DLPNO-CCSD(T), (RO)-DLPNO pert. Triples
   Tobias Risthaus        : Range-separated hybrids, TD-DFT gradient, RPA, STAB
   Michael Roemelt        : Original ROCIS implementation
   Masaaki Saitow         : Open-shell DLPNO-CCSD energy and density
   Barbara Sandhoefer     : DKH picture change effects
   Avijit Sen             : IP-ROCIS
   Kantharuban Sivalingam : CASSCF convergence, NEVPT2, FIC-MRCI
   Bernardo de Souza      : ESD, SOC TD-DFT
   Georgi Stoychev        : AutoAux, RI-MP2 NMR, DLPNO-MP2 response
   Willem Van den Heuvel  : Paramagnetic NMR
   Boris Wezisla          : Elementary symmetry handling
   Frank Wennmohs         : Technical directorship


 We gratefully acknowledge several colleagues who have allowed us to
 interface, adapt or use parts of their codes:
   Stefan Grimme, W. Hujo, H. Kruse, P. Pracht,  : VdW corrections, initial TS optimization,
                  C. Bannwarth, S. Ehlert          DFT functionals, gCP, sTDA/sTD-DF
   Ed Valeev, F. Pavosevic, A. Kumar             : LibInt (2-el integral package), F12 methods
   Garnet Chan, S. Sharma, J. Yang, R. Olivares  : DMRG
   Ulf Ekstrom                                   : XCFun DFT Library
   Mihaly Kallay                                 : mrcc  (arbitrary order and MRCC methods)
   Jiri Pittner, Ondrej Demel                    : Mk-CCSD
   Frank Weinhold                                : gennbo (NPA and NBO analysis)
   Christopher J. Cramer and Donald G. Truhlar   : smd solvation model
   Lars Goerigk                                  : TD-DFT with DH, B97 family of functionals
   V. Asgeirsson, H. Jonsson                     : NEB implementation
   FAccTs GmbH                                   : IRC, NEB, NEB-TS, DLPNO-Multilevel, CI-OPT
                                                   MM, QMMM, 2- and 3-layer-ONIOM, Crystal-QMMM,
                                                   LR-CPCM, SF, NACMEs, symmetry and pop. for TD-DFT,
                                                   nearIR, NL-DFT gradient (VV10), updates on ESD,
                                                   ML-optimized integration grids
   S Lehtola, MJT Oliveira, MAL Marques          : LibXC Library
   Liviu Ungur et al                             : ANISO software


 Your calculation uses the libint2 library for the computation of 2-el integrals
 For citations please refer to: http://libint.valeyev.net

 Your ORCA version has been built with support for libXC version: 5.1.0
 For citations please refer to: https://tddft.org/programs/libxc/

 This ORCA versions uses:
   CBLAS   interface :  Fast vector & matrix operations
   LAPACKE interface :  Fast linear algebra routines
   SCALAPACK package :  Parallel linear algebra routines
   Shared memory     :  Shared parallel matrices
   BLAS/LAPACK       :  OpenBLAS 0.3.15  USE64BITINT DYNAMIC_ARCH NO_AFFINITY Zen SINGLE_THREADED
        Core in use  :  Zen
   Copyright (c) 2011-2014, The OpenBLAS Project




***************************************
The coordinates will be read from file: model.xyz
***************************************


================================================================================

----- Orbital basis set information -----
Your calculation utilizes the basis: EPR-II
   V. Barone, in Recent Advances in Density Functional Methods, Part 1 (ed. D. P. Chong), World Scientific, Singapore, 1995, p. 287.

----- AuxJ basis set information -----
Your calculation utilizes the auxiliary basis: def2/J
   F. Weigend, Phys. Chem. Chem. Phys. 8, 1057 (2006).

================================================================================
                                        WARNINGS
                       Please study these warnings very carefully!
================================================================================


WARNING: your system is open-shell and RHF/RKS was chosen
  ===> : WILL SWITCH to UHF/UKS


WARNING: Geometry Optimization
  ===> : Switching off AutoStart
         For restart on a previous wavefunction, please use MOREAD

INFO   : the flag for use of the SHARK integral package has been found!

================================================================================
                                       INPUT FILE
================================================================================
NAME = opt.inp
|  1> ! B3LYP EPR-II OPT
|  2> %pal nprocs 16 end
|  3> *XYZFile 0 2 model.xyz
|  4> 
|  5>                          ****END OF INPUT****
================================================================================

                       *****************************
                       * Geometry Optimization Run *
                       *****************************

Geometry optimization settings:
Update method            Update   .... BFGS
Choice of coordinates    CoordSys .... Z-matrix Internals
Initial Hessian          InHess   .... Almoef's Model

Convergence Tolerances:
Energy Change            TolE     ....  5.0000e-06 Eh
Max. Gradient            TolMAXG  ....  3.0000e-04 Eh/bohr
RMS Gradient             TolRMSG  ....  1.0000e-04 Eh/bohr
Max. Displacement        TolMAXD  ....  4.0000e-03 bohr
RMS Displacement         TolRMSD  ....  2.0000e-03 bohr
Strict Convergence                ....  False
------------------------------------------------------------------------------
                        ORCA OPTIMIZATION COORDINATE SETUP
------------------------------------------------------------------------------

The optimization will be done in new redundant internal coordinates
Making redundant internal coordinates   ...  (new redundants) done
Evaluating the initial hessian          ...  (Almloef) done
Evaluating the coordinates              ...  done
Calculating the B-matrix                .... done
Calculating the G-matrix                .... done
Diagonalizing the G-matrix              .... done
Small eigenvalue found = 1.031e-02
Small eigenvalue found = 1.331e-02
Small eigenvalue found = 1.411e-02
The first mode is                       ....   52
The number of degrees of freedom        ....   75

    -----------------------------------------------------------------
                    Redundant Internal Coordinates


    -----------------------------------------------------------------
         Definition                    Initial Value    Approx d2E/dq
    -----------------------------------------------------------------
      1. B(C   1,N   0)                  1.4429         0.460707   
      2. B(C   2,C   1)                  1.5385         0.362119   
      3. B(O   3,C   2)                  1.2173         1.055364   
      4. B(C   4,C   1)                  1.5508         0.346105   
      5. B(C   5,C   4)                  1.5366         0.364583   
      6. B(C   6,C   5)                  1.5025         0.413274   
      7. B(O   7,C   6)                  1.2415         0.965502   
      8. B(O   8,C   6)                  1.2563         0.914435   
      9. B(H   9,N   0)                  1.0113         0.430620   
     10. B(H  10,C   1)                  1.0985         0.349085   
     11. B(C  11,N   0)                  1.3602         0.624345   
     12. B(N  12,C   2)                  1.3499         0.648396   
     13. B(H  13,N  12)                  1.0078         0.436151   
     14. B(O  14,C  11)                  1.2158         1.061188   
     15. B(C  15,C  11)                  1.5214         0.385634   
     16. B(H  16,C  15)                  1.0951         0.353413   
     17. B(H  17,C  15)                  1.0964         0.351699   
     18. B(H  18,C  15)                  1.0949         0.353631   
     19. B(C  19,N  12)                  1.4524         0.444972   
     20. B(H  20,C  19)                  1.0976         0.350174   
     21. B(H  21,C  19)                  1.0937         0.355260   
     22. B(H  22,C  19)                  1.0949         0.353639   
     23. B(H  23,C   4)                  1.0970         0.350897   
     24. B(H  24,C   4)                  1.0959         0.352337   
     25. B(H  25,C   5)                  1.1003         0.346752   
     26. B(H  26,C   5)                  1.0977         0.350031   
     27. A(C   1,N   0,H   9)          116.0608         0.340863   
     28. A(H   9,N   0,C  11)          121.9391         0.358800   
     29. A(C   1,N   0,C  11)          121.2738         0.406850   
     30. A(C   2,C   1,C   4)          111.0712         0.356755   
     31. A(N   0,C   1,H  10)          108.4909         0.332009   
     32. A(N   0,C   1,C   4)          112.3490         0.369426   
     33. A(C   4,C   1,H  10)          107.4524         0.318665   
     34. A(N   0,C   1,C   2)          107.4390         0.372312   
     35. A(C   2,C   1,H  10)          110.0123         0.321028   
     36. A(C   1,C   2,O   3)          121.5887         0.430776   
     37. A(O   3,C   2,N  12)          122.8205         0.475735   
     38. A(C   1,C   2,N  12)          115.5429         0.395095   
     39. A(C   5,C   4,H  23)          109.8709         0.321657   
     40. A(C   1,C   4,H  23)          109.4570         0.318935   
     41. A(C   1,C   4,C   5)          112.4247         0.357167   
     42. A(H  23,C   4,H  24)          107.2537         0.288673   
     43. A(C   1,C   4,H  24)          107.1946         0.319148   
     44. A(C   5,C   4,H  24)          110.4752         0.321873   
     45. A(C   6,C   5,H  25)          106.6327         0.327710   
     46. A(C   4,C   5,C   6)          112.2961         0.368151   
     47. A(C   6,C   5,H  26)          107.7948         0.328219   
     48. A(C   4,C   5,H  26)          111.6384         0.321527   
     49. A(C   4,C   5,H  25)          111.7714         0.321033   
     50. A(H  25,C   5,H  26)          106.3684         0.287841   
     51. A(C   5,C   6,O   7)          125.5373         0.434130   
     52. A(O   7,C   6,O   8)          110.8071         0.498695   
     53. A(C   5,C   6,O   8)          123.6478         0.429911   
     54. A(O  14,C  11,C  15)          122.1647         0.436110   
     55. A(N   0,C  11,C  15)          115.9920         0.396841   
     56. A(N   0,C  11,O  14)          121.8429         0.472919   
     57. A(H  13,N  12,C  19)          119.0350         0.339613   
     58. A(C   2,N  12,C  19)          121.5635         0.407069   
     59. A(C   2,N  12,H  13)          119.0062         0.361905   
     60. A(H  17,C  15,H  18)          109.2797         0.288942   
     61. A(H  16,C  15,H  18)          109.7039         0.289162   
     62. A(C  11,C  15,H  18)          113.2646         0.325047   
     63. A(H  16,C  15,H  17)          107.7329         0.288914   
     64. A(C  11,C  15,H  17)          108.2003         0.324754   
     65. A(C  11,C  15,H  16)          108.5028         0.325014   
     66. A(N  12,C  19,H  21)          108.8245         0.331064   
     67. A(N  12,C  19,H  20)          111.2595         0.330275   
     68. A(H  21,C  19,H  22)          109.2662         0.289399   
     69. A(H  20,C  19,H  22)          108.2980         0.288746   
     70. A(N  12,C  19,H  22)          109.8140         0.330813   
     71. A(H  20,C  19,H  21)          109.3537         0.288953   
     72. D(H  10,C   1,N   0,C  11)    -39.4180         0.018120   
     73. D(C   2,C   1,N   0,H   9)     12.0989         0.018120   
     74. D(H  10,C   1,N   0,H   9)    130.9992         0.018120   
     75. D(C   4,C   1,N   0,H   9)   -110.3538         0.018120   
     76. D(C   2,C   1,N   0,C  11)   -158.3183         0.018120   
     77. D(C   4,C   1,N   0,C  11)     79.2291         0.018120   
     78. D(O   3,C   2,C   1,N   0)    -18.0937         0.009851   
     79. D(N  12,C   2,C   1,N   0)    164.3579         0.009851   
     80. D(O   3,C   2,C   1,C   4)    105.1470         0.009851   
     81. D(N  12,C   2,C   1,H  10)     46.4400         0.009851   
     82. D(O   3,C   2,C   1,H  10)   -136.0117         0.009851   
     83. D(N  12,C   2,C   1,C   4)    -72.4013         0.009851   
     84. D(C   5,C   4,C   1,N   0)     63.0711         0.009669   
     85. D(C   5,C   4,C   1,C   2)    -57.3036         0.009669   
     86. D(H  24,C   4,C   1,C   2)   -178.8928         0.009669   
     87. D(C   5,C   4,C   1,H  10)   -177.6729         0.009669   
     88. D(H  24,C   4,C   1,N   0)    -58.5181         0.009669   
     89. D(H  23,C   4,C   1,H  10)    -55.2770         0.009669   
     90. D(H  23,C   4,C   1,C   2)     65.0923         0.009669   
     91. D(H  24,C   4,C   1,H  10)     60.7379         0.009669   
     92. D(H  23,C   4,C   1,N   0)   -174.5330         0.009669   
     93. D(H  26,C   5,C   4,H  24)     59.8520         0.010646   
     94. D(H  26,C   5,C   4,H  23)    177.9903         0.010646   
     95. D(H  26,C   5,C   4,C   1)    -59.8480         0.010646   
     96. D(H  25,C   5,C   4,H  24)    178.8581         0.010646   
     97. D(H  25,C   5,C   4,H  23)    -63.0036         0.010646   
     98. D(H  25,C   5,C   4,C   1)     59.1581         0.010646   
     99. D(C   6,C   5,C   4,H  24)    -61.3470         0.010646   
    100. D(C   6,C   5,C   4,H  23)     56.7913         0.010646   
    101. D(C   6,C   5,C   4,C   1)    178.9530         0.010646   
    102. D(O   7,C   6,C   5,C   4)    -11.9283         0.012643   
    103. D(O   8,C   6,C   5,H  26)     45.7991         0.012643   
    104. D(O   8,C   6,C   5,H  25)    -68.0781         0.012643   
    105. D(O   8,C   6,C   5,C   4)    169.1786         0.012643   
    106. D(O   7,C   6,C   5,H  26)   -135.3078         0.012643   
    107. D(O   7,C   6,C   5,H  25)    110.8150         0.012643   
    108. D(C  15,C  11,N   0,H   9)      5.5982         0.031599   
    109. D(C  15,C  11,N   0,C   1)    175.4481         0.031599   
    110. D(O  14,C  11,N   0,H   9)   -174.1775         0.031599   
    111. D(O  14,C  11,N   0,C   1)     -4.3275         0.031599   
    112. D(C  19,N  12,C   2,O   3)      1.8375         0.034295   
    113. D(C  19,N  12,C   2,C   1)    179.3524         0.034295   
    114. D(H  13,N  12,C   2,O   3)    174.5493         0.034295   
    115. D(H  13,N  12,C   2,C   1)     -7.9358         0.034295   
    116. D(H  18,C  15,C  11,O  14)   -173.2854         0.011078   
    117. D(H  18,C  15,C  11,N   0)      6.9397         0.011078   
    118. D(H  17,C  15,C  11,O  14)     65.4033         0.011078   
    119. D(H  17,C  15,C  11,N   0)   -114.3716         0.011078   
    120. D(H  16,C  15,C  11,O  14)    -51.2203         0.011078   
    121. D(H  16,C  15,C  11,N   0)    129.0048         0.011078   
    122. D(H  22,C  19,N  12,H  13)    136.8935         0.016887   
    123. D(H  22,C  19,N  12,C   2)    -50.3967         0.016887   
    124. D(H  21,C  19,N  12,H  13)     17.3314         0.016887   
    125. D(H  21,C  19,N  12,C   2)   -169.9589         0.016887   
    126. D(H  20,C  19,N  12,H  13)   -103.2212         0.016887   
    127. D(H  20,C  19,N  12,C   2)     69.4885         0.016887   
    -----------------------------------------------------------------

Number of atoms                         .... 27
Number of degrees of freedom            .... 127

         *************************************************************
         *                GEOMETRY OPTIMIZATION CYCLE   1            *
         *************************************************************
---------------------------------
CARTESIAN COORDINATES (ANGSTROEM)
---------------------------------
  N     -4.416545   -4.642250   -0.729473
  C     -2.974261   -4.673987   -0.700087
  C     -2.542896   -4.665822    0.776657
  O     -3.302816   -4.316130    1.661001
  C     -2.342455   -3.486629   -1.472066
  C     -2.697475   -2.127356   -0.849510
  C     -2.063430   -0.980613   -1.584697
  O     -1.173579   -1.078613   -2.444902
  O     -2.361413    0.223580   -1.386036
  H     -4.874257   -4.431040    0.147255
  H     -2.636206   -5.599648   -1.185348
  C     -5.110189   -5.069562   -1.818692
  N     -1.261484   -5.020021    1.010702
  H     -0.706929   -5.379191    0.249642
  O     -4.549684   -5.422054   -2.838381
  C     -6.625205   -5.084144   -1.680762
  H     -7.057226   -4.555393   -2.536933
  H     -6.963235   -6.126155   -1.726569
  H     -6.979074   -4.629884   -0.749469
  C     -0.712713   -5.043681    2.355222
  H     -1.148396   -5.857797    2.948636
  H      0.370485   -5.180858    2.291909
  H     -0.928002   -4.096565    2.860683
  H     -1.252735   -3.609358   -1.503065
  H     -2.705289   -3.541814   -2.504720
  H     -2.360272   -2.056525    0.195429
  H     -3.782123   -1.958944   -0.836643

----------------------------
CARTESIAN COORDINATES (A.U.)
----------------------------
  NO LB      ZA    FRAG     MASS         X           Y           Z
   0 N     7.0000    0    14.007   -8.346061   -8.772581   -1.378504
   1 C     6.0000    0    12.011   -5.620539   -8.832555   -1.322973
   2 C     6.0000    0    12.011   -4.805377   -8.817126    1.467669
   3 O     8.0000    0    15.999   -6.241418   -8.156304    3.138837
   4 C     6.0000    0    12.011   -4.426598   -6.588774   -2.781802
   5 C     6.0000    0    12.011   -5.097489   -4.020120   -1.605341
   6 C     6.0000    0    12.011   -3.899318   -1.853090   -2.994643
   7 O     8.0000    0    15.999   -2.217743   -2.038283   -4.620195
   8 O     8.0000    0    15.999   -4.462424    0.422505   -2.619228
   9 H     1.0000    0     1.008   -9.211011   -8.373452    0.278272
  10 H     1.0000    0     1.008   -4.981707  -10.581801   -2.239983
  11 C     6.0000    0    12.011   -9.656858   -9.580084   -3.436830
  12 N     7.0000    0    14.007   -2.383859   -9.486465    1.909950
  13 H     1.0000    0     1.008   -1.335902  -10.165198    0.471755
  14 O     8.0000    0    15.999   -8.597657  -10.246197   -5.363763
  15 C     6.0000    0    12.011  -12.519823   -9.607640   -3.176180
  16 H     1.0000    0     1.008  -13.336224   -8.608445   -4.794109
  17 H     1.0000    0     1.008  -13.158607  -11.576755   -3.262743
  18 H     1.0000    0     1.008  -13.188539   -8.749213   -1.416291
  19 C     6.0000    0    12.011   -1.346832   -9.531176    4.450725
  20 H     1.0000    0     1.008   -2.170154  -11.069632    5.572115
  21 H     1.0000    0     1.008    0.700115   -9.790403    4.331080
  22 H     1.0000    0     1.008   -1.753670   -7.741386    5.405907
  23 H     1.0000    0     1.008   -2.367326   -6.820698   -2.840381
  24 H     1.0000    0     1.008   -5.112255   -6.693058   -4.733235
  25 H     1.0000    0     1.008   -4.460268   -3.886269    0.369307
  26 H     1.0000    0     1.008   -7.147177   -3.701868   -1.581026

--------------------------------
INTERNAL COORDINATES (ANGSTROEM)
--------------------------------
 N      0   0   0     0.000000000000     0.00000000     0.00000000
 C      1   0   0     1.442932399948     0.00000000     0.00000000
 C      2   1   0     1.538478232536   107.43896996     0.00000000
 O      3   2   1     1.217303253754   121.58865321   341.90627035
 C      2   1   3     1.550789933628   112.34904153   237.54733620
 C      5   2   1     1.536632116697   112.42474603    63.07107256
 C      6   5   2     1.502508733766   112.29607000   178.95301959
 O      7   6   5     1.241527866875   125.53733104   348.07165179
 O      7   6   5     1.256320358212   123.64784362   169.17857031
 H      1   2   3     1.011316926106   116.06082477    12.09885445
 H      2   1   3     1.098456966871   108.49091014   118.90029851
 C      1   2   3     1.360196887969   121.27376937   201.68172160
 N      3   2   1     1.349907666239   115.54285582   164.35792917
 H     13   3   2     1.007842577254   119.00616425   352.06415611
 O     12   1   2     1.215805133157   121.84293033   355.67247229
 C     12   1   2     1.521351635842   115.99195623   175.44812063
 H     16  12   1     1.095102070897   108.50275784   129.00484072
 H     16  12   1     1.096425777821   108.20026424   245.62840848
 H     16  12   1     1.094934732580   113.26458976     6.93971258
 C     13   3   2     1.452392314921   121.56349525   179.35236913
 H     20  13   3     1.097608633959   111.25945431    69.48853747
 H     20  13   3     1.093683671133   108.82447217   190.04112248
 H     20  13   3     1.094928716172   109.81401138   309.60327214
 H      5   2   1     1.097047411848   109.45701358   185.46699749
 H      5   2   1     1.095932561564   107.19464403   301.48194105
 H      6   5   2     1.100281967266   111.77137635    59.15814316
 H      6   5   2     1.097720112477   111.63838285   300.15203553

---------------------------
INTERNAL COORDINATES (A.U.)
---------------------------
 N      0   0   0     0.000000000000     0.00000000     0.00000000
 C      1   0   0     2.726747065664     0.00000000     0.00000000
 C      2   1   0     2.907302522492   107.43896996     0.00000000
 O      3   2   1     2.300369771526   121.58865321   341.90627035
 C      2   1   3     2.930568265798   112.34904153   237.54733620
 C      5   2   1     2.903813869145   112.42474603    63.07107256
 C      6   5   2     2.839330020642   112.29607000   178.95301959
 O      7   6   5     2.346147656024   125.53733104   348.07165179
 O      7   6   5     2.374101413491   123.64784362   169.17857031
 H      1   2   3     1.911112024939   116.06082477    12.09885445
 H      2   1   3     2.075782837284   108.49091014   118.90029851
 C      1   2   3     2.570399606474   121.27376937   201.68172160
 N      3   2   1     2.550955795272   115.54285582   164.35792917
 H     13   3   2     1.904546457115   119.00616425   352.06415611
 O     12   1   2     2.297538733882   121.84293033   355.67247229
 C     12   1   2     2.874937945135   115.99195623   175.44812063
 H     16  12   1     2.069443002685   108.50275784   129.00484072
 H     16  12   1     2.071944446253   108.20026424   245.62840848
 H     16  12   1     2.069126779094   113.26458976     6.93971258
 C     13   3   2     2.744623714212   121.56349525   179.35236913
 H     20  13   3     2.074179720410   111.25945431    69.48853747
 H     20  13   3     2.066762615582   108.82447217   190.04112248
 H     20  13   3     2.069115409731   109.81401138   309.60327214
 H      5   2   1     2.073119164319   109.45701358   185.46699749
 H      5   2   1     2.071012402603   107.19464403   301.48194105
 H      6   5   2     2.079231588225   111.77137635    59.15814316
 H      6   5   2     2.074390384279   111.63838285   300.15203553

---------------------
BASIS SET INFORMATION
---------------------
There are 4 groups of distinct atoms

 Group   1 Type N   : 10s5p1d contracted to 6s2p1d pattern {511111/41/1}
 Group   2 Type C   : 10s5p1d contracted to 6s2p1d pattern {511111/41/1}
 Group   3 Type O   : 10s5p1d contracted to 6s2p1d pattern {511111/41/1}
 Group   4 Type H   : 6s1p contracted to 4s1p pattern {3111/1}

Atom   0N    basis set group =>   1
Atom   1C    basis set group =>   2
Atom   2C    basis set group =>   2
Atom   3O    basis set group =>   3
Atom   4C    basis set group =>   2
Atom   5C    basis set group =>   2
Atom   6C    basis set group =>   2
Atom   7O    basis set group =>   3
Atom   8O    basis set group =>   3
Atom   9H    basis set group =>   4
Atom  10H    basis set group =>   4
Atom  11C    basis set group =>   2
Atom  12N    basis set group =>   1
Atom  13H    basis set group =>   4
Atom  14O    basis set group =>   3
Atom  15C    basis set group =>   2
Atom  16H    basis set group =>   4
Atom  17H    basis set group =>   4
Atom  18H    basis set group =>   4
Atom  19C    basis set group =>   2
Atom  20H    basis set group =>   4
Atom  21H    basis set group =>   4
Atom  22H    basis set group =>   4
Atom  23H    basis set group =>   4
Atom  24H    basis set group =>   4
Atom  25H    basis set group =>   4
Atom  26H    basis set group =>   4
---------------------------------
AUXILIARY/J BASIS SET INFORMATION
---------------------------------
There are 4 groups of distinct atoms

 Group   1 Type N   : 12s5p4d2f1g contracted to 6s4p3d1f1g pattern {711111/2111/211/2/1}
 Group   2 Type C   : 12s5p4d2f1g contracted to 6s4p3d1f1g pattern {711111/2111/211/2/1}
 Group   3 Type O   : 12s5p4d2f1g contracted to 6s4p3d1f1g pattern {711111/2111/211/2/1}
 Group   4 Type H   : 5s2p1d contracted to 3s1p1d pattern {311/2/1}

Atom   0N    basis set group =>   1
Atom   1C    basis set group =>   2
Atom   2C    basis set group =>   2
Atom   3O    basis set group =>   3
Atom   4C    basis set group =>   2
Atom   5C    basis set group =>   2
Atom   6C    basis set group =>   2
Atom   7O    basis set group =>   3
Atom   8O    basis set group =>   3
Atom   9H    basis set group =>   4
Atom  10H    basis set group =>   4
Atom  11C    basis set group =>   2
Atom  12N    basis set group =>   1
Atom  13H    basis set group =>   4
Atom  14O    basis set group =>   3
Atom  15C    basis set group =>   2
Atom  16H    basis set group =>   4
Atom  17H    basis set group =>   4
Atom  18H    basis set group =>   4
Atom  19C    basis set group =>   2
Atom  20H    basis set group =>   4
Atom  21H    basis set group =>   4
Atom  22H    basis set group =>   4
Atom  23H    basis set group =>   4
Atom  24H    basis set group =>   4
Atom  25H    basis set group =>   4
Atom  26H    basis set group =>   4


           ************************************************************
           *        Program running with 16 parallel MPI-processes    *
           *              working on a common directory               *
           ************************************************************
------------------------------------------------------------------------------
                           ORCA GTO INTEGRAL CALCULATION
                           -- RI-GTO INTEGRALS CHOSEN --
------------------------------------------------------------------------------
------------------------------------------------------------------------------
                   ___                                                        
                  /   \      - P O W E R E D   B Y -                         
                 /     \                                                     
                 |  |  |   _    _      __       _____    __    __             
                 |  |  |  | |  | |    /  \     |  _  \  |  |  /  |          
                  \  \/   | |  | |   /    \    | | | |  |  | /  /          
                 / \  \   | |__| |  /  /\  \   | |_| |  |  |/  /          
                |  |  |   |  __  | /  /__\  \  |    /   |      \           
                |  |  |   | |  | | |   __   |  |    \   |  |\   \          
                \     /   | |  | | |  |  |  |  | |\  \  |  | \   \       
                 \___/    |_|  |_| |__|  |__|  |_| \__\ |__|  \__/        
                                                                              
                      - O R C A' S   B I G   F R I E N D -                    
                                      &                                       
                       - I N T E G R A L  F E E D E R -                       
                                                                              
 v1 FN, 2020, v2 2021                                                         
------------------------------------------------------------------------------


Reading SHARK input file opt.SHARKINP.tmp ... ok
----------------------
SHARK INTEGRAL PACKAGE
----------------------

Number of atoms                             ...     27
Number of basis functions                   ...    329
Number of shells                            ...    191
Maximum angular momentum                    ...      2
Integral batch strategy                     ... SHARK/LIBINT Hybrid
RI-J (if used) integral strategy            ... SPLIT-RIJ (Revised 2003 algorithm where possible)
Printlevel                                  ...      1
Contraction scheme used                     ... SEGMENTED contraction
Coulomb Range Separation                    ... NOT USED
Exchange Range Separation                   ... NOT USED
Finite Nucleus Model                        ... NOT USED
Auxiliary Coulomb fitting basis             ... AVAILABLE
   # of basis functions in Aux-J            ...    829
   # of shells in Aux-J                     ...    275
   Maximum angular momentum in Aux-J        ...      4
Auxiliary J/K fitting basis                 ... NOT available
Auxiliary Correlation fitting basis         ... NOT available
Auxiliary 'external' fitting basis          ... NOT available
Integral threshold                          ...     2.500000e-11
Primitive cut-off                           ...     2.500000e-12
Primitive pair pre-selection threshold      ...     2.500000e-12

Calculating pre-screening integrals         ... done (  0.0 sec) Dimension = 191
Organizing shell pair data                  ... done (  0.0 sec)
Shell pair information
Total number of shell pairs                 ...     18336
Shell pairs after pre-screening             ...     12922
Total number of primitive shell pairs       ...     50033
Primitive shell pairs kept                  ...     25552
          la=0 lb=0:   5882 shell pairs
          la=1 lb=0:   4403 shell pairs
          la=1 lb=1:    767 shell pairs
          la=2 lb=0:   1309 shell pairs
          la=2 lb=1:    480 shell pairs
          la=2 lb=2:     81 shell pairs

Calculating one electron integrals          ... done (  0.0 sec)
Calculating RI/J V-Matrix + Cholesky decomp.... done (  0.0 sec)
Calculating Nuclear repulsion               ... done (  0.0 sec) ENN=    917.195802922391 Eh

SHARK setup successfully completed in   0.2 seconds

Maximum memory used throughout the entire GTOINT-calculation: 19.7 MB


           ************************************************************
           *        Program running with 16 parallel MPI-processes    *
           *              working on a common directory               *
           ************************************************************
-------------------------------------------------------------------------------
                                 ORCA SCF
-------------------------------------------------------------------------------

------------
SCF SETTINGS
------------
Hamiltonian:
 Density Functional     Method          .... DFT(GTOs)
 Exchange Functional    Exchange        .... B88
   X-Alpha parameter    XAlpha          ....  0.666667
   Becke's b parameter  XBeta           ....  0.004200
 Correlation Functional Correlation     .... LYP
 LDA part of GGA corr.  LDAOpt          .... VWN-5
 Gradients option       PostSCFGGA      .... off
 Hybrid DFT is turned on
   Fraction HF Exchange ScalHFX         ....  0.200000
   Scaling of DF-GGA-X  ScalDFX         ....  0.720000
   Scaling of DF-GGA-C  ScalDFC         ....  0.810000
   Scaling of DF-LDA-C  ScalLDAC        ....  1.000000
   Perturbative correction              ....  0.000000
   Density functional embedding theory  .... OFF
   NL short-range parameter             ....  4.800000
 RI-approximation to the Coulomb term is turned on
   Number of AuxJ basis functions       .... 829
   RIJ-COSX (HFX calculated with COS-X)).... on


General Settings:
 Integral files         IntName         .... opt
 Hartree-Fock type      HFTyp           .... UHF
 Total Charge           Charge          ....    0
 Multiplicity           Mult            ....    2
 Number of Electrons    NEL             ....  107
 Basis Dimension        Dim             ....  329
 Nuclear Repulsion      ENuc            ....    917.1958029224 Eh

Convergence Acceleration:
 DIIS                   CNVDIIS         .... on
   Start iteration      DIISMaxIt       ....    12
   Startup error        DIISStart       ....  0.200000
   # of expansion vecs  DIISMaxEq       ....     5
   Bias factor          DIISBfac        ....   1.050
   Max. coefficient     DIISMaxC        ....  10.000
 Trust-Rad. Augm. Hess. CNVTRAH         .... auto
   Auto Start mean grad. ratio tolernc. ....  1.125000
   Auto Start start iteration           ....    20
   Auto Start num. interpolation iter.  ....    10
   Max. Number of Micro iterations      ....    16
   Max. Number of Macro iterations      .... Maxiter - #DIIS iter
   Number of Davidson start vectors     ....     2
   Converg. threshold I  (grad. norm)   ....   1.000e-05
   Converg. threshold II (energy diff.) ....   1.000e-08
   Grad. Scal. Fac. for Micro threshold ....   0.100
   Minimum threshold for Micro iter.    ....   0.010
   NR start threshold (gradient norm)   ....   0.001
   Initial trust radius                 ....   0.400
   Minimum AH scaling param. (alpha)    ....   1.000
   Maximum AH scaling param. (alpha)    .... 1000.000
   Orbital update algorithm             .... Taylor
   White noise on init. David. guess    .... on
   Maximum white noise                  ....   0.010
   Quad. conv. algorithm                .... NR
 SOSCF                  CNVSOSCF        .... off
 Level Shifting         CNVShift        .... on
   Level shift para.    LevelShift      ....    0.2500
   Turn off err/grad.   ShiftErr        ....    0.0010
 Zerner damping         CNVZerner       .... off
 Static damping         CNVDamp         .... on
   Fraction old density DampFac         ....    0.7000
   Max. Damping (<1)    DampMax         ....    0.9800
   Min. Damping (>=0)   DampMin         ....    0.0000
   Turn off err/grad.   DampErr         ....    0.1000
 Fernandez-Rico         CNVRico         .... off

SCF Procedure:
 Maximum # iterations   MaxIter         ....   125
 SCF integral mode      SCFMode         .... Direct
   Integral package                     .... SHARK and LIBINT hybrid scheme
 Reset frequency        DirectResetFreq ....    20
 Integral Threshold     Thresh          ....  2.500e-11 Eh
 Primitive CutOff       TCut            ....  2.500e-12 Eh

Convergence Tolerance:
 Convergence Check Mode ConvCheckMode   .... Total+1el-Energy
 Convergence forced     ConvForced      .... 0
 Energy Change          TolE            ....  1.000e-08 Eh
 1-El. energy change                    ....  1.000e-05 Eh
 DIIS Error             TolErr          ....  5.000e-07


Diagonalization of the overlap matrix:
Smallest eigenvalue                        ... 9.454e-04
Time for diagonalization                   ...    0.013 sec
Threshold for overlap eigenvalues          ... 1.000e-08
Number of eigenvalues below threshold      ... 0
Time for construction of square roots      ...    0.008 sec
Total time needed                          ...    0.022 sec

Time for model grid setup =    0.103 sec

------------------------------
INITIAL GUESS: MODEL POTENTIAL
------------------------------
Loading Hartree-Fock densities                     ... done
Calculating cut-offs                               ... done
Initializing the effective Hamiltonian             ... done
Setting up the integral package (SHARK)            ... done
Starting the Coulomb interaction                   ... done (   0.0 sec)
Reading the grid                                   ... done
Mapping shells                                     ... done
Starting the XC term evaluation                    ... done (   0.0 sec)
  promolecular density results
     # of electrons  =    106.992589402
     EX              =    -90.931256765
     EC              =     -3.675641680
     EX+EC           =    -94.606898445
Transforming the Hamiltonian                       ... done (   0.0 sec)
Diagonalizing the Hamiltonian                      ... done (   0.0 sec)
Back transforming the eigenvectors                 ... done (   0.0 sec)
Now organizing SCF variables                       ... done
                      ------------------
                      INITIAL GUESS DONE (   0.3 sec)
                      ------------------
-------------------
DFT GRID GENERATION
-------------------

General Integration Accuracy     IntAcc      ... 4.388
Radial Grid Type                 RadialGrid  ... OptM3 with GC (2021)
Angular Grid (max. ang.)         AngularGrid ... 4 (Lebedev-302)
Angular grid pruning method      GridPruning ... 4 (adaptive)
Weight generation scheme         WeightScheme... Becke
Basis function cutoff            BFCut       ... 1.0000e-11
Integration weight cutoff        WCut        ... 1.0000e-14
Angular grids for H and He will be reduced by one unit
Partially contracted basis set               ... off
Rotationally invariant grid construction     ... off

Total number of grid points                  ...   125796
Total number of batches                      ...     1981
Average number of points per batch           ...       63
Average number of grid points per atom       ...     4659
Time for grid setup =    0.531 sec

--------------------
COSX GRID GENERATION
--------------------

GRIDX 1
-------
General Integration Accuracy     IntAcc      ... 3.816
Radial Grid Type                 RadialGrid  ... OptM3 with GC (2021)
Angular Grid (max. ang.)         AngularGrid ... 1 (Lebedev-50)
Angular grid pruning method      GridPruning ... 4 (adaptive)
Weight generation scheme         WeightScheme... Becke
Basis function cutoff            BFCut       ... 1.0000e-11
Integration weight cutoff        WCut        ... 1.0000e-14
Angular grids for H and He will be reduced by one unit
Partially contracted basis set               ... on
Rotationally invariant grid construction     ... off

Total number of grid points                  ...    16022
Total number of batches                      ...      265
Average number of points per batch           ...       60
Average number of grid points per atom       ...      593
UseSFitting                                  ... on

GRIDX 2
-------
General Integration Accuracy     IntAcc      ... 4.020
Radial Grid Type                 RadialGrid  ... OptM3 with GC (2021)
Angular Grid (max. ang.)         AngularGrid ... 2 (Lebedev-110)
Angular grid pruning method      GridPruning ... 4 (adaptive)
Weight generation scheme         WeightScheme... Becke
Basis function cutoff            BFCut       ... 1.0000e-11
Integration weight cutoff        WCut        ... 1.0000e-14
Angular grids for H and He will be reduced by one unit
Partially contracted basis set               ... on
Rotationally invariant grid construction     ... off

Total number of grid points                  ...    34685
Total number of batches                      ...      555
Average number of points per batch           ...       62
Average number of grid points per atom       ...     1285
UseSFitting                                  ... on

GRIDX 3
-------
General Integration Accuracy     IntAcc      ... 4.338
Radial Grid Type                 RadialGrid  ... OptM3 with GC (2021)
Angular Grid (max. ang.)         AngularGrid ... 3 (Lebedev-194)
Angular grid pruning method      GridPruning ... 4 (adaptive)
Weight generation scheme         WeightScheme... Becke
Basis function cutoff            BFCut       ... 1.0000e-11
Integration weight cutoff        WCut        ... 1.0000e-14
Angular grids for H and He will be reduced by one unit
Partially contracted basis set               ... on
Rotationally invariant grid construction     ... off

Total number of grid points                  ...    75937
Total number of batches                      ...     1202
Average number of points per batch           ...       63
Average number of grid points per atom       ...     2812
UseSFitting                                  ... on

Time for X-Grid setup             =    0.570 sec

--------------
SCF ITERATIONS
--------------
ITER       Energy         Delta-E        Max-DP      RMS-DP      [F,P]     Damp
               ***  Starting incremental Fock matrix formation  ***
  0   -722.1841235186   0.000000000000 0.09487867  0.00134697  0.1315766 0.7000
  1   -722.4924537808  -0.308330262138 0.06524894  0.00085928  0.0455671 0.7000
                               ***Turning on DIIS***
  2   -722.5940194006  -0.101565619821 0.12745548  0.00129949  0.0230876 0.0000
  3   -722.7797781984  -0.185758797800 0.06124868  0.00083001  0.0493977 0.0000
  4   -722.8197000265  -0.039921828151 0.03264751  0.00034689  0.0086769 0.0000
  5   -722.8247884077  -0.005088381193 0.01753003  0.00017902  0.0083694 0.0000
  6   -722.8265819397  -0.001793531966 0.00885620  0.00008796  0.0033577 0.0000
  7   -722.8270517577  -0.000469818001 0.00416068  0.00004540  0.0017065 0.0000
  8   -722.8272850043  -0.000233246569 0.00328122  0.00003212  0.0013577 0.0000
  9   -722.8274141942  -0.000129189968 0.00206053  0.00002506  0.0010201 0.0000
 10   -722.8275000538  -0.000085859564 0.00701539  0.00007120  0.0008864 0.0000
               *** Restarting incremental Fock matrix formation ***
                                   *** Resetting DIIS ***
 11   -722.8276185088  -0.000118454988 0.00182282  0.00001759  0.0011067 0.0000
 12   -722.8276082534   0.000010255414 0.00121325  0.00000726  0.0020247 0.0000
 13   -722.8276297536  -0.000021500240 0.00214411  0.00001073  0.0007696 0.0000
 14   -722.8276345632  -0.000004809551 0.00050050  0.00000473  0.0004440 0.0000
 15   -722.8276371320  -0.000002568817 0.00085663  0.00000490  0.0002134 0.0000
 16   -722.8276381631  -0.000001031124 0.00026431  0.00000221  0.0001605 0.0000
 17   -722.8276386194  -0.000000456251 0.00045684  0.00000307  0.0000840 0.0000
 18   -722.8276389401  -0.000000320713 0.00026736  0.00000136  0.0000463 0.0000
 19   -722.8276390177  -0.000000077654 0.00017606  0.00000104  0.0000389 0.0000
 20   -722.8276390689  -0.000000051149 0.00010828  0.00000052  0.0000118 0.0000
 21   -722.8276390802  -0.000000011304 0.00004501  0.00000024  0.0000088 0.0000
 22   -722.8276390931  -0.000000012929 0.00009805  0.00000052  0.0000121 0.0000
 23   -722.8276391033  -0.000000010176 0.00004940  0.00000027  0.0000079 0.0000
 24   -722.8276391031   0.000000000195 0.00003525  0.00000019  0.0000029 0.0000
                 **** Energy Check signals convergence ****

               *****************************************************
               *                     SUCCESS                       *
               *           SCF CONVERGED AFTER  25 CYCLES          *
               *****************************************************

Old exchange energy                            =    -18.429389400 Eh
New exchange energy                            =    -18.429418444 Eh
Exchange energy change after final integration =     -0.000029044 Eh
Total energy after final integration           =   -722.827668145 Eh
Final COS-X integration done in                =     1.814 sec

----------------
TOTAL SCF ENERGY
----------------

Total Energy       :         -722.82766814 Eh          -19669.14081 eV

Components:
Nuclear Repulsion  :          917.19580292 Eh           24958.16665 eV
Electronic Energy  :        -1640.02347107 Eh          -44627.30746 eV
One Electron Energy:        -2805.55712258 Eh          -76343.09051 eV
Two Electron Energy:         1165.53365151 Eh           31715.78306 eV
Max COSX asymmetry :            0.00000140 Eh               0.00004 eV

Virial components:
Potential Energy   :        -1441.20388384 Eh          -39217.15144 eV
Kinetic Energy     :          718.37621570 Eh           19548.01063 eV
Virial Ratio       :            2.00619655


DFT components:
N(Alpha)           :       53.999964916612 electrons
N(Beta)            :       52.999965288011 electrons
N(Total)           :      106.999930204623 electrons
E(X)               :      -73.311229472581 Eh       
E(C)               :       -4.327341720276 Eh       
E(XC)              :      -77.638571192857 Eh       
DFET-embed. en.    :        0.000000000000 Eh       

---------------
SCF CONVERGENCE
---------------

  Last Energy change         ...    1.6605e-09  Tolerance :   1.0000e-08
  Last MAX-Density change    ...    0.0000e+00  Tolerance :   1.0000e-07
  Last RMS-Density change    ...    0.0000e+00  Tolerance :   5.0000e-09
  Last DIIS Error            ...    3.4856e-06  Tolerance :   5.0000e-07

             **** THE GBW FILE WAS UPDATED (opt.gbw) ****
             **** DENSITY opt.scfp WAS UPDATED ****
             **** ENERGY FILE WAS UPDATED (opt.en.tmp) ****
----------------------
UHF SPIN CONTAMINATION
----------------------

Warning: in a DFT calculation there is little theoretical justification to 
         calculate <S**2> as in Hartree-Fock theory. We will do it anyways
         but you should keep in mind that the values have only limited relevance

Expectation value of <S**2>     :     0.756251
Ideal value S*(S+1) for S=0.5   :     0.750000
Deviation                       :     0.006251

             **** THE GBW FILE WAS UPDATED (opt.gbw) ****
             **** DENSITY opt.scfp WAS UPDATED ****
----------------
ORBITAL ENERGIES
----------------
                 SPIN UP ORBITALS
  NO   OCC          E(Eh)            E(eV) 
   0   1.0000     -19.206108      -522.6248 
   1   1.0000     -19.199351      -522.4409 
   2   1.0000     -19.135751      -520.7103 
   3   1.0000     -19.111619      -520.0536 
   4   1.0000     -14.384160      -391.4129 
   5   1.0000     -14.362351      -390.8195 
   6   1.0000     -10.343275      -281.4548 
   7   1.0000     -10.313510      -280.6449 
   8   1.0000     -10.297702      -280.2147 
   9   1.0000     -10.254196      -279.0309 
  10   1.0000     -10.236455      -278.5481 
  11   1.0000     -10.223863      -278.2055 
  12   1.0000     -10.214206      -277.9427 
  13   1.0000     -10.194743      -277.4131 
  14   1.0000      -1.145893       -31.1813 
  15   1.0000      -1.068465       -29.0744 
  16   1.0000      -1.044100       -28.4114 
  17   1.0000      -1.023633       -27.8545 
  18   1.0000      -0.948341       -25.8057 
  19   1.0000      -0.934742       -25.4356 
  20   1.0000      -0.822054       -22.3692 
  21   1.0000      -0.768760       -20.9190 
  22   1.0000      -0.738457       -20.0944 
  23   1.0000      -0.709020       -19.2934 
  24   1.0000      -0.651634       -17.7319 
  25   1.0000      -0.612995       -16.6805 
  26   1.0000      -0.590066       -16.0565 
  27   1.0000      -0.560794       -15.2600 
  28   1.0000      -0.553318       -15.0566 
  29   1.0000      -0.529947       -14.4206 
  30   1.0000      -0.504063       -13.7163 
  31   1.0000      -0.496018       -13.4973 
  32   1.0000      -0.488205       -13.2847 
  33   1.0000      -0.480571       -13.0770 
  34   1.0000      -0.474291       -12.9061 
  35   1.0000      -0.469071       -12.7641 
  36   1.0000      -0.457652       -12.4533 
  37   1.0000      -0.444673       -12.1002 
  38   1.0000      -0.433735       -11.8025 
  39   1.0000      -0.423741       -11.5306 
  40   1.0000      -0.416427       -11.3316 
  41   1.0000      -0.408728       -11.1221 
  42   1.0000      -0.401956       -10.9378 
  43   1.0000      -0.387086       -10.5332 
  44   1.0000      -0.382808       -10.4167 
  45   1.0000      -0.376422       -10.2430 
  46   1.0000      -0.363378        -9.8880 
  47   1.0000      -0.346721        -9.4348 
  48   1.0000      -0.337861        -9.1937 
  49   1.0000      -0.333153        -9.0656 
  50   1.0000      -0.285930        -7.7805 
  51   1.0000      -0.283676        -7.7192 
  52   1.0000      -0.263925        -7.1818 
  53   1.0000      -0.258628        -7.0376 
  54   0.0000      -0.013119        -0.3570 
  55   0.0000      -0.001367        -0.0372 
  56   0.0000      -0.000043        -0.0012 
  57   0.0000       0.015381         0.4185 
  58   0.0000       0.020901         0.5687 
  59   0.0000       0.025867         0.7039 
  60   0.0000       0.032650         0.8884 
  61   0.0000       0.052657         1.4329 
  62   0.0000       0.061796         1.6815 
  63   0.0000       0.074205         2.0192 
  64   0.0000       0.080543         2.1917 
  65   0.0000       0.099342         2.7032 
  66   0.0000       0.104758         2.8506 
  67   0.0000       0.139138         3.7861 
  68   0.0000       0.144019         3.9190 
  69   0.0000       0.153958         4.1894 
  70   0.0000       0.156517         4.2590 
  71   0.0000       0.165538         4.5045 
  72   0.0000       0.172302         4.6886 
  73   0.0000       0.175420         4.7734 
  74   0.0000       0.178391         4.8543 
  75   0.0000       0.183523         4.9939 
  76   0.0000       0.188453         5.1281 
  77   0.0000       0.202030         5.4975 
  78   0.0000       0.208879         5.6839 
  79   0.0000       0.217514         5.9189 
  80   0.0000       0.219082         5.9615 
  81   0.0000       0.236354         6.4315 
  82   0.0000       0.239563         6.5189 
  83   0.0000       0.245679         6.6853 
  84   0.0000       0.250715         6.8223 
  85   0.0000       0.255846         6.9619 
  86   0.0000       0.259281         7.0554 
  87   0.0000       0.267619         7.2823 
  88   0.0000       0.275870         7.5068 
  89   0.0000       0.285801         7.7770 
  90   0.0000       0.289711         7.8834 
  91   0.0000       0.297582         8.0976 
  92   0.0000       0.301679         8.2091 
  93   0.0000       0.309830         8.4309 
  94   0.0000       0.314816         8.5666 
  95   0.0000       0.331211         9.0127 
  96   0.0000       0.332872         9.0579 
  97   0.0000       0.346479         9.4282 
  98   0.0000       0.354857         9.6562 
  99   0.0000       0.362528         9.8649 
 100   0.0000       0.368686        10.0325 
 101   0.0000       0.387541        10.5455 
 102   0.0000       0.399015        10.8577 
 103   0.0000       0.405099        11.0233 
 104   0.0000       0.413916        11.2632 
 105   0.0000       0.429830        11.6963 
 106   0.0000       0.439163        11.9502 
 107   0.0000       0.448884        12.2148 
 108   0.0000       0.454300        12.3621 
 109   0.0000       0.469721        12.7818 
 110   0.0000       0.472860        12.8672 
 111   0.0000       0.492347        13.3974 
 112   0.0000       0.498420        13.5627 
 113   0.0000       0.513230        13.9657 
 114   0.0000       0.520449        14.1621 
 115   0.0000       0.527136        14.3441 
 116   0.0000       0.529194        14.4001 
 117   0.0000       0.556970        15.1559 
 118   0.0000       0.582747        15.8574 
 119   0.0000       0.597378        16.2555 
 120   0.0000       0.601406        16.3651 
 121   0.0000       0.646879        17.6025 
 122   0.0000       0.660128        17.9630 
 123   0.0000       0.674533        18.3550 
 124   0.0000       0.680138        18.5075 
 125   0.0000       0.693797        18.8792 
 126   0.0000       0.708777        19.2868 
 127   0.0000       0.749418        20.3927 
 128   0.0000       0.755628        20.5617 
 129   0.0000       0.778672        21.1888 
 130   0.0000       0.786614        21.4049 
 131   0.0000       0.797072        21.6894 
 132   0.0000       0.805853        21.9284 
 133   0.0000       0.815363        22.1872 
 134   0.0000       0.824297        22.4303 
 135   0.0000       0.827126        22.5073 
 136   0.0000       0.838459        22.8156 
 137   0.0000       0.848075        23.0773 
 138   0.0000       0.852340        23.1933 
 139   0.0000       0.861272        23.4364 
 140   0.0000       0.865244        23.5445 
 141   0.0000       0.873560        23.7708 
 142   0.0000       0.879463        23.9314 
 143   0.0000       0.893445        24.3119 
 144   0.0000       0.902342        24.5540 
 145   0.0000       0.906523        24.6678 
 146   0.0000       0.911315        24.7981 
 147   0.0000       0.919535        25.0218 
 148   0.0000       0.929412        25.2906 
 149   0.0000       0.930948        25.3324 
 150   0.0000       0.950203        25.8563 
 151   0.0000       0.954182        25.9646 
 152   0.0000       0.976377        26.5686 
 153   0.0000       0.979798        26.6617 
 154   0.0000       0.990070        26.9412 
 155   0.0000       0.999299        27.1923 
 156   0.0000       1.019461        27.7410 
 157   0.0000       1.031202        28.0604 
 158   0.0000       1.039899        28.2971 
 159   0.0000       1.059352        28.8264 
 160   0.0000       1.103156        30.0184 
 161   0.0000       1.119309        30.4580 
 162   0.0000       1.131212        30.7819 
 163   0.0000       1.147449        31.2237 
 164   0.0000       1.156447        31.4685 
 165   0.0000       1.161028        31.5932 
 166   0.0000       1.166626        31.7455 
 167   0.0000       1.187469        32.3127 
 168   0.0000       1.199502        32.6401 
 169   0.0000       1.225653        33.3517 
 170   0.0000       1.250764        34.0350 
 171   0.0000       1.287228        35.0273 
 172   0.0000       1.318233        35.8710 
 173   0.0000       1.333506        36.2865 
 174   0.0000       1.343975        36.5714 
 175   0.0000       1.363177        37.0939 
 176   0.0000       1.366882        37.1948 
 177   0.0000       1.395903        37.9844 
 178   0.0000       1.402868        38.1740 
 179   0.0000       1.405350        38.2415 
 180   0.0000       1.425811        38.7983 
 181   0.0000       1.445918        39.3454 
 182   0.0000       1.466388        39.9025 
 183   0.0000       1.475158        40.1411 
 184   0.0000       1.490345        40.5544 
 185   0.0000       1.495371        40.6911 
 186   0.0000       1.503842        40.9216 
 187   0.0000       1.510521        41.1034 
 188   0.0000       1.531302        41.6688 
 189   0.0000       1.552554        42.2471 
 190   0.0000       1.559659        42.4405 
 191   0.0000       1.567131        42.6438 
 192   0.0000       1.578517        42.9536 
 193   0.0000       1.581623        43.0382 
 194   0.0000       1.604939        43.6726 
 195   0.0000       1.622596        44.1531 
 196   0.0000       1.640942        44.6523 
 197   0.0000       1.653178        44.9853 
 198   0.0000       1.673501        45.5383 
 199   0.0000       1.679012        45.6883 
 200   0.0000       1.689823        45.9824 
 201   0.0000       1.697213        46.1835 
 202   0.0000       1.715521        46.6817 
 203   0.0000       1.727040        46.9951 
 204   0.0000       1.739891        47.3448 
 205   0.0000       1.745909        47.5086 
 206   0.0000       1.751484        47.6603 
 207   0.0000       1.769992        48.1639 
 208   0.0000       1.784161        48.5495 
 209   0.0000       1.811234        49.2862 
 210   0.0000       1.826092        49.6905 
 211   0.0000       1.835668        49.9511 
 212   0.0000       1.864585        50.7379 
 213   0.0000       1.875966        51.0476 
 214   0.0000       1.914281        52.0902 
 215   0.0000       1.924553        52.3698 
 216   0.0000       1.960250        53.3411 
 217   0.0000       1.971468        53.6464 
 218   0.0000       1.977301        53.8051 
 219   0.0000       2.018362        54.9224 
 220   0.0000       2.040473        55.5241 
 221   0.0000       2.049893        55.7804 
 222   0.0000       2.067797        56.2676 
 223   0.0000       2.091569        56.9145 
 224   0.0000       2.101647        57.1887 
 225   0.0000       2.134260        58.0762 
 226   0.0000       2.154697        58.6323 
 227   0.0000       2.176438        59.2239 
 228   0.0000       2.188057        59.5400 
 229   0.0000       2.217910        60.3524 
 230   0.0000       2.233095        60.7656 
 231   0.0000       2.245813        61.1117 
 232   0.0000       2.254852        61.3576 
 233   0.0000       2.277882        61.9843 
 234   0.0000       2.314241        62.9737 
 235   0.0000       2.335857        63.5619 
 236   0.0000       2.357372        64.1474 
 237   0.0000       2.373205        64.5782 
 238   0.0000       2.383507        64.8585 
 239   0.0000       2.405461        65.4559 
 240   0.0000       2.419428        65.8360 
 241   0.0000       2.438204        66.3469 
 242   0.0000       2.459108        66.9157 
 243   0.0000       2.476889        67.3996 
 244   0.0000       2.483904        67.5905 
 245   0.0000       2.494787        67.8866 
 246   0.0000       2.520444        68.5848 
 247   0.0000       2.546106        69.2831 
 248   0.0000       2.562104        69.7184 
 249   0.0000       2.563568        69.7582 
 250   0.0000       2.604477        70.8714 
 251   0.0000       2.613140        71.1071 
 252   0.0000       2.635417        71.7133 
 253   0.0000       2.645684        71.9927 
 254   0.0000       2.668571        72.6155 
 255   0.0000       2.694927        73.3327 
 256   0.0000       2.711349        73.7795 
 257   0.0000       2.748554        74.7920 
 258   0.0000       2.757273        75.0292 
 259   0.0000       2.765190        75.2446 
 260   0.0000       2.809900        76.4613 
 261   0.0000       2.932052        79.7852 
 262   0.0000       2.983662        81.1896 
 263   0.0000       2.998707        81.5990 
 264   0.0000       3.029630        82.4404 
 265   0.0000       3.049466        82.9802 
 266   0.0000       3.093052        84.1662 
 267   0.0000       3.115305        84.7718 
 268   0.0000       3.291696        89.5716 
 269   0.0000       3.302908        89.8767 
 270   0.0000       3.375040        91.8395 
 271   0.0000       3.430401        93.3460 
 272   0.0000       3.440813        93.6293 
 273   0.0000       3.444970        93.7424 
 274   0.0000       3.451507        93.9203 
 275   0.0000       4.953333       134.7871 
 276   0.0000       4.978645       135.4758 
 277   0.0000       4.979994       135.5125 
 278   0.0000       4.999230       136.0360 
 279   0.0000       5.009180       136.3067 
 280   0.0000       5.034387       136.9926 
 281   0.0000       5.043411       137.2382 
 282   0.0000       5.064011       137.7988 
 283   0.0000       5.126040       139.4866 
 284   0.0000       5.159922       140.4086 
 285   0.0000       5.231439       142.3547 
 286   0.0000       5.245415       142.7350 
 287   0.0000       5.289414       143.9323 
 288   0.0000       5.296570       144.1270 
 289   0.0000       5.345071       145.4468 
 290   0.0000       5.360016       145.8534 
 291   0.0000       5.484720       149.2468 
 292   0.0000       5.588056       152.0587 
 293   0.0000       5.671603       154.3322 
 294   0.0000       5.716491       155.5536 
 295   0.0000       5.823567       158.4673 
 296   0.0000       7.296707       198.5535 
 297   0.0000       7.327297       199.3859 
 298   0.0000       8.841992       240.6028 
 299   0.0000       9.053046       246.3459 
 300   0.0000       9.083204       247.1665 
 301   0.0000       9.111785       247.9443 
 302   0.0000      29.498307       802.6897 
 303   0.0000      29.619584       805.9899 
 304   0.0000      29.688230       807.8578 
 305   0.0000      29.880712       813.0955 
 306   0.0000      29.953154       815.0668 
 307   0.0000      30.062235       818.0350 
 308   0.0000      30.106318       819.2346 
 309   0.0000      30.232318       822.6632 
 310   0.0000      36.592074       995.7210 
 311   0.0000      36.598294       995.8902 
 312   0.0000      36.600219       995.9426 
 313   0.0000      36.625867       996.6405 
 314   0.0000      36.636765       996.9371 
 315   0.0000      36.657997       997.5148 
 316   0.0000      36.691788       998.4343 
 317   0.0000      36.718603       999.1640 
 318   0.0000      36.791918      1001.1590 
 319   0.0000      36.817460      1001.8540 
 320   0.0000      36.879962      1003.5548 
 321   0.0000      36.906963      1004.2895 
 322   0.0000      36.914079      1004.4832 
 323   0.0000      41.238727      1122.1628 
 324   0.0000      41.267443      1122.9442 
 325   0.0000      53.387927      1452.7593 
 326   0.0000      53.585186      1458.1270 
 327   0.0000      53.620675      1459.0928 
 328   0.0000      53.647031      1459.8099 

                 SPIN DOWN ORBITALS
  NO   OCC          E(Eh)            E(eV) 
   0   1.0000     -19.190466      -522.1991 
   1   1.0000     -19.185905      -522.0750 
   2   1.0000     -19.135751      -520.7102 
   3   1.0000     -19.111588      -520.0528 
   4   1.0000     -14.384154      -391.4127 
   5   1.0000     -14.362287      -390.8177 
   6   1.0000     -10.344430      -281.4863 
   7   1.0000     -10.313513      -280.6450 
   8   1.0000     -10.297708      -280.2149 
   9   1.0000     -10.254113      -279.0286 
  10   1.0000     -10.236455      -278.5481 
  11   1.0000     -10.223948      -278.2078 
  12   1.0000     -10.214036      -277.9381 
  13   1.0000     -10.194743      -277.4131 
  14   1.0000      -1.117982       -30.4218 
  15   1.0000      -1.068456       -29.0742 
  16   1.0000      -1.044040       -28.4098 
  17   1.0000      -0.987355       -26.8673 
  18   1.0000      -0.948331       -25.8054 
  19   1.0000      -0.934590       -25.4315 
  20   1.0000      -0.820934       -22.3388 
  21   1.0000      -0.767766       -20.8920 
  22   1.0000      -0.738437       -20.0939 
  23   1.0000      -0.708209       -19.2714 
  24   1.0000      -0.650613       -17.7041 
  25   1.0000      -0.612986       -16.6802 
  26   1.0000      -0.588939       -16.0259 
  27   1.0000      -0.553841       -15.0708 
  28   1.0000      -0.550052       -14.9677 
  29   1.0000      -0.504351       -13.7241 
  30   1.0000      -0.501788       -13.6543 
  31   1.0000      -0.490230       -13.3398 
  32   1.0000      -0.484959       -13.1964 
  33   1.0000      -0.472478       -12.8568 
  34   1.0000      -0.469400       -12.7730 
  35   1.0000      -0.466040       -12.6816 
  36   1.0000      -0.454584       -12.3699 
  37   1.0000      -0.441113       -12.0033 
  38   1.0000      -0.429282       -11.6814 
  39   1.0000      -0.421581       -11.4718 
  40   1.0000      -0.416371       -11.3300 
  41   1.0000      -0.407696       -11.0940 
  42   1.0000      -0.401731       -10.9316 
  43   1.0000      -0.385843       -10.4993 
  44   1.0000      -0.381715       -10.3870 
  45   1.0000      -0.375099       -10.2070 
  46   1.0000      -0.356539        -9.7019 
  47   1.0000      -0.315861        -8.5950 
  48   1.0000      -0.299084        -8.1385 
  49   1.0000      -0.285781        -7.7765 
  50   1.0000      -0.283642        -7.7183 
  51   1.0000      -0.263927        -7.1818 
  52   1.0000      -0.258583        -7.0364 
  53   0.0000      -0.179870        -4.8945 
  54   0.0000      -0.010629        -0.2892 
  55   0.0000      -0.000766        -0.0209 
  56   0.0000       0.000823         0.0224 
  57   0.0000       0.015465         0.4208 
  58   0.0000       0.021088         0.5738 
  59   0.0000       0.025960         0.7064 
  60   0.0000       0.033146         0.9019 
  61   0.0000       0.052991         1.4420 
  62   0.0000       0.062117         1.6903 
  63   0.0000       0.075564         2.0562 
  64   0.0000       0.081491         2.2175 
  65   0.0000       0.099867         2.7175 
  66   0.0000       0.104964         2.8562 
  67   0.0000       0.139935         3.8078 
  68   0.0000       0.144197         3.9238 
  69   0.0000       0.154319         4.1992 
  70   0.0000       0.157248         4.2789 
  71   0.0000       0.167732         4.5642 
  72   0.0000       0.173437         4.7195 
  73   0.0000       0.175780         4.7832 
  74   0.0000       0.178667         4.8618 
  75   0.0000       0.183874         5.0035 
  76   0.0000       0.188733         5.1357 
  77   0.0000       0.202358         5.5064 
  78   0.0000       0.209087         5.6895 
  79   0.0000       0.218134         5.9357 
  80   0.0000       0.219334         5.9684 
  81   0.0000       0.236477         6.4349 
  82   0.0000       0.240210         6.5365 
  83   0.0000       0.245677         6.6852 
  84   0.0000       0.251170         6.8347 
  85   0.0000       0.256324         6.9749 
  86   0.0000       0.259602         7.0641 
  87   0.0000       0.267648         7.2831 
  88   0.0000       0.276428         7.5220 
  89   0.0000       0.285820         7.7776 
  90   0.0000       0.290082         7.8935 
  91   0.0000       0.297938         8.1073 
  92   0.0000       0.302123         8.2212 
  93   0.0000       0.309897         8.4327 
  94   0.0000       0.315500         8.5852 
  95   0.0000       0.331988         9.0339 
  96   0.0000       0.333564         9.0767 
  97   0.0000       0.347505         9.4561 
  98   0.0000       0.355121         9.6633 
  99   0.0000       0.363020         9.8783 
 100   0.0000       0.369965        10.0672 
 101   0.0000       0.388443        10.5701 
 102   0.0000       0.401114        10.9149 
 103   0.0000       0.405419        11.0320 
 104   0.0000       0.414611        11.2821 
 105   0.0000       0.431209        11.7338 
 106   0.0000       0.440110        11.9760 
 107   0.0000       0.450266        12.2524 
 108   0.0000       0.455084        12.3835 
 109   0.0000       0.474667        12.9163 
 110   0.0000       0.478358        13.0168 
 111   0.0000       0.496296        13.5049 
 112   0.0000       0.499503        13.5922 
 113   0.0000       0.514909        14.0114 
 114   0.0000       0.521292        14.1851 
 115   0.0000       0.528858        14.3910 
 116   0.0000       0.531580        14.4650 
 117   0.0000       0.557201        15.1622 
 118   0.0000       0.582990        15.8640 
 119   0.0000       0.597853        16.2684 
 120   0.0000       0.604231        16.4420 
 121   0.0000       0.647657        17.6237 
 122   0.0000       0.662780        18.0352 
 123   0.0000       0.675116        18.3708 
 124   0.0000       0.681356        18.5407 
 125   0.0000       0.695262        18.9190 
 126   0.0000       0.713758        19.4224 
 127   0.0000       0.750675        20.4269 
 128   0.0000       0.757061        20.6007 
 129   0.0000       0.782188        21.2844 
 130   0.0000       0.788171        21.4472 
 131   0.0000       0.800716        21.7886 
 132   0.0000       0.810734        22.0612 
 133   0.0000       0.824329        22.4311 
 134   0.0000       0.828902        22.5556 
 135   0.0000       0.836701        22.7678 
 136   0.0000       0.840304        22.8658 
 137   0.0000       0.852462        23.1967 
 138   0.0000       0.854459        23.2510 
 139   0.0000       0.863851        23.5066 
 140   0.0000       0.867281        23.5999 
 141   0.0000       0.874162        23.7872 
 142   0.0000       0.880384        23.9565 
 143   0.0000       0.894308        24.3354 
 144   0.0000       0.905008        24.6265 
 145   0.0000       0.907424        24.6923 
 146   0.0000       0.913106        24.8469 
 147   0.0000       0.920847        25.0575 
 148   0.0000       0.930530        25.3210 
 149   0.0000       0.932230        25.3673 
 150   0.0000       0.951891        25.9023 
 151   0.0000       0.957125        26.0447 
 152   0.0000       0.979572        26.6555 
 153   0.0000       0.982403        26.7325 
 154   0.0000       0.991272        26.9739 
 155   0.0000       1.000544        27.2262 
 156   0.0000       1.020584        27.7715 
 157   0.0000       1.031368        28.0650 
 158   0.0000       1.040008        28.3001 
 159   0.0000       1.060074        28.8461 
 160   0.0000       1.103793        30.0357 
 161   0.0000       1.119671        30.4678 
 162   0.0000       1.131394        30.7868 
 163   0.0000       1.147751        31.2319 
 164   0.0000       1.156478        31.4694 
 165   0.0000       1.161473        31.6053 
 166   0.0000       1.166688        31.7472 
 167   0.0000       1.187639        32.3173 
 168   0.0000       1.199623        32.6434 
 169   0.0000       1.226113        33.3642 
 170   0.0000       1.251376        34.0517 
 171   0.0000       1.287551        35.0360 
 172   0.0000       1.318788        35.8861 
 173   0.0000       1.334038        36.3010 
 174   0.0000       1.344260        36.5792 
 175   0.0000       1.363242        37.0957 
 176   0.0000       1.367421        37.2094 
 177   0.0000       1.395908        37.9846 
 178   0.0000       1.402904        38.1749 
 179   0.0000       1.405721        38.2516 
 180   0.0000       1.426632        38.8206 
 181   0.0000       1.446381        39.3580 
 182   0.0000       1.469256        39.9805 
 183   0.0000       1.475996        40.1639 
 184   0.0000       1.492321        40.6081 
 185   0.0000       1.499208        40.7955 
 186   0.0000       1.505222        40.9592 
 187   0.0000       1.510705        41.1084 
 188   0.0000       1.532222        41.6939 
 189   0.0000       1.554380        42.2968 
 190   0.0000       1.560279        42.4573 
 191   0.0000       1.567237        42.6467 
 192   0.0000       1.578795        42.9612 
 193   0.0000       1.585341        43.1393 
 194   0.0000       1.606314        43.7100 
 195   0.0000       1.623770        44.1850 
 196   0.0000       1.641436        44.6658 
 197   0.0000       1.653332        44.9895 
 198   0.0000       1.674201        45.5573 
 199   0.0000       1.679760        45.7086 
 200   0.0000       1.693008        46.0691 
 201   0.0000       1.697806        46.1997 
 202   0.0000       1.716065        46.6965 
 203   0.0000       1.728127        47.0247 
 204   0.0000       1.740629        47.3649 
 205   0.0000       1.749065        47.5945 
 206   0.0000       1.757093        47.8129 
 207   0.0000       1.770681        48.1827 
 208   0.0000       1.785092        48.5748 
 209   0.0000       1.812173        49.3117 
 210   0.0000       1.826299        49.6961 
 211   0.0000       1.836739        49.9802 
 212   0.0000       1.864956        50.7480 
 213   0.0000       1.877021        51.0763 
 214   0.0000       1.915036        52.1108 
 215   0.0000       1.924889        52.3789 
 216   0.0000       1.960496        53.3478 
 217   0.0000       1.971762        53.6544 
 218   0.0000       1.980605        53.8950 
 219   0.0000       2.018840        54.9354 
 220   0.0000       2.040683        55.5298 
 221   0.0000       2.050004        55.7834 
 222   0.0000       2.068039        56.2742 
 223   0.0000       2.091925        56.9242 
 224   0.0000       2.102046        57.1996 
 225   0.0000       2.134435        58.0809 
 226   0.0000       2.154992        58.6403 
 227   0.0000       2.178536        59.2810 
 228   0.0000       2.193148        59.6786 
 229   0.0000       2.218208        60.3605 
 230   0.0000       2.235001        60.8175 
 231   0.0000       2.249928        61.2236 
 232   0.0000       2.254965        61.3607 
 233   0.0000       2.278268        61.9948 
 234   0.0000       2.315751        63.0148 
 235   0.0000       2.336405        63.5768 
 236   0.0000       2.357525        64.1515 
 237   0.0000       2.373549        64.5876 
 238   0.0000       2.383516        64.8588 
 239   0.0000       2.405771        65.4643 
 240   0.0000       2.419544        65.8391 
 241   0.0000       2.438971        66.3678 
 242   0.0000       2.461285        66.9750 
 243   0.0000       2.477120        67.4058 
 244   0.0000       2.483995        67.5929 
 245   0.0000       2.495206        67.8980 
 246   0.0000       2.525091        68.7112 
 247   0.0000       2.560031        69.6620 
 248   0.0000       2.568756        69.8994 
 249   0.0000       2.591706        70.5239 
 250   0.0000       2.614130        71.1341 
 251   0.0000       2.626874        71.4809 
 252   0.0000       2.648325        72.0646 
 253   0.0000       2.681433        72.9655 
 254   0.0000       2.693169        73.2849 
 255   0.0000       2.706780        73.6552 
 256   0.0000       2.711951        73.7959 
 257   0.0000       2.749434        74.8159 
 258   0.0000       2.757649        75.0394 
 259   0.0000       2.765234        75.2458 
 260   0.0000       2.810110        76.4670 
 261   0.0000       2.952789        80.3495 
 262   0.0000       2.984547        81.2137 
 263   0.0000       3.015474        82.0552 
 264   0.0000       3.030063        82.4522 
 265   0.0000       3.056583        83.1738 
 266   0.0000       3.093112        84.1679 
 267   0.0000       3.115422        84.7749 
 268   0.0000       3.316538        90.2476 
 269   0.0000       3.324940        90.4762 
 270   0.0000       3.375092        91.8409 
 271   0.0000       3.430446        93.3472 
 272   0.0000       3.442767        93.6824 
 273   0.0000       3.451076        93.9086 
 274   0.0000       3.474284        94.5401 
 275   0.0000       4.953241       134.7845 
 276   0.0000       4.978644       135.4758 
 277   0.0000       4.979993       135.5125 
 278   0.0000       4.999071       136.0316 
 279   0.0000       5.009154       136.3060 
 280   0.0000       5.034266       136.9893 
 281   0.0000       5.043428       137.2386 
 282   0.0000       5.063868       137.7948 
 283   0.0000       5.125850       139.4815 
 284   0.0000       5.159852       140.4067 
 285   0.0000       5.231462       142.3553 
 286   0.0000       5.245420       142.7351 
 287   0.0000       5.289461       143.9336 
 288   0.0000       5.296452       144.1238 
 289   0.0000       5.345071       145.4468 
 290   0.0000       5.360081       145.8552 
 291   0.0000       5.484653       149.2450 
 292   0.0000       5.588075       152.0592 
 293   0.0000       5.671616       154.3325 
 294   0.0000       5.716485       155.5535 
 295   0.0000       5.823604       158.4683 
 296   0.0000       7.296767       198.5551 
 297   0.0000       7.327402       199.3888 
 298   0.0000       8.874043       241.4750 
 299   0.0000       9.078921       247.0500 
 300   0.0000       9.089335       247.3334 
 301   0.0000       9.112524       247.9644 
 302   0.0000      29.497385       802.6646 
 303   0.0000      29.619545       805.9888 
 304   0.0000      29.687916       807.8493 
 305   0.0000      29.880664       813.0942 
 306   0.0000      29.953093       815.0651 
 307   0.0000      30.062235       818.0350 
 308   0.0000      30.106302       819.2341 
 309   0.0000      30.232351       822.6641 
 310   0.0000      36.592080       995.7211 
 311   0.0000      36.598297       995.8903 
 312   0.0000      36.600225       995.9428 
 313   0.0000      36.625875       996.6407 
 314   0.0000      36.636804       996.9381 
 315   0.0000      36.658190       997.5201 
 316   0.0000      36.691819       998.4352 
 317   0.0000      36.718598       999.1638 
 318   0.0000      36.792074      1001.1632 
 319   0.0000      36.817613      1001.8582 
 320   0.0000      36.879975      1003.5552 
 321   0.0000      36.907010      1004.2908 
 322   0.0000      36.914109      1004.4840 
 323   0.0000      41.238771      1122.1640 
 324   0.0000      41.267487      1122.9454 
 325   0.0000      53.404792      1453.2183 
 326   0.0000      53.601801      1458.5792 
 327   0.0000      53.621430      1459.1133 
 328   0.0000      53.647187      1459.8142 

                    ********************************
[...]
LOEWDIN REDUCED ORBITAL CHARGES AND SPIN POPULATIONS
----------------------------------------------------
CHARGE
  0 N s       :     3.059586  s :     3.059586
      pz      :     1.175449  p :     3.798823
      px      :     1.130086
      py      :     1.493288
      dz2     :     0.018576  d :     0.080191
      dxz     :     0.026779
      dyz     :     0.007339
      dx2y2   :     0.014787
      dxy     :     0.012710
  1 C s       :     2.845377  s :     2.845377
      pz      :     1.009090  p :     2.944085
      px      :     0.905441
      py      :     1.029554
      dz2     :     0.060819  d :     0.256851
      dxz     :     0.041506
      dyz     :     0.033133
      dx2y2   :     0.061793
      dxy     :     0.059600
  2 C s       :     2.841760  s :     2.841760
      pz      :     1.011844  p :     2.769738
      px      :     0.941505
      py      :     0.816389
      dz2     :     0.151788  d :     0.486393
      dxz     :     0.098889
      dyz     :     0.052734
      dx2y2   :     0.091623
      dxy     :     0.091359
  3 O s       :     3.583428  s :     3.583428
      pz      :     1.570422  p :     4.577950
      px      :     1.566117
      py      :     1.441411
      dz2     :     0.006511  d :     0.032074
      dxz     :     0.011854
      dyz     :     0.005611
      dx2y2   :     0.003770
      dxy     :     0.004328
  4 C s       :     2.866766  s :     2.866766
      pz      :     1.022393  p :     3.007326
      px      :     1.014609
      py      :     0.970324
      dz2     :     0.038891  d :     0.163222
      dxz     :     0.012107
      dyz     :     0.036806
      dx2y2   :     0.047448
      dxy     :     0.027970
  5 C s       :     2.858976  s :     2.858976
      pz      :     1.018018  p :     3.018319
      px      :     1.017504
      py      :     0.982797
      dz2     :     0.033576  d :     0.158321
      dxz     :     0.012430
      dyz     :     0.034575
      dx2y2   :     0.040682
      dxy     :     0.037058
  6 C s       :     2.855441  s :     2.855441
      pz      :     0.798788  p :     2.708850
      px      :     0.933054
      py      :     0.977007
      dz2     :     0.054741  d :     0.550236
      dxz     :     0.084910
      dyz     :     0.088864
      dx2y2   :     0.145476
      dxy     :     0.176246
  7 O s       :     3.622276  s :     3.622276
      pz      :     1.551921  p :     4.378082
      px      :     1.431514
      py      :     1.394647
      dz2     :     0.003368  d :     0.028535
      dxz     :     0.009060
      dyz     :     0.000894
      dx2y2   :     0.010308
      dxy     :     0.004905
  8 O s       :     3.629427  s :     3.629427
      pz      :     1.549242  p :     4.350115
      px      :     1.333259
      py      :     1.467614
      dz2     :     0.004088  d :     0.027968
      dxz     :     0.000923
      dyz     :     0.004945
      dx2y2   :     0.009490
      dxy     :     0.008522
  9 H s       :     0.754709  s :     0.754709
      pz      :     0.075862  p :     0.153834
      px      :     0.030504
      py      :     0.047467
 10 H s       :     0.848913  s :     0.848913
      pz      :     0.025118  p :     0.083049
      px      :     0.015565
      py      :     0.042366
 11 C s       :     2.843303  s :     2.843303
      pz      :     0.941562  p :     2.770735
      px      :     1.016751
      py      :     0.812421
      dz2     :     0.140179  d :     0.488172
      dxz     :     0.136743
      dyz     :     0.094922
      dx2y2   :     0.065718
      dxy     :     0.050609
 12 N s       :     3.063730  s :     3.063730
      pz      :     1.141884  p :     3.809681
      px      :     1.195487
      py      :     1.472309
      dz2     :     0.019739  d :     0.080721
      dxz     :     0.027602
      dyz     :     0.010351
      dx2y2   :     0.012367
      dxy     :     0.010662
 13 H s       :     0.773051  s :     0.773051
      pz      :     0.055568  p :     0.145339
      px      :     0.039153
      py      :     0.050619
 14 O s       :     3.584220  s :     3.584220
      pz      :     1.470374  p :     4.574425
      px      :     1.670317
      py      :     1.433734
      dz2     :     0.010002  d :     0.032112
      dxz     :     0.010004
      dyz     :     0.007545
      dx2y2   :     0.002045
      dxy     :     0.002516
 15 C s       :     2.870673  s :     2.870673
      pz      :     1.028819  p :     3.063770
      px      :     0.990189
      py      :     1.044762
      dz2     :     0.022750  d :     0.105515
      dxz     :     0.018349
      dyz     :     0.013869
      dx2y2   :     0.032614
      dxy     :     0.017933
 16 H s       :     0.862493  s :     0.862493
      pz      :     0.031269  p :     0.081765
      px      :     0.021143
      py      :     0.029352
 17 H s       :     0.862443  s :     0.862443
      pz      :     0.018212  p :     0.081651
      px      :     0.020134
      py      :     0.043305
 18 H s       :     0.884030  s :     0.884030
      pz      :     0.042052  p :     0.081497
      px      :     0.019926
      py      :     0.019519
 19 C s       :     2.856419  s :     2.856419
      pz      :     0.901007  p :     2.970620
      px      :     1.018588
      py      :     1.051024
      dz2     :     0.043687  d :     0.157831
      dxz     :     0.037820
      dyz     :     0.036773
      dx2y2   :     0.019556
      dxy     :     0.019996
 20 H s       :     0.886928  s :     0.886928
      pz      :     0.017331  p :     0.079445
      px      :     0.016681
      py      :     0.045434
 21 H s       :     0.886796  s :     0.886796
      pz      :     0.013299  p :     0.079484
      px      :     0.041231
      py      :     0.024953
 22 H s       :     0.860675  s :     0.860675
      pz      :     0.026660  p :     0.084312
      px      :     0.032758
      py      :     0.024894
 23 H s       :     0.866094  s :     0.866094
      pz      :     0.017537  p :     0.082552
      px      :     0.048542
      py      :     0.016473
 24 H s       :     0.852440  s :     0.852440
      pz      :     0.047973  p :     0.083614
      px      :     0.019269
      py      :     0.016372
 25 H s       :     0.838472  s :     0.838472
      pz      :     0.048716  p :     0.083460
      px      :     0.018105
      py      :     0.016640
 26 H s       :     0.847940  s :     0.847940
      pz      :     0.017243  p :     0.082972
      px      :     0.049276
      py      :     0.016453

SPIN
  0 N s       :     0.000093  s :     0.000093
      pz      :     0.000319  p :     0.002790
      px      :     0.000065
      py      :     0.002406
      dz2     :    -0.000005  d :     0.000024
      dxz     :     0.000003
      dyz     :    -0.000003
      dx2y2   :    -0.000003
      dxy     :     0.000031
  1 C s       :     0.000246  s :     0.000246
      pz      :     0.000307  p :     0.002039
      px      :     0.000158
      py      :     0.001574
      dz2     :     0.000020  d :     0.000010
      dxz     :     0.000002
      dyz     :     0.000031
      dx2y2   :    -0.000060
      dxy     :     0.000017
  2 C s       :    -0.000060  s :    -0.000060
      pz      :    -0.000046  p :    -0.000064
      px      :     0.000010
      py      :    -0.000028
      dz2     :     0.000008  d :     0.000035
      dxz     :     0.000001
      dyz     :     0.000022
      dx2y2   :    -0.000004
      dxy     :     0.000008
  3 O s       :    -0.000017  s :    -0.000017
      pz      :    -0.000017  p :    -0.000108
      px      :    -0.000015
      py      :    -0.000075
      dz2     :    -0.000000  d :    -0.000001
      dxz     :     0.000000
      dyz     :     0.000000
      dx2y2   :    -0.000000
      dxy     :    -0.000000
  4 C s       :     0.000858  s :     0.000858
      pz      :     0.000086  p :     0.004787
      px      :     0.000680
      py      :     0.004021
      dz2     :    -0.000053  d :     0.000245
      dxz     :     0.000020
      dyz     :     0.000255
      dx2y2   :    -0.000038
      dxy     :     0.000061
  5 C s       :    -0.002325  s :    -0.002325
      pz      :    -0.000919  p :     0.002550
      px      :     0.002355
      py      :     0.001113
      dz2     :    -0.000502  d :    -0.000564
      dxz     :    -0.000083
      dyz     :    -0.000088
      dx2y2   :     0.000017
      dxy     :     0.000092
  6 C s       :    -0.006863  s :    -0.006863
      pz      :    -0.020750  p :    -0.037301
      px      :    -0.006151
      py      :    -0.010400
      dz2     :     0.000218  d :     0.016638
      dxz     :     0.004225
      dyz     :    -0.000682
      dx2y2   :     0.018857
      dxy     :    -0.005980
  7 O s       :     0.006443  s :     0.006443
      pz      :     0.021633  p :     0.467751
      px      :     0.036163
      py      :     0.409956
      dz2     :    -0.000116  d :    -0.000438
      dxz     :    -0.000158
      dyz     :     0.000000
      dx2y2   :    -0.000032
      dxy     :    -0.000133
  8 O s       :     0.007116  s :     0.007116
      pz      :     0.092703  p :     0.532859
      px      :     0.431850
      py      :     0.008307
      dz2     :    -0.000107  d :    -0.000440
      dxz     :     0.000015
      dyz     :    -0.000132
      dx2y2   :    -0.000052
      dxy     :    -0.000164
  9 H s       :    -0.000074  s :    -0.000074
      pz      :     0.000021  p :     0.000128
      px      :     0.000003
      py      :     0.000105
 10 H s       :     0.000415  s :     0.000415
      pz      :     0.000025  p :     0.000053
      px      :     0.000006
      py      :     0.000021
 11 C s       :    -0.000036  s :    -0.000036
      pz      :    -0.000060  p :    -0.000303
      px      :    -0.000021
      py      :    -0.000222
      dz2     :     0.000128  d :     0.000247
      dxz     :     0.000008
      dyz     :     0.000094
      dx2y2   :     0.000009
      dxy     :     0.000008
 12 N s       :     0.000006  s :     0.000006
      pz      :     0.000004  p :     0.000164
      px      :     0.000027
      py      :     0.000133
      dz2     :    -0.000000  d :    -0.000003
      dxz     :    -0.000001
      dyz     :    -0.000000
      dx2y2   :    -0.000000
      dxy     :    -0.000000
 13 H s       :    -0.000005  s :    -0.000005
      pz      :     0.000001  p :     0.000004
      px      :     0.000001
      py      :     0.000002
 14 O s       :     0.000012  s :     0.000012
      pz      :     0.000240  p :     0.001212
      px      :     0.000055
      py      :     0.000916
      dz2     :    -0.000001  d :    -0.000004
      dxz     :    -0.000001
      dyz     :    -0.000002
      dx2y2   :    -0.000000
      dxy     :    -0.000000
 15 C s       :    -0.000003  s :    -0.000003
      pz      :     0.000001  p :     0.000018
      px      :     0.000013
      py      :     0.000003
      dz2     :     0.000000  d :    -0.000003
      dxz     :    -0.000001
      dyz     :     0.000001
      dx2y2   :    -0.000000
      dxy     :    -0.000003
 16 H s       :     0.000017  s :     0.000017
      pz      :    -0.000000  p :     0.000000
      px      :     0.000000
      py      :     0.000000
 17 H s       :    -0.000003  s :    -0.000003
      pz      :    -0.000000  p :     0.000001
      px      :     0.000000
      py      :     0.000000
 18 H s       :    -0.000003  s :    -0.000003
      pz      :    -0.000000  p :    -0.000000
      px      :    -0.000000
      py      :    -0.000000
 19 C s       :    -0.000005  s :    -0.000005
      pz      :    -0.000007  p :    -0.000008
      px      :    -0.000001
      py      :    -0.000000
      dz2     :     0.000001  d :     0.000008
      dxz     :     0.000000
      dyz     :     0.000004
      dx2y2   :     0.000001
      dxy     :     0.000002
 20 H s       :     0.000009  s :     0.000009
      pz      :    -0.000000  p :    -0.000001
      px      :    -0.000000
      py      :    -0.000000
 21 H s       :     0.000008  s :     0.000008
      pz      :    -0.000000  p :    -0.000001
      px      :    -0.000000
      py      :    -0.000000
 22 H s       :     0.000000  s :     0.000000
      pz      :    -0.000000  p :    -0.000000
      px      :    -0.000000
      py      :    -0.000000
 23 H s       :     0.000088  s :     0.000088
      pz      :     0.000002  p :     0.000102
      px      :     0.000212
      py      :    -0.000112
 24 H s       :    -0.000127  s :    -0.000127
      pz      :     0.000010  p :     0.000101
      px      :     0.000014
      py      :     0.000077
 25 H s       :    -0.001122  s :    -0.001122
      pz      :    -0.000035  p :    -0.000024
      px      :     0.000041
      py      :    -0.000030
 26 H s       :     0.002888  s :     0.002888
      pz      :     0.000009  p :    -0.000057
      px      :    -0.000049
      py      :    -0.000017


                      *****************************
                      * MAYER POPULATION ANALYSIS *
                      *****************************

  NA   - Mulliken gross atomic population
  ZA   - Total nuclear charge
  QA   - Mulliken gross atomic charge
  VA   - Mayer's total valence
  BVA  - Mayer's bonded valence
  FA   - Mayer's free valence

  ATOM       NA         ZA         QA         VA         BVA        FA
  0 N      7.1215     7.0000    -0.1215     3.2467     3.2466     0.0000
  1 C      6.1211     6.0000    -0.1211     4.0780     4.0780     0.0000
  2 C      5.9146     6.0000     0.0854     4.0334     4.0334    -0.0000
  3 O      8.3291     8.0000    -0.3291     2.1142     2.1142     0.0000
  4 C      6.2813     6.0000    -0.2813     3.9194     3.9193     0.0001
  5 C      6.2645     6.0000    -0.2645     3.9324     3.9323     0.0001
  6 C      5.8747     6.0000     0.1253     4.0156     4.0124     0.0033
  7 O      8.1494     8.0000    -0.1494     2.3068     2.0787     0.2281
  8 O      8.1445     8.0000    -0.1445     2.2917     1.9970     0.2947
  9 H      0.7445     1.0000     0.2555     0.9669     0.9669     0.0000
 10 H      0.8331     1.0000     0.1669     0.9500     0.9500     0.0000
 11 C      5.8289     6.0000     0.1711     3.9775     3.9775     0.0000
 12 N      7.0950     7.0000    -0.0950     3.1974     3.1974     0.0000
 13 H      0.7650     1.0000     0.2350     0.9591     0.9591     0.0000
 14 O      8.3176     8.0000    -0.3176     2.1226     2.1226     0.0000
 15 C      6.5492     6.0000    -0.5492     3.8550     3.8550     0.0000
 16 H      0.8124     1.0000     0.1876     0.9582     0.9582     0.0000
 17 H      0.8111     1.0000     0.1889     0.9587     0.9587     0.0000
 18 H      0.8503     1.0000     0.1497     0.9709     0.9709     0.0000
 19 C      6.4554     6.0000    -0.4554     3.8891     3.8891     0.0000
 20 H      0.8312     1.0000     0.1688     0.9542     0.9542     0.0000
 21 H      0.8352     1.0000     0.1648     0.9572     0.9572     0.0000
 22 H      0.7999     1.0000     0.2001     0.9646     0.9646     0.0000
 23 H      0.8441     1.0000     0.1559     0.9684     0.9684     0.0000
 24 H      0.8056     1.0000     0.1944     0.9578     0.9578     0.0000
 25 H      0.8080     1.0000     0.1920     0.9633     0.9633     0.0000
 26 H      0.8130     1.0000     0.1870     0.9642     0.9642     0.0000

  Mayer bond orders larger than 0.100000
B(  0-N ,  1-C ) :   1.0153 B(  0-N ,  9-H ) :   0.8925 B(  0-N , 11-C ) :   1.1941 
B(  1-C ,  2-C ) :   0.8984 B(  1-C ,  4-C ) :   0.9438 B(  1-C , 10-H ) :   0.9703 
B(  1-C , 14-O ) :   0.1432 B(  2-C ,  3-O ) :   1.8702 B(  2-C , 12-N ) :   1.1986 
B(  4-C ,  5-C ) :   0.9445 B(  4-C , 23-H ) :   0.9624 B(  4-C , 24-H ) :   0.9572 
B(  5-C ,  6-C ) :   0.9207 B(  5-C , 25-H ) :   0.9382 B(  5-C , 26-H ) :   0.9610 
B(  6-C ,  7-O ) :   1.5708 B(  6-C ,  8-O ) :   1.4968 B(  7-O ,  8-O ) :   0.4186 
B( 11-C , 14-O ) :   1.8710 B( 11-C , 15-C ) :   0.8977 B( 12-N , 13-H ) :   0.9286 
B( 12-N , 19-C ) :   0.9674 B( 15-C , 16-H ) :   0.9557 B( 15-C , 17-H ) :   0.9586 
B( 15-C , 18-H ) :   0.9749 B( 19-C , 20-H ) :   0.9583 B( 19-C , 21-H ) :   0.9590 
B( 19-C , 22-H ) :   0.9437 

-------
TIMINGS
-------

Total SCF time: 0 days 0 hours 0 min 16 sec 

Total time                  ....      16.424 sec
Sum of individual times     ....      15.722 sec  ( 95.7%)

Fock matrix formation       ....      13.724 sec  ( 83.6%)
  Split-RI-J                ....       1.161 sec  (  8.5% of F)
  Chain of spheres X        ....       9.229 sec  ( 67.3% of F)
  XC integration            ....       2.993 sec  ( 21.8% of F)
    Basis function eval.    ....       0.302 sec  ( 10.1% of XC)
    Density eval.           ....       0.419 sec  ( 14.0% of XC)
    XC-Functional eval.     ....       0.073 sec  (  2.4% of XC)
    XC-Potential eval.      ....       0.240 sec  (  8.0% of XC)
Diagonalization             ....       0.465 sec  (  2.8%)
Density matrix formation    ....       0.028 sec  (  0.2%)
Population analysis         ....       0.060 sec  (  0.4%)
Initial guess               ....       0.049 sec  (  0.3%)
Orbital Transformation      ....       0.000 sec  (  0.0%)
Orbital Orthonormalization  ....       0.031 sec  (  0.2%)
DIIS solution               ....       0.246 sec  (  1.5%)
Grid generation             ....       1.151 sec  (  7.0%)

Maximum memory used throughout the entire SCF-calculation: 77.7 MB

-------------------------   --------------------
FINAL SINGLE POINT ENERGY      -722.830404951575
-------------------------   --------------------

                                *** OPTIMIZATION RUN DONE ***

                            ***************************************
                            *     ORCA property calculations      *
                            ***************************************

                                    ---------------------
                                    Active property flags
                                    ---------------------
   (+) Dipole Moment


------------------------------------------------------------------------------
                       ORCA ELECTRIC PROPERTIES CALCULATION
------------------------------------------------------------------------------

Dipole Moment Calculation                       ... on
Quadrupole Moment Calculation                   ... off
Polarizability Calculation                      ... off
GBWName                                         ... opt.gbw
Electron density                                ... opt.scfp
The origin for moment calculation is the CENTER OF MASS  = (-5.649705, -6.917747 -1.294331)

-------------
DIPOLE MOMENT
-------------
                                X             Y             Z
Electronic contribution:      2.46519       7.56670      -4.73626
Nuclear contribution   :     -2.17271      -8.78729       6.09417
                        -----------------------------------------
Total Dipole Moment    :      0.29248      -1.22058       1.35790
                        -----------------------------------------
Magnitude (a.u.)       :      1.84913
Magnitude (Debye)      :      4.70010



--------------------
Rotational spectrum 
--------------------
 
Rotational constants in cm-1:     0.019844     0.016389     0.010477 
Rotational constants in MHz :   594.897100   491.325650   314.085792 

 Dipole components along the rotational axes: 
x,y,z [a.u.] :    -0.948517    -1.585156     0.082823 
x,y,z [Debye]:    -2.410939    -4.029147     0.210519 

 

Timings for individual modules:

Sum of individual times         ...      839.889 sec (=  13.998 min)
GTO integral calculation        ...       64.476 sec (=   1.075 min)   7.7 %
SCF iterations                  ...      605.085 sec (=  10.085 min)  72.0 %
SCF Gradient evaluation         ...      169.395 sec (=   2.823 min)  20.2 %
Geometry relaxation             ...        0.932 sec (=   0.016 min)   0.1 %
                             ****ORCA TERMINATED NORMALLY****
TOTAL RUN TIME: 0 days 0 hours 14 minutes 58 seconds 241 msec
