
                                 *****************
                                 * O   R   C   A *
                                 *****************

                                            #,                                       
                                            ###                                      
                                            ####                                     
                                            #####                                    
                                            ######                                   
                                           ########,                                 
                                     ,,################,,,,,                         
                               ,,#################################,,                 
                          ,,##########################################,,             
                       ,#########################################, ''#####,          
                    ,#############################################,,   '####,        
                  ,##################################################,,,,####,       
                ,###########''''           ''''###############################       
              ,#####''   ,,,,##########,,,,          '''####'''          '####       
            ,##' ,,,,###########################,,,                        '##       
           ' ,,###''''                  '''############,,,                           
         ,,##''                                '''############,,,,        ,,,,,,###''
      ,#''                                            '''#######################'''  
     '                                                          ''''####''''         
             ,#######,   #######,   ,#######,      ##                                
            ,#'     '#,  ##    ##  ,#'     '#,    #''#        ######   ,####,        
            ##       ##  ##   ,#'  ##            #'  '#       #        #'  '#        
            ##       ##  #######   ##           ,######,      #####,   #    #        
            '#,     ,#'  ##    ##  '#,     ,#' ,#      #,         ##   #,  ,#        
             '#######'   ##     ##  '#######'  #'      '#     #####' # '####'        



                  #######################################################
                  #                        -***-                        #
                  #          Department of theory and spectroscopy      #
                  #    Directorship and core code : Frank Neese         #
                  #        Max Planck Institute fuer Kohlenforschung    #
                  #                Kaiser Wilhelm Platz 1               #
                  #                 D-45470 Muelheim/Ruhr               #
                  #                      Germany                        #
                  #                                                     #
                  #                  All rights reserved                #
                  #                        -***-                        #
                  #######################################################


                         Program Version 5.0.4 -  RELEASE  -


 With contributions from (in alphabetic order):
   Daniel Aravena         : Magnetic Suceptibility
   Michael Atanasov       : Ab Initio Ligand Field Theory (pilot matlab implementation)
   Alexander A. Auer      : GIAO ZORA, VPT2 properties, NMR spectrum
   Ute Becker             : Parallelization
   Giovanni Bistoni       : ED, misc. LED, open-shell LED, HFLD
   Martin Brehm           : Molecular dynamics
   Dmytro Bykov           : SCF Hessian
   Vijay G. Chilkuri      : MRCI spin determinant printing, contributions to CSF-ICE
   Dipayan Datta          : RHF DLPNO-CCSD density
   Achintya Kumar Dutta   : EOM-CC, STEOM-CC
   Dmitry Ganyushin       : Spin-Orbit,Spin-Spin,Magnetic field MRCI
   Miquel Garcia          : C-PCM and meta-GGA Hessian, CC/C-PCM, Gaussian charge scheme
   Yang Guo               : DLPNO-NEVPT2, F12-NEVPT2, CIM, IAO-localization
   Andreas Hansen         : Spin unrestricted coupled pair/coupled cluster methods
   Benjamin Helmich-Paris : MC-RPA, TRAH-SCF, COSX integrals
   Lee Huntington         : MR-EOM, pCC
   Robert Izsak           : Overlap fitted RIJCOSX, COSX-SCS-MP3, EOM
   Marcus Kettner         : VPT2
   Christian Kollmar      : KDIIS, OOCD, Brueckner-CCSD(T), CCSD density, CASPT2, CASPT2-K
   Simone Kossmann        : Meta GGA functionals, TD-DFT gradient, OOMP2, MP2 Hessian
   Martin Krupicka        : Initial AUTO-CI
   Lucas Lang             : DCDCAS
   Marvin Lechner         : AUTO-CI (C++ implementation), FIC-MRCC
   Dagmar Lenk            : GEPOL surface, SMD
   Dimitrios Liakos       : Extrapolation schemes; Compound Job, initial MDCI parallelization
   Dimitrios Manganas     : Further ROCIS development; embedding schemes
   Dimitrios Pantazis     : SARC Basis sets
   Anastasios Papadopoulos: AUTO-CI, single reference methods and gradients
   Taras Petrenko         : DFT Hessian,TD-DFT gradient, ASA, ECA, R-Raman, ABS, FL, XAS/XES, NRVS
   Peter Pinski           : DLPNO-MP2, DLPNO-MP2 Gradient
   Christoph Reimann      : Effective Core Potentials
   Marius Retegan         : Local ZFS, SOC
   Christoph Riplinger    : Optimizer, TS searches, QM/MM, DLPNO-CCSD(T), (RO)-DLPNO pert. Triples
   Tobias Risthaus        : Range-separated hybrids, TD-DFT gradient, RPA, STAB
   Michael Roemelt        : Original ROCIS implementation
   Masaaki Saitow         : Open-shell DLPNO-CCSD energy and density
   Barbara Sandhoefer     : DKH picture change effects
   Avijit Sen             : IP-ROCIS
   Kantharuban Sivalingam : CASSCF convergence, NEVPT2, FIC-MRCI
   Bernardo de Souza      : ESD, SOC TD-DFT
   Georgi Stoychev        : AutoAux, RI-MP2 NMR, DLPNO-MP2 response
   Willem Van den Heuvel  : Paramagnetic NMR
   Boris Wezisla          : Elementary symmetry handling
   Frank Wennmohs         : Technical directorship


 We gratefully acknowledge several colleagues who have allowed us to
 interface, adapt or use parts of their codes:
   Stefan Grimme, W. Hujo, H. Kruse, P. Pracht,  : VdW corrections, initial TS optimization,
                  C. Bannwarth, S. Ehlert          DFT functionals, gCP, sTDA/sTD-DF
   Ed Valeev, F. Pavosevic, A. Kumar             : LibInt (2-el integral package), F12 methods
   Garnet Chan, S. Sharma, J. Yang, R. Olivares  : DMRG
   Ulf Ekstrom                                   : XCFun DFT Library
   Mihaly Kallay                                 : mrcc  (arbitrary order and MRCC methods)
   Jiri Pittner, Ondrej Demel                    : Mk-CCSD
   Frank Weinhold                                : gennbo (NPA and NBO analysis)
   Christopher J. Cramer and Donald G. Truhlar   : smd solvation model
   Lars Goerigk                                  : TD-DFT with DH, B97 family of functionals
   V. Asgeirsson, H. Jonsson                     : NEB implementation
   FAccTs GmbH                                   : IRC, NEB, NEB-TS, DLPNO-Multilevel, CI-OPT
                                                   MM, QMMM, 2- and 3-layer-ONIOM, Crystal-QMMM,
                                                   LR-CPCM, SF, NACMEs, symmetry and pop. for TD-DFT,
                                                   nearIR, NL-DFT gradient (VV10), updates on ESD,
                                                   ML-optimized integration grids
   S Lehtola, MJT Oliveira, MAL Marques          : LibXC Library
   Liviu Ungur et al                             : ANISO software


 Your calculation uses the libint2 library for the computation of 2-el integrals
 For citations please refer to: http://libint.valeyev.net

 Your ORCA version has been built with support for libXC version: 5.1.0
 For citations please refer to: https://tddft.org/programs/libxc/

 This ORCA versions uses:
   CBLAS   interface :  Fast vector & matrix operations
   LAPACKE interface :  Fast linear algebra routines
   SCALAPACK package :  Parallel linear algebra routines
   Shared memory     :  Shared parallel matrices
   BLAS/LAPACK       :  OpenBLAS 0.3.15  USE64BITINT DYNAMIC_ARCH NO_AFFINITY Zen SINGLE_THREADED
        Core in use  :  Zen
   Copyright (c) 2011-2014, The OpenBLAS Project




***************************************
The coordinates will be read from file: opt.xyz
***************************************


================================================================================

----- Orbital basis set information -----
Your calculation utilizes the basis: EPR-II
   V. Barone, in Recent Advances in Density Functional Methods, Part 1 (ed. D. P. Chong), World Scientific, Singapore, 1995, p. 287.

----- AuxJ basis set information -----
Your calculation utilizes the AutoAux generation procedure.
  G. L. Stoychev, A. A. Auer, F. Neese, J. Chem. Theory Comput. 13, 554 (2017)

----- AuxC basis set information -----
Your calculation utilizes the AutoAux generation procedure.
  G. L. Stoychev, A. A. Auer, F. Neese, J. Chem. Theory Comput. 13, 554 (2017)

----- AuxJK basis set information -----
Your calculation utilizes the AutoAux generation procedure.
  G. L. Stoychev, A. A. Auer, F. Neese, J. Chem. Theory Comput. 13, 554 (2017)

================================================================================
                                        WARNINGS
                       Please study these warnings very carefully!
================================================================================


WARNING: your system is open-shell and RHF/RKS was chosen
  ===> : WILL SWITCH to UHF/UKS


INFO   : the flag for use of the SHARK integral package has been found!

================================================================================
                                       INPUT FILE
================================================================================
NAME = epr_info.inp
|  1> ! B3LYP EPR-II AUTOAUX
|  2> %pal nprocs 16 end
|  3> *XYZFile 0 2 opt.xyz
|  4> %EPRNMR
|  5>         GTENSOR   TRUE
|  6>         NUCLEI    = 1,4,9,10,11,12,13,14,15,16,17,18,20,21,31,32 {SHIFT, AISO, ADIP, AORB}
|  7>         ORI       GIAO
|  8> END
|  9> 
| 10>                          ****END OF INPUT****
================================================================================

                       ****************************
                       * Single Point Calculation *
                       ****************************

---------------------------------
CARTESIAN COORDINATES (ANGSTROEM)
---------------------------------
  N     -1.990716    0.765157    0.772090
  C     -1.560882   -0.045108   -0.367129
  C     -1.829908   -1.525831    0.041578
  O     -2.490392   -1.813845    1.041193
  C     -0.130950    0.202782   -0.780680
  C      0.991809    0.156449    0.213895
  C      2.365163   -0.125579   -0.427623
  C      3.521372   -0.045165    0.578377
  N      4.801263   -0.374613   -0.075828
  H      0.779858   -0.591747    0.991061
  H      1.040325    1.123372    0.745152
  H      2.538666    0.599424   -1.235709
  H      2.371980   -1.119858   -0.889234
  H      3.355218   -0.780482    1.375379
  H      3.512332    0.951087    1.054193
  H      5.550685   -0.360023    0.610858
  H      5.028771    0.348980   -0.753564
  H     -2.414672    0.236108    1.525937
  C     -2.202324    2.111365    0.650258
  N     -1.319882   -2.450175   -0.814568
  H     -0.680212   -2.115592   -1.521493
  O     -1.905859    2.738920   -0.366937
  C     -2.814287    2.796717    1.869728
  H     -3.751726    3.270464    1.565713
  H     -3.005872    2.115101    2.702465
  H     -2.135628    3.588015    2.199492
  C     -1.465564   -3.885451   -0.596826
  H     -2.460938   -4.088430   -0.198515
  H     -1.345403   -4.406296   -1.549371
  H     -0.725479   -4.266782    0.116363
  H     -2.210820    0.170550   -1.226407
  H      0.044010    0.684228   -1.739735

----------------------------
CARTESIAN COORDINATES (A.U.)
----------------------------
  NO LB      ZA    FRAG     MASS         X           Y           Z
   0 N     7.0000    0    14.007   -3.761908    1.445937    1.459038
   1 C     6.0000    0    12.011   -2.949640   -0.085241   -0.693774
   2 C     6.0000    0    12.011   -3.458025   -2.883404    0.078571
   3 O     8.0000    0    15.999   -4.706158   -3.427671    1.967570
   4 C     6.0000    0    12.011   -0.247459    0.383202   -1.475272
   5 C     6.0000    0    12.011    1.874247    0.295646    0.404202
   6 C     6.0000    0    12.011    4.469510   -0.237310   -0.808090
   7 C     6.0000    0    12.011    6.654429   -0.085349    1.092974
   8 N     7.0000    0    14.007    9.073072   -0.707915   -0.143293
   9 H     1.0000    0     1.008    1.473717   -1.118240    1.872833
  10 H     1.0000    0     1.008    1.965930    2.122865    1.408133
  11 H     1.0000    0     1.008    4.797383    1.132748   -2.335152
  12 H     1.0000    0     1.008    4.482393   -2.116226   -1.680409
  13 H     1.0000    0     1.008    6.340443   -1.474897    2.599089
  14 H     1.0000    0     1.008    6.637345    1.797293    1.992136
  15 H     1.0000    0     1.008   10.489275   -0.680345    1.154354
  16 H     1.0000    0     1.008    9.502999    0.659477   -1.424029
  17 H     1.0000    0     1.008   -4.563068    0.446179    2.883603
  18 C     6.0000    0    12.011   -4.161789    3.989901    1.228810
  19 N     7.0000    0    14.007   -2.494216   -4.630159   -1.539310
  20 H     1.0000    0     1.008   -1.285415   -3.997889   -2.875205
  21 O     8.0000    0    15.999   -3.601552    5.175809   -0.693411
  22 C     6.0000    0    12.011   -5.318232    5.285029    3.533273
  23 H     1.0000    0     1.008   -7.089734    6.180281    2.958769
  24 H     1.0000    0     1.008   -5.680275    3.996962    5.106918
  25 H     1.0000    0     1.008   -4.035751    6.780366    4.156437
  26 C     6.0000    0    12.011   -2.769515   -7.342438   -1.127838
  27 H     1.0000    0     1.008   -4.650498   -7.726014   -0.375139
  28 H     1.0000    0     1.008   -2.542443   -8.326693   -2.927886
  29 H     1.0000    0     1.008   -1.370957   -8.063050    0.219894
  30 H     1.0000    0     1.008   -4.177844    0.322293   -2.317573
  31 H     1.0000    0     1.008    0.083166    1.293004   -3.287623

--------------------------------
INTERNAL COORDINATES (ANGSTROEM)
--------------------------------
 N      0   0   0     0.000000000000     0.00000000     0.00000000
 C      1   0   0     1.462568222642     0.00000000     0.00000000
 C      2   1   0     1.559473992326   105.73495524     0.00000000
 O      3   2   1     1.232242500597   121.80285618    11.06093267
 C      2   1   3     1.509032905382   113.63702077   235.45631609
 C      5   2   1     1.500637554425   121.48433491    51.28249104
 C      6   5   2     1.541812651250   113.34855649   157.06243508
 C      7   6   5     1.534705568950   112.87589168   174.80628496
 N      8   7   6     1.474666006700   110.57077955   177.77525751
 H      6   5   2     1.099412442306   110.19873517    33.35263743
 H      6   5   2     1.104322277798   108.94588550   278.26456691
 H      7   6   5     1.099425644924   109.01207825    53.31804016
 H      7   6   5     1.096231191644   110.28280280   296.46714560
 H      8   7   6     1.097045998382   109.08655762    59.51633596
 H      8   7   6     1.104083251579   108.88111759   303.20853624
 H      9   8   7     1.016554895671   109.69218672   182.64163679
 H      9   8   7     1.017188870133   109.31622033    66.86091666
 H      1   2   3     1.013862705103   114.39102876   355.97662777
 C      1   2   3     1.368172577676   121.41288099   196.01505632
 N      3   2   1     1.359235706152   114.57582978   188.87403364
 H     20   3   2     1.010379571193   116.94028764    11.14411442
 O     19   1   2     1.231423500500   122.53104922   351.76714230
 C     19   1   2     1.526863505656   115.62799218   172.63743594
 H     23  19   1     1.093459115846   108.42274794   238.49904991
 H     23  19   1     1.093048685791   113.50398669     0.24402231
 H     23  19   1     1.093378221343   108.47900754   121.92093286
 C     20   3   2     1.458990314509   122.51517679   179.75209815
 H     27  20   3     1.091155584960   109.18161061    38.61202516
 H     27  20   3     1.092272349803   109.14504431   157.99279495
 H     27  20   3     1.096256864241   111.83137923   278.80312994
 H      2   1   3     1.098765290568   109.06058548   114.53927834
 H      5   2   1     1.087284620441   117.83636244   248.12585435

---------------------------
INTERNAL COORDINATES (A.U.)
---------------------------
 N      0   0   0     0.000000000000     0.00000000     0.00000000
 C      1   0   0     2.763853392969     0.00000000     0.00000000
 C      2   1   0     2.946978758469   105.73495524     0.00000000
 O      3   2   1     2.328600856706   121.80285618    11.06093267
 C      2   1   3     2.851658918247   113.63702077   235.45631609
 C      5   2   1     2.835794004141   121.48433491    51.28249104
 C      6   5   2     2.913603660678   113.34855649   157.06243508
 C      7   6   5     2.900173221520   112.87589168   174.80628496
 N      8   7   6     2.786714891665   110.57077955   177.77525751
 H      6   5   2     2.077588424183   110.19873517    33.35263743
 H      6   5   2     2.086866668627   108.94588550   278.26456691
 H      7   6   5     2.077613373516   109.01207825    53.31804016
 H      7   6   5     2.071576731669   110.28280280   296.46714560
 H      8   7   6     2.073116493255   109.08655762    59.51633596
 H      8   7   6     2.086414974534   108.88111759   303.20853624
 H      9   8   7     1.921010352915   109.69218672   182.64163679
 H      9   8   7     1.922208391024   109.31622033    66.86091666
 H      1   2   3     1.915922850041   114.39102876   355.97662777
 C      1   2   3     2.585471475748   121.41288099   196.01505632
 N      3   2   1     2.568583236075   114.57582978   188.87403364
 H     20   3   2     1.909340680864   116.94028764    11.14411442
 O     19   1   2     2.327053170819   122.53104922   351.76714230
 C     19   1   2     2.885353869569   115.62799218   172.63743594
 H     23  19   1     2.066338267588   108.42274794   238.49904991
 H     23  19   1     2.065562667188   113.50398669     0.24402231
 H     23  19   1     2.066185399131   108.47900754   121.92093286
 C     20   3   2     2.757092126465   122.51517679   179.75209815
 H     27  20   3     2.061985225073   109.18161061    38.61202516
 H     27  20   3     2.064095604782   109.14504431   157.99279495
 H     27  20   3     2.071625245847   111.83137923   278.80312994
 H      2   1   3     2.076365484632   109.06058548   114.53927834
 H      5   2   1     2.054670162259   117.83636244   248.12585435

---------------------
BASIS SET INFORMATION
---------------------
There are 4 groups of distinct atoms

 Group   1 Type N   : 10s5p1d contracted to 6s2p1d pattern {511111/41/1}
 Group   2 Type C   : 10s5p1d contracted to 6s2p1d pattern {511111/41/1}
 Group   3 Type O   : 10s5p1d contracted to 6s2p1d pattern {511111/41/1}
 Group   4 Type H   : 6s1p contracted to 4s1p pattern {3111/1}

Atom   0N    basis set group =>   1
Atom   1C    basis set group =>   2
Atom   2C    basis set group =>   2
Atom   3O    basis set group =>   3
Atom   4C    basis set group =>   2
Atom   5C    basis set group =>   2
Atom   6C    basis set group =>   2
Atom   7C    basis set group =>   2
Atom   8N    basis set group =>   1
Atom   9H    basis set group =>   4
Atom  10H    basis set group =>   4
Atom  11H    basis set group =>   4
Atom  12H    basis set group =>   4
Atom  13H    basis set group =>   4
Atom  14H    basis set group =>   4
Atom  15H    basis set group =>   4
Atom  16H    basis set group =>   4
Atom  17H    basis set group =>   4
Atom  18C    basis set group =>   2
Atom  19N    basis set group =>   1
Atom  20H    basis set group =>   4
Atom  21O    basis set group =>   3
Atom  22C    basis set group =>   2
Atom  23H    basis set group =>   4
Atom  24H    basis set group =>   4
Atom  25H    basis set group =>   4
Atom  26C    basis set group =>   2
Atom  27H    basis set group =>   4
Atom  28H    basis set group =>   4
Atom  29H    basis set group =>   4
Atom  30H    basis set group =>   4
Atom  31H    basis set group =>   4
---------------------------------
AUXILIARY/J BASIS SET INFORMATION
---------------------------------
There are 4 groups of distinct atoms

 Group   1 Type N   : 17s13p12d2f contracted to 17s13p12d2f pattern {11111111111111111/1111111111111/111111111111/11}
 Group   2 Type C   : 17s13p12d2f contracted to 17s13p12d2f pattern {11111111111111111/1111111111111/111111111111/11}
 Group   3 Type O   : 17s13p12d2f contracted to 17s13p12d2f pattern {11111111111111111/1111111111111/111111111111/11}
 Group   4 Type H   : 15s6p1d contracted to 15s6p1d pattern {111111111111111/111111/1}

Atom   0N    basis set group =>   1
Atom   1C    basis set group =>   2
Atom   2C    basis set group =>   2
Atom   3O    basis set group =>   3
Atom   4C    basis set group =>   2
Atom   5C    basis set group =>   2
Atom   6C    basis set group =>   2
Atom   7C    basis set group =>   2
Atom   8N    basis set group =>   1
Atom   9H    basis set group =>   4
Atom  10H    basis set group =>   4
Atom  11H    basis set group =>   4
Atom  12H    basis set group =>   4
Atom  13H    basis set group =>   4
Atom  14H    basis set group =>   4
Atom  15H    basis set group =>   4
Atom  16H    basis set group =>   4
Atom  17H    basis set group =>   4
Atom  18C    basis set group =>   2
Atom  19N    basis set group =>   1
Atom  20H    basis set group =>   4
Atom  21O    basis set group =>   3
Atom  22C    basis set group =>   2
Atom  23H    basis set group =>   4
Atom  24H    basis set group =>   4
Atom  25H    basis set group =>   4
Atom  26C    basis set group =>   2
Atom  27H    basis set group =>   4
Atom  28H    basis set group =>   4
Atom  29H    basis set group =>   4
Atom  30H    basis set group =>   4
Atom  31H    basis set group =>   4
---------------------------------
AUXILIARY/C BASIS SET INFORMATION
---------------------------------
There are 4 groups of distinct atoms

 Group   1 Type N   : 17s13p12d2f contracted to 17s13p12d2f pattern {11111111111111111/1111111111111/111111111111/11}
 Group   2 Type C   : 17s13p12d2f contracted to 17s13p12d2f pattern {11111111111111111/1111111111111/111111111111/11}
 Group   3 Type O   : 17s13p12d2f contracted to 17s13p12d2f pattern {11111111111111111/1111111111111/111111111111/11}
 Group   4 Type H   : 15s6p1d contracted to 15s6p1d pattern {111111111111111/111111/1}

Atom   0N    basis set group =>   1
Atom   1C    basis set group =>   2
Atom   2C    basis set group =>   2
Atom   3O    basis set group =>   3
Atom   4C    basis set group =>   2
Atom   5C    basis set group =>   2
Atom   6C    basis set group =>   2
Atom   7C    basis set group =>   2
Atom   8N    basis set group =>   1
Atom   9H    basis set group =>   4
Atom  10H    basis set group =>   4
Atom  11H    basis set group =>   4
Atom  12H    basis set group =>   4
Atom  13H    basis set group =>   4
Atom  14H    basis set group =>   4
Atom  15H    basis set group =>   4
Atom  16H    basis set group =>   4
Atom  17H    basis set group =>   4
Atom  18C    basis set group =>   2
Atom  19N    basis set group =>   1
Atom  20H    basis set group =>   4
Atom  21O    basis set group =>   3
Atom  22C    basis set group =>   2
Atom  23H    basis set group =>   4
Atom  24H    basis set group =>   4
Atom  25H    basis set group =>   4
Atom  26C    basis set group =>   2
Atom  27H    basis set group =>   4
Atom  28H    basis set group =>   4
Atom  29H    basis set group =>   4
Atom  30H    basis set group =>   4
Atom  31H    basis set group =>   4
----------------------------------
AUXILIARY/JK BASIS SET INFORMATION
----------------------------------
There are 4 groups of distinct atoms

 Group   1 Type N   : 17s13p12d2f contracted to 17s13p12d2f pattern {11111111111111111/1111111111111/111111111111/11}
 Group   2 Type C   : 17s13p12d2f contracted to 17s13p12d2f pattern {11111111111111111/1111111111111/111111111111/11}
 Group   3 Type O   : 17s13p12d2f contracted to 17s13p12d2f pattern {11111111111111111/1111111111111/111111111111/11}
 Group   4 Type H   : 15s6p1d contracted to 15s6p1d pattern {111111111111111/111111/1}

Atom   0N    basis set group =>   1
Atom   1C    basis set group =>   2
Atom   2C    basis set group =>   2
Atom   3O    basis set group =>   3
Atom   4C    basis set group =>   2
Atom   5C    basis set group =>   2
Atom   6C    basis set group =>   2
Atom   7C    basis set group =>   2
Atom   8N    basis set group =>   1
Atom   9H    basis set group =>   4
Atom  10H    basis set group =>   4
Atom  11H    basis set group =>   4
Atom  12H    basis set group =>   4
Atom  13H    basis set group =>   4
Atom  14H    basis set group =>   4
Atom  15H    basis set group =>   4
Atom  16H    basis set group =>   4
Atom  17H    basis set group =>   4
Atom  18C    basis set group =>   2
Atom  19N    basis set group =>   1
Atom  20H    basis set group =>   4
Atom  21O    basis set group =>   3
Atom  22C    basis set group =>   2
Atom  23H    basis set group =>   4
Atom  24H    basis set group =>   4
Atom  25H    basis set group =>   4
Atom  26C    basis set group =>   2
Atom  27H    basis set group =>   4
Atom  28H    basis set group =>   4
Atom  29H    basis set group =>   4
Atom  30H    basis set group =>   4
Atom  31H    basis set group =>   4


           ************************************************************
           *        Program running with 16 parallel MPI-processes    *
           *              working on a common directory               *
           ************************************************************
------------------------------------------------------------------------------
                           ORCA GTO INTEGRAL CALCULATION
                           -- RI-GTO INTEGRALS CHOSEN --
------------------------------------------------------------------------------
------------------------------------------------------------------------------
                   ___                                                        
                  /   \      - P O W E R E D   B Y -                         
                 /     \                                                     
                 |  |  |   _    _      __       _____    __    __             
                 |  |  |  | |  | |    /  \     |  _  \  |  |  /  |          
                  \  \/   | |  | |   /    \    | | | |  |  | /  /          
                 / \  \   | |__| |  /  /\  \   | |_| |  |  |/  /          
                |  |  |   |  __  | /  /__\  \  |    /   |      \           
                |  |  |   | |  | | |   __   |  |    \   |  |\   \          
                \     /   | |  | | |  |  |  |  | |\  \  |  | \   \       
                 \___/    |_|  |_| |__|  |__|  |_| \__\ |__|  \__/        
                                                                              
                      - O R C A' S   B I G   F R I E N D -                    
                                      &                                       
                       - I N T E G R A L  F E E D E R -                       
                                                                              
 v1 FN, 2020, v2 2021                                                         
------------------------------------------------------------------------------


Reading SHARK input file epr_info.SHARKINP.tmp ... ok
----------------------
SHARK INTEGRAL PACKAGE
----------------------

Number of atoms                             ...     32
Number of basis functions                   ...    364
Number of shells                            ...    216
Maximum angular momentum                    ...      2
Integral batch strategy                     ... SHARK/LIBINT Hybrid
RI-J (if used) integral strategy            ... SPLIT-RIJ (Revised 2003 algorithm where possible)
Printlevel                                  ...      1
Contraction scheme used                     ... SEGMENTED contraction
Coulomb Range Separation                    ... NOT USED
Exchange Range Separation                   ... NOT USED
Finite Nucleus Model                        ... NOT USED
Auxiliary Coulomb fitting basis             ... AVAILABLE
   # of basis functions in Aux-J            ...   2504
   # of shells in Aux-J                     ...   1012
   Maximum angular momentum in Aux-J        ...      3
Auxiliary J/K fitting basis                 ... AVAILABLE
   # of basis functions in Aux-JK           ...   2504
   # of shells in Aux-JK                    ...   1012
   Maximum angular momentum in Aux-JK       ...      3
Auxiliary Correlation fitting basis         ... AVAILABLE
   # of basis functions in Aux-C            ...   2504
   # of shells in Aux-C                     ...   1012
   Maximum angular momentum in Aux-C        ...      3
Auxiliary 'external' fitting basis          ... NOT available
Integral threshold                          ...     1.000000e-10
Primitive cut-off                           ...     1.000000e-11
Primitive pair pre-selection threshold      ...     1.000000e-11

Calculating pre-screening integrals         ... done (  0.0 sec) Dimension = 216
Organizing shell pair data                  ... done (  0.0 sec)
Shell pair information
Total number of shell pairs                 ...     23436
Shell pairs after pre-screening             ...     14968
Total number of primitive shell pairs       ...     61703
Primitive shell pairs kept                  ...     28557
          la=0 lb=0:   7024 shell pairs
          la=1 lb=0:   5109 shell pairs
          la=1 lb=1:    875 shell pairs
          la=2 lb=0:   1384 shell pairs
          la=2 lb=1:    496 shell pairs
          la=2 lb=2:     80 shell pairs

Calculating one electron integrals          ... done (  0.0 sec)
Calculating RI/J V-Matrix + Cholesky decomp.... done (  0.3 sec)
Calculating RI/JK V-Matrix + Cholesky decomp... done (  0.3 sec)
Calculating RI/C V-Matrix + Cholesky decomp.... done (  0.3 sec)
Calculating Nuclear repulsion               ... done (  0.0 sec) ENN=    914.578648728223 Eh

SHARK setup successfully completed in   1.1 seconds

Maximum memory used throughout the entire GTOINT-calculation: 28.0 MB


           ************************************************************
           *        Program running with 16 parallel MPI-processes    *
           *              working on a common directory               *
           ************************************************************
-------------------------------------------------------------------------------
                                 ORCA SCF
-------------------------------------------------------------------------------

------------
SCF SETTINGS
------------
Hamiltonian:
 Density Functional     Method          .... DFT(GTOs)
 Exchange Functional    Exchange        .... B88
   X-Alpha parameter    XAlpha          ....  0.666667
   Becke's b parameter  XBeta           ....  0.004200
 Correlation Functional Correlation     .... LYP
 LDA part of GGA corr.  LDAOpt          .... VWN-5
 Gradients option       PostSCFGGA      .... off
 Hybrid DFT is turned on
   Fraction HF Exchange ScalHFX         ....  0.200000
   Scaling of DF-GGA-X  ScalDFX         ....  0.720000
   Scaling of DF-GGA-C  ScalDFC         ....  0.810000
   Scaling of DF-LDA-C  ScalLDAC        ....  1.000000
   Perturbative correction              ....  0.000000
   Density functional embedding theory  .... OFF
   NL short-range parameter             ....  4.800000
 RI-approximation to the Coulomb term is turned on
   Number of AuxJ basis functions       .... 2504
   RIJ-COSX (HFX calculated with COS-X)).... on


General Settings:
 Integral files         IntName         .... epr_info
 Hartree-Fock type      HFTyp           .... UHF
 Total Charge           Charge          ....    0
 Multiplicity           Mult            ....    2
 Number of Electrons    NEL             ....  109
 Basis Dimension        Dim             ....  364
 Nuclear Repulsion      ENuc            ....    914.5786487282 Eh

Convergence Acceleration:
 DIIS                   CNVDIIS         .... on
   Start iteration      DIISMaxIt       ....    12
   Startup error        DIISStart       ....  0.200000
   # of expansion vecs  DIISMaxEq       ....     5
   Bias factor          DIISBfac        ....   1.050
   Max. coefficient     DIISMaxC        ....  10.000
 Trust-Rad. Augm. Hess. CNVTRAH         .... auto
   Auto Start mean grad. ratio tolernc. ....  1.125000
   Auto Start start iteration           ....    20
   Auto Start num. interpolation iter.  ....    10
   Max. Number of Micro iterations      ....    16
   Max. Number of Macro iterations      .... Maxiter - #DIIS iter
   Number of Davidson start vectors     ....     2
   Converg. threshold I  (grad. norm)   ....   5.000e-05
   Converg. threshold II (energy diff.) ....   1.000e-06
   Grad. Scal. Fac. for Micro threshold ....   0.100
   Minimum threshold for Micro iter.    ....   0.010
   NR start threshold (gradient norm)   ....   0.001
   Initial trust radius                 ....   0.400
   Minimum AH scaling param. (alpha)    ....   1.000
   Maximum AH scaling param. (alpha)    .... 1000.000
   Orbital update algorithm             .... Taylor
   White noise on init. David. guess    .... on
   Maximum white noise                  ....   0.010
   Quad. conv. algorithm                .... NR
 SOSCF                  CNVSOSCF        .... off
 Level Shifting         CNVShift        .... on
   Level shift para.    LevelShift      ....    0.2500
   Turn off err/grad.   ShiftErr        ....    0.0010
 Zerner damping         CNVZerner       .... off
 Static damping         CNVDamp         .... on
   Fraction old density DampFac         ....    0.7000
   Max. Damping (<1)    DampMax         ....    0.9800
   Min. Damping (>=0)   DampMin         ....    0.0000
   Turn off err/grad.   DampErr         ....    0.1000
 Fernandez-Rico         CNVRico         .... off

SCF Procedure:
 Maximum # iterations   MaxIter         ....   125
 SCF integral mode      SCFMode         .... Direct
   Integral package                     .... SHARK and LIBINT hybrid scheme
 Reset frequency        DirectResetFreq ....    20
 Integral Threshold     Thresh          ....  1.000e-10 Eh
 Primitive CutOff       TCut            ....  1.000e-11 Eh

Convergence Tolerance:
 Convergence Check Mode ConvCheckMode   .... Total+1el-Energy
 Convergence forced     ConvForced      .... 0
 Energy Change          TolE            ....  1.000e-06 Eh
 1-El. energy change                    ....  1.000e-03 Eh
 DIIS Error             TolErr          ....  1.000e-06


Diagonalization of the overlap matrix:
Smallest eigenvalue                        ... 6.645e-04
Time for diagonalization                   ...    0.014 sec
Threshold for overlap eigenvalues          ... 1.000e-08
Number of eigenvalues below threshold      ... 0
Time for construction of square roots      ...    0.010 sec
Total time needed                          ...    0.025 sec

Time for model grid setup =    0.106 sec

------------------------------
INITIAL GUESS: MODEL POTENTIAL
------------------------------
Loading Hartree-Fock densities                     ... done
Calculating cut-offs                               ... done
Initializing the effective Hamiltonian             ... done
Setting up the integral package (SHARK)            ... done
Starting the Coulomb interaction                   ... done (   0.0 sec)
Reading the grid                                   ... done
Mapping shells                                     ... done
Starting the XC term evaluation                    ... done (   0.0 sec)
  promolecular density results
     # of electrons  =    108.991246110
     EX              =    -87.710038381
     EC              =     -3.655897530
     EX+EC           =    -91.365935911
Transforming the Hamiltonian                       ... done (   0.0 sec)
Diagonalizing the Hamiltonian                      ... done (   0.0 sec)
Back transforming the eigenvectors                 ... done (   0.0 sec)
Now organizing SCF variables                       ... done
                      ------------------
                      INITIAL GUESS DONE (   0.3 sec)
                      ------------------
-------------------
DFT GRID GENERATION
-------------------

General Integration Accuracy     IntAcc      ... 4.388
Radial Grid Type                 RadialGrid  ... OptM3 with GC (2021)
Angular Grid (max. ang.)         AngularGrid ... 4 (Lebedev-302)
Angular grid pruning method      GridPruning ... 4 (adaptive)
Weight generation scheme         WeightScheme... Becke
Basis function cutoff            BFCut       ... 1.0000e-10
Integration weight cutoff        WCut        ... 1.0000e-14
Angular grids for H and He will be reduced by one unit
Partially contracted basis set               ... off
Rotationally invariant grid construction     ... off

Total number of grid points                  ...   141727
Total number of batches                      ...     2231
Average number of points per batch           ...       63
Average number of grid points per atom       ...     4429
Time for grid setup =    0.571 sec

--------------------
COSX GRID GENERATION
--------------------

GRIDX 1
-------
General Integration Accuracy     IntAcc      ... 3.816
Radial Grid Type                 RadialGrid  ... OptM3 with GC (2021)
Angular Grid (max. ang.)         AngularGrid ... 1 (Lebedev-50)
Angular grid pruning method      GridPruning ... 4 (adaptive)
Weight generation scheme         WeightScheme... Becke
Basis function cutoff            BFCut       ... 1.0000e-10
Integration weight cutoff        WCut        ... 1.0000e-14
Angular grids for H and He will be reduced by one unit
Partially contracted basis set               ... on
Rotationally invariant grid construction     ... off

Total number of grid points                  ...    18099
Total number of batches                      ...      304
Average number of points per batch           ...       59
Average number of grid points per atom       ...      566
UseSFitting                                  ... on

GRIDX 2
-------
General Integration Accuracy     IntAcc      ... 4.020
Radial Grid Type                 RadialGrid  ... OptM3 with GC (2021)
Angular Grid (max. ang.)         AngularGrid ... 2 (Lebedev-110)
Angular grid pruning method      GridPruning ... 4 (adaptive)
Weight generation scheme         WeightScheme... Becke
Basis function cutoff            BFCut       ... 1.0000e-10
Integration weight cutoff        WCut        ... 1.0000e-14
Angular grids for H and He will be reduced by one unit
Partially contracted basis set               ... on
Rotationally invariant grid construction     ... off

Total number of grid points                  ...    38384
Total number of batches                      ...      617
Average number of points per batch           ...       62
Average number of grid points per atom       ...     1200
UseSFitting                                  ... on

GRIDX 3
-------
General Integration Accuracy     IntAcc      ... 4.338
Radial Grid Type                 RadialGrid  ... OptM3 with GC (2021)
Angular Grid (max. ang.)         AngularGrid ... 3 (Lebedev-194)
Angular grid pruning method      GridPruning ... 4 (adaptive)
Weight generation scheme         WeightScheme... Becke
Basis function cutoff            BFCut       ... 1.0000e-10
Integration weight cutoff        WCut        ... 1.0000e-14
Angular grids for H and He will be reduced by one unit
Partially contracted basis set               ... on
Rotationally invariant grid construction     ... off

Total number of grid points                  ...    83619
Total number of batches                      ...     1322
Average number of points per batch           ...       63
Average number of grid points per atom       ...     2613
UseSFitting                                  ... on

Time for X-Grid setup             =    0.724 sec

--------------
SCF ITERATIONS
--------------
ITER       Energy         Delta-E        Max-DP      RMS-DP      [F,P]     Damp
               ***  Starting incremental Fock matrix formation  ***
  0   -667.6933980971   0.000000000000 0.06311072  0.00095134  0.1296368 0.7000
  1   -667.9449376690  -0.251539571866 0.03614371  0.00065501  0.0540223 0.7000
                               ***Turning on DIIS***
  2   -668.0349142110  -0.089976541959 0.04488535  0.00099138  0.0174501 0.0000
  3   -668.1828237943  -0.147909583296 0.02743421  0.00047971  0.0329724 0.0000
  4   -668.2152351869  -0.032411392674 0.00975090  0.00016584  0.0073939 0.0000
  5   -668.2172038384  -0.001968651470 0.00439243  0.00006218  0.0048596 0.0000
  6   -668.2175826484  -0.000378809983 0.00318596  0.00004080  0.0007920 0.0000
               *** Restarting incremental Fock matrix formation ***
                                   *** Resetting DIIS ***
  7   -668.2175918585  -0.000009210078 0.00186836  0.00002106  0.0006871 0.0000
  8   -668.2175793420   0.000012516448 0.00074313  0.00000803  0.0010263 0.0000
  9   -668.2176030880  -0.000023745990 0.00027508  0.00000521  0.0002707 0.0000
 10   -668.2176047506  -0.000001662600 0.00020994  0.00000177  0.0000762 0.0000
                 **** Energy Check signals convergence ****

               *****************************************************
               *                     SUCCESS                       *
               *           SCF CONVERGED AFTER  11 CYCLES          *
               *****************************************************

Old exchange energy                            =    -17.856998981 Eh
New exchange energy                            =    -17.857061331 Eh
Exchange energy change after final integration =     -0.000062350 Eh
Total energy after final integration           =   -668.217667309 Eh
Final COS-X integration done in                =     2.106 sec

----------------
TOTAL SCF ENERGY
----------------

Total Energy       :         -668.21766731 Eh          -18183.12714 eV

Components:
Nuclear Repulsion  :          914.57864873 Eh           24886.95026 eV
Electronic Energy  :        -1582.79631604 Eh          -43070.07740 eV
One Electron Energy:        -2723.12597798 Eh          -74100.02503 eV
Two Electron Energy:         1140.32966194 Eh           31029.94763 eV
Max COSX asymmetry :            0.00000141 Eh               0.00004 eV

Virial components:
Potential Energy   :        -1331.81552183 Eh          -36240.54278 eV
Kinetic Energy     :          663.59785452 Eh           18057.41564 eV
Virial Ratio       :            2.00696177


DFT components:
N(Alpha)           :       55.000056539190 electrons
N(Beta)            :       54.000041449724 electrons
N(Total)           :      109.000097988914 electrons
E(X)               :      -70.929611022058 Eh       
E(C)               :       -4.311592285396 Eh       
E(XC)              :      -75.241203307455 Eh       
DFET-embed. en.    :        0.000000000000 Eh       

---------------
SCF CONVERGENCE
---------------

  Last Energy change         ...   -2.0908e-07  Tolerance :   1.0000e-06
  Last MAX-Density change    ...    0.0000e+00  Tolerance :   1.0000e-05
  Last RMS-Density change    ...    0.0000e+00  Tolerance :   1.0000e-06
  Last DIIS Error            ...    8.9984e-05  Tolerance :   1.0000e-06

             **** THE GBW FILE WAS UPDATED (epr_info.gbw) ****
             **** DENSITY epr_info.scfp WAS UPDATED ****
             **** ENERGY FILE WAS UPDATED (epr_info.en.tmp) ****
----------------------
UHF SPIN CONTAMINATION
----------------------

Warning: in a DFT calculation there is little theoretical justification to 
         calculate <S**2> as in Hartree-Fock theory. We will do it anyways
         but you should keep in mind that the values have only limited relevance

Expectation value of <S**2>     :     0.754004
Ideal value S*(S+1) for S=0.5   :     0.750000
Deviation                       :     0.004004

             **** THE GBW FILE WAS UPDATED (epr_info.gbw) ****
             **** DENSITY epr_info.scfp WAS UPDATED ****
----------------
ORBITAL ENERGIES
----------------
                 SPIN UP ORBITALS
  NO   OCC          E(Eh)            E(eV) 
   0   1.0000     -19.124593      -520.4066 
   1   1.0000     -19.100320      -519.7461 
   2   1.0000     -14.369917      -391.0253 
   3   1.0000     -14.348863      -390.4524 
   4   1.0000     -14.310280      -389.4025 
   5   1.0000     -10.304307      -280.3944 
   6   1.0000     -10.287062      -279.9252 
   7   1.0000     -10.242299      -278.7071 
   8   1.0000     -10.225073      -278.2384 
   9   1.0000     -10.208482      -277.7869 
  10   1.0000     -10.203577      -277.6535 
  11   1.0000     -10.191400      -277.3221 
  12   1.0000     -10.185436      -277.1598 
  13   1.0000     -10.184142      -277.1246 
  14   1.0000      -1.046750       -28.4835 
  15   1.0000      -1.021840       -27.8057 
  16   1.0000      -0.931387       -25.3443 
  17   1.0000      -0.915785       -24.9198 
  18   1.0000      -0.877998       -23.8916 
  19   1.0000      -0.802593       -21.8397 
  20   1.0000      -0.762654       -20.7529 
  21   1.0000      -0.726927       -19.7807 
  22   1.0000      -0.710162       -19.3245 
  23   1.0000      -0.672023       -18.2867 
  24   1.0000      -0.613005       -16.6807 
  25   1.0000      -0.594561       -16.1788 
  26   1.0000      -0.588401       -16.0112 
  27   1.0000      -0.555272       -15.1097 
  28   1.0000      -0.534042       -14.5320 
  29   1.0000      -0.492938       -13.4135 
  30   1.0000      -0.487914       -13.2768 
  31   1.0000      -0.475656       -12.9433 
  32   1.0000      -0.470045       -12.7906 
  33   1.0000      -0.458687       -12.4815 
  34   1.0000      -0.452856       -12.3229 
  35   1.0000      -0.446946       -12.1620 
  36   1.0000      -0.433815       -11.8047 
  37   1.0000      -0.429636       -11.6910 
  38   1.0000      -0.417893       -11.3714 
  39   1.0000      -0.403872       -10.9899 
  40   1.0000      -0.400204       -10.8901 
  41   1.0000      -0.392402       -10.6778 
  42   1.0000      -0.389476       -10.5982 
  43   1.0000      -0.381879       -10.3915 
  44   1.0000      -0.365958        -9.9582 
  45   1.0000      -0.354573        -9.6484 
  46   1.0000      -0.351153        -9.5553 
  47   1.0000      -0.335580        -9.1316 
  48   1.0000      -0.332636        -9.0515 
  49   1.0000      -0.281362        -7.6562 
  50   1.0000      -0.270232        -7.3534 
  51   1.0000      -0.252959        -6.8834 
  52   1.0000      -0.247726        -6.7410 
  53   1.0000      -0.240452        -6.5430 
  54   1.0000      -0.200593        -5.4584 
  55   0.0000       0.003761         0.1023 
  56   0.0000       0.012513         0.3405 
  57   0.0000       0.021188         0.5766 
  58   0.0000       0.026308         0.7159 
  59   0.0000       0.028858         0.7853 
  60   0.0000       0.036931         1.0050 
  61   0.0000       0.050062         1.3622 
  62   0.0000       0.055724         1.5163 
  63   0.0000       0.070102         1.9076 
  64   0.0000       0.075878         2.0647 
  65   0.0000       0.094104         2.5607 
  66   0.0000       0.097154         2.6437 
  67   0.0000       0.113066         3.0767 
  68   0.0000       0.125998         3.4286 
  69   0.0000       0.148864         4.0508 
  70   0.0000       0.157406         4.2832 
  71   0.0000       0.163626         4.4525 
  72   0.0000       0.167908         4.5690 
  73   0.0000       0.174816         4.7570 
  74   0.0000       0.178726         4.8634 
  75   0.0000       0.189059         5.1445 
  76   0.0000       0.190160         5.1745 
  77   0.0000       0.194831         5.3016 
  78   0.0000       0.203840         5.5468 
  79   0.0000       0.205433         5.5901 
  80   0.0000       0.210637         5.7317 
  81   0.0000       0.214176         5.8280 
  82   0.0000       0.224765         6.1162 
  83   0.0000       0.228684         6.2228 
  84   0.0000       0.235716         6.4142 
  85   0.0000       0.238832         6.4990 
  86   0.0000       0.242723         6.6048 
  87   0.0000       0.246951         6.7199 
  88   0.0000       0.254426         6.9233 
  89   0.0000       0.260246         7.0817 
  90   0.0000       0.269544         7.3347 
  91   0.0000       0.274482         7.4690 
  92   0.0000       0.282107         7.6765 
  93   0.0000       0.284211         7.7338 
  94   0.0000       0.293707         7.9922 
  95   0.0000       0.297571         8.0973 
  96   0.0000       0.300857         8.1867 
  97   0.0000       0.310824         8.4579 
  98   0.0000       0.312945         8.5157 
  99   0.0000       0.318096         8.6558 
 100   0.0000       0.320710         8.7270 
 101   0.0000       0.330142         8.9836 
 102   0.0000       0.333247         9.0681 
 103   0.0000       0.344191         9.3659 
 104   0.0000       0.359635         9.7862 
 105   0.0000       0.368225        10.0199 
 106   0.0000       0.383620        10.4388 
 107   0.0000       0.390702        10.6315 
 108   0.0000       0.398724        10.8498 
 109   0.0000       0.400165        10.8890 
 110   0.0000       0.422404        11.4942 
 111   0.0000       0.426122        11.5954 
 112   0.0000       0.440582        11.9889 
 113   0.0000       0.449191        12.2231 
 114   0.0000       0.452350        12.3091 
 115   0.0000       0.461910        12.5692 
 116   0.0000       0.465150        12.6574 
 117   0.0000       0.482328        13.1248 
 118   0.0000       0.487513        13.2659 
 119   0.0000       0.496110        13.4998 
 120   0.0000       0.499547        13.5934 
 121   0.0000       0.529422        14.4063 
 122   0.0000       0.536127        14.5888 
 123   0.0000       0.540615        14.7109 
 124   0.0000       0.559633        15.2284 
 125   0.0000       0.571606        15.5542 
 126   0.0000       0.590483        16.0678 
 127   0.0000       0.608366        16.5545 
 128   0.0000       0.613579        16.6963 
 129   0.0000       0.632758        17.2182 
 130   0.0000       0.645100        17.5541 
 131   0.0000       0.666870        18.1464 
 132   0.0000       0.673215        18.3191 
 133   0.0000       0.701792        19.0967 
 134   0.0000       0.722176        19.6514 
 135   0.0000       0.732998        19.9459 
 136   0.0000       0.751676        20.4542 
 137   0.0000       0.763945        20.7880 
 138   0.0000       0.770187        20.9578 
 139   0.0000       0.783740        21.3266 
 140   0.0000       0.802281        21.8312 
 141   0.0000       0.815499        22.1909 
 142   0.0000       0.817118        22.2349 
 143   0.0000       0.819287        22.2939 
 144   0.0000       0.837648        22.7936 
 145   0.0000       0.841685        22.9034 
 146   0.0000       0.858439        23.3593 
 147   0.0000       0.865528        23.5522 
 148   0.0000       0.876359        23.8469 
 149   0.0000       0.882926        24.0256 
 150   0.0000       0.888992        24.1907 
 151   0.0000       0.901865        24.5410 
 152   0.0000       0.905802        24.6481 
 153   0.0000       0.912606        24.8333 
 154   0.0000       0.918466        24.9927 
 155   0.0000       0.920814        25.0566 
 156   0.0000       0.923891        25.1403 
 157   0.0000       0.928512        25.2661 
 158   0.0000       0.930860        25.3300 
 159   0.0000       0.952796        25.9269 
 160   0.0000       0.957814        26.0634 
 161   0.0000       0.961611        26.1668 
 162   0.0000       0.964818        26.2540 
 163   0.0000       0.977722        26.6052 
 164   0.0000       1.000659        27.2293 
 165   0.0000       1.007695        27.4208 
 166   0.0000       1.015664        27.6376 
 167   0.0000       1.025678        27.9101 
 168   0.0000       1.036489        28.2043 
 169   0.0000       1.044509        28.4225 
 170   0.0000       1.051569        28.6147 
 171   0.0000       1.066383        29.0177 
 172   0.0000       1.083913        29.4948 
 173   0.0000       1.099157        29.9096 
 174   0.0000       1.124885        30.6097 
 175   0.0000       1.150089        31.2955 
 176   0.0000       1.155047        31.4304 
 177   0.0000       1.164843        31.6970 
 178   0.0000       1.172686        31.9104 
 179   0.0000       1.188992        32.3541 
 180   0.0000       1.194465        32.5031 
 181   0.0000       1.196582        32.5607 
 182   0.0000       1.212613        32.9969 
 183   0.0000       1.240288        33.7500 
 184   0.0000       1.285324        34.9754 
 185   0.0000       1.305243        35.5175 
 186   0.0000       1.322662        35.9915 
 187   0.0000       1.335289        36.3350 
 188   0.0000       1.339418        36.4474 
 189   0.0000       1.354134        36.8479 
 190   0.0000       1.371295        37.3148 
 191   0.0000       1.378988        37.5242 
 192   0.0000       1.398501        38.0552 
 193   0.0000       1.413383        38.4601 
 194   0.0000       1.415847        38.5272 
 195   0.0000       1.428601        38.8742 
 196   0.0000       1.455263        39.5997 
 197   0.0000       1.462150        39.7871 
 198   0.0000       1.479918        40.2706 
 199   0.0000       1.487171        40.4680 
 200   0.0000       1.491445        40.5843 
 201   0.0000       1.507736        41.0276 
 202   0.0000       1.519459        41.3466 
 203   0.0000       1.532753        41.7083 
 204   0.0000       1.539793        41.8999 
 205   0.0000       1.549061        42.1521 
 206   0.0000       1.564907        42.5833 
 207   0.0000       1.572400        42.7872 
 208   0.0000       1.572738        42.7964 
 209   0.0000       1.596627        43.4464 
 210   0.0000       1.608176        43.7607 
 211   0.0000       1.615631        43.9636 
 212   0.0000       1.631121        44.3851 
 213   0.0000       1.637224        44.5511 
 214   0.0000       1.650147        44.9028 
 215   0.0000       1.656038        45.0631 
 216   0.0000       1.663542        45.2673 
 217   0.0000       1.673780        45.5459 
 218   0.0000       1.684985        45.8508 
 219   0.0000       1.691190        46.0196 
 220   0.0000       1.702139        46.3175 
 221   0.0000       1.704536        46.3828 
 222   0.0000       1.729615        47.0652 
 223   0.0000       1.742905        47.4268 
 224   0.0000       1.745260        47.4909 
 225   0.0000       1.750457        47.6324 
 226   0.0000       1.761289        47.9271 
 227   0.0000       1.769556        48.1521 
 228   0.0000       1.799784        48.9746 
 229   0.0000       1.811922        49.3049 
 230   0.0000       1.815754        49.4092 
 231   0.0000       1.834488        49.9190 
 232   0.0000       1.843528        50.1649 
 233   0.0000       1.850810        50.3631 
 234   0.0000       1.864851        50.7452 
 235   0.0000       1.873041        50.9680 
 236   0.0000       1.907332        51.9011 
 237   0.0000       1.920890        52.2701 
 238   0.0000       1.946999        52.9805 
 239   0.0000       1.953218        53.1498 
 240   0.0000       1.976461        53.7822 
 241   0.0000       2.000134        54.4264 
 242   0.0000       2.015330        54.8399 
 243   0.0000       2.045598        55.6635 
 244   0.0000       2.058874        56.0248 
 245   0.0000       2.062198        56.1153 
 246   0.0000       2.073512        56.4231 
 247   0.0000       2.092272        56.9336 
 248   0.0000       2.121453        57.7277 
 249   0.0000       2.133367        58.0519 
 250   0.0000       2.147434        58.4346 
 251   0.0000       2.182309        59.3837 
 252   0.0000       2.199120        59.8411 
 253   0.0000       2.208939        60.1083 
 254   0.0000       2.219980        60.4087 
 255   0.0000       2.253624        61.3242 
 256   0.0000       2.264809        61.6286 
 257   0.0000       2.276372        61.9432 
 258   0.0000       2.296101        62.4801 
 259   0.0000       2.305503        62.7359 
 260   0.0000       2.322205        63.1904 
 261   0.0000       2.335711        63.5579 
 262   0.0000       2.353994        64.0554 
 263   0.0000       2.379917        64.7608 
 264   0.0000       2.383151        64.8488 
 265   0.0000       2.388748        65.0011 
 266   0.0000       2.398015        65.2533 
 267   0.0000       2.419882        65.8483 
 268   0.0000       2.424141        65.9642 
 269   0.0000       2.443777        66.4985 
 270   0.0000       2.458254        66.8925 
 271   0.0000       2.459679        66.9313 
 272   0.0000       2.479636        67.4743 
 273   0.0000       2.486146        67.6515 
 274   0.0000       2.492204        67.8163 
 275   0.0000       2.500084        68.0308 
 276   0.0000       2.516638        68.4812 
 277   0.0000       2.536097        69.0107 
 278   0.0000       2.581266        70.2398 
 279   0.0000       2.597067        70.6698 
 280   0.0000       2.605903        70.9102 
 281   0.0000       2.630899        71.5904 
 282   0.0000       2.665893        72.5426 
 283   0.0000       2.681167        72.9583 
 284   0.0000       2.692432        73.2648 
 285   0.0000       2.726125        74.1816 
 286   0.0000       2.733446        74.3808 
 287   0.0000       2.749528        74.8185 
 288   0.0000       2.773355        75.4668 
 289   0.0000       2.789952        75.9185 
 290   0.0000       2.835969        77.1706 
 291   0.0000       2.901131        78.9438 
 292   0.0000       2.973727        80.9192 
 293   0.0000       3.024533        82.3017 
 294   0.0000       3.083786        83.9141 
 295   0.0000       3.112938        84.7073 
 296   0.0000       3.351989        91.2123 
 297   0.0000       3.412864        92.8688 
 298   0.0000       3.436051        93.4997 
 299   0.0000       3.440459        93.6197 
 300   0.0000       4.921606       133.9237 
 301   0.0000       4.973245       135.3289 
 302   0.0000       4.988705       135.7496 
 303   0.0000       4.990148       135.7888 
 304   0.0000       5.006425       136.2318 
 305   0.0000       5.013288       136.4185 
 306   0.0000       5.024449       136.7222 
 307   0.0000       5.034004       136.9822 
 308   0.0000       5.073532       138.0578 
 309   0.0000       5.103381       138.8701 
 310   0.0000       5.131871       139.6453 
 311   0.0000       5.152370       140.2031 
 312   0.0000       5.184770       141.0848 
 313   0.0000       5.213116       141.8561 
 314   0.0000       5.241058       142.6164 
 315   0.0000       5.248714       142.8248 
 316   0.0000       5.281036       143.7043 
 317   0.0000       5.300386       144.2308 
 318   0.0000       5.313209       144.5798 
 319   0.0000       5.354051       145.6911 
 320   0.0000       5.382898       146.4761 
 321   0.0000       5.443514       148.1255 
 322   0.0000       5.597150       152.3062 
 323   0.0000       5.648477       153.7029 
 324   0.0000       5.695671       154.9871 
 325   0.0000       5.734526       156.0444 
 326   0.0000       5.852146       159.2450 
 327   0.0000       7.207362       196.1223 
 328   0.0000       7.290300       198.3792 
 329   0.0000       7.319344       199.1695 
 330   0.0000       9.074406       246.9272 
 331   0.0000       9.102440       247.6900 
 332   0.0000      29.579034       804.8864 
 333   0.0000      29.622748       806.0759 
 334   0.0000      29.735619       809.1473 
 335   0.0000      29.875617       812.9569 
 336   0.0000      29.912891       813.9711 
 337   0.0000      30.061540       818.0161 
 338   0.0000      30.070770       818.2673 
 339   0.0000      30.142762       820.2262 
 340   0.0000      30.253295       823.2340 
 341   0.0000      36.539843       994.2997 
 342   0.0000      36.607741       996.1473 
 343   0.0000      36.611038       996.2370 
 344   0.0000      36.614404       996.3286 
 345   0.0000      36.632228       996.8136 
 346   0.0000      36.639387       997.0084 
 347   0.0000      36.652369       997.3617 
 348   0.0000      36.693309       998.4757 
 349   0.0000      36.705624       998.8108 
 350   0.0000      36.718237       999.1540 
 351   0.0000      36.731652       999.5191 
 352   0.0000      36.782406      1000.9001 
 353   0.0000      36.828261      1002.1479 
 354   0.0000      36.840254      1002.4743 
 355   0.0000      36.883368      1003.6475 
 356   0.0000      36.891590      1003.8712 
 357   0.0000      36.917326      1004.5715 
 358   0.0000      36.946485      1005.3650 
 359   0.0000      41.151857      1119.7990 
 360   0.0000      41.232490      1121.9931 
 361   0.0000      41.257982      1122.6868 
 362   0.0000      53.611584      1458.8454 
 363   0.0000      53.638945      1459.5899 

                 SPIN DOWN ORBITALS
  NO   OCC          E(Eh)            E(eV) 
   0   1.0000     -19.124270      -520.3978 
   1   1.0000     -19.100052      -519.7388 
   2   1.0000     -14.369497      -391.0139 
   3   1.0000     -14.347825      -390.4242 
   4   1.0000     -14.310257      -389.4019 
   5   1.0000     -10.303556      -280.3740 
   6   1.0000     -10.287059      -279.9251 
   7   1.0000     -10.243116      -278.7293 
   8   1.0000     -10.225090      -278.2388 
   9   1.0000     -10.208447      -277.7860 
  10   1.0000     -10.192179      -277.3433 
  11   1.0000     -10.190099      -277.2867 
  12   1.0000     -10.185350      -277.1575 
  13   1.0000     -10.183803      -277.1154 
  14   1.0000      -1.045922       -28.4610 
  15   1.0000      -1.021259       -27.7899 
  16   1.0000      -0.930402       -25.3175 
  17   1.0000      -0.913503       -24.8577 
  18   1.0000      -0.877888       -23.8886 
  19   1.0000      -0.792313       -21.5599 
  20   1.0000      -0.761232       -20.7142 
  21   1.0000      -0.726145       -19.7594 
  22   1.0000      -0.703233       -19.1359 
  23   1.0000      -0.670288       -18.2395 
  24   1.0000      -0.604048       -16.4370 
  25   1.0000      -0.593234       -16.1427 
  26   1.0000      -0.586695       -15.9648 
  27   1.0000      -0.546859       -14.8808 
  28   1.0000      -0.530124       -14.4254 
  29   1.0000      -0.490880       -13.3575 
  30   1.0000      -0.486825       -13.2472 
  31   1.0000      -0.475106       -12.9283 
  32   1.0000      -0.467663       -12.7258 
  33   1.0000      -0.457843       -12.4585 
  34   1.0000      -0.451836       -12.2951 
  35   1.0000      -0.445690       -12.1278 
  36   1.0000      -0.431386       -11.7386 
  37   1.0000      -0.427764       -11.6400 
  38   1.0000      -0.412730       -11.2310 
  39   1.0000      -0.402997       -10.9661 
  40   1.0000      -0.398413       -10.8414 
  41   1.0000      -0.390336       -10.6216 
  42   1.0000      -0.388721       -10.5776 
  43   1.0000      -0.380280       -10.3479 
  44   1.0000      -0.362924        -9.8757 
  45   1.0000      -0.353686        -9.6243 
  46   1.0000      -0.347424        -9.4539 
  47   1.0000      -0.334038        -9.0896 
  48   1.0000      -0.329947        -8.9783 
  49   1.0000      -0.275345        -7.4925 
  50   1.0000      -0.269177        -7.3247 
  51   1.0000      -0.250941        -6.8284 
  52   1.0000      -0.244992        -6.6666 
  53   1.0000      -0.239936        -6.5290 
  54   0.0000      -0.065647        -1.7863 
  55   0.0000       0.004987         0.1357 
  56   0.0000       0.013486         0.3670 
  57   0.0000       0.022123         0.6020 
  58   0.0000       0.026682         0.7261 
  59   0.0000       0.029437         0.8010 
  60   0.0000       0.038802         1.0559 
  61   0.0000       0.051032         1.3887 
  62   0.0000       0.055967         1.5229 
  63   0.0000       0.071156         1.9363 
  64   0.0000       0.077921         2.1203 
  65   0.0000       0.094952         2.5838 
  66   0.0000       0.098981         2.6934 
  67   0.0000       0.113932         3.1002 
  68   0.0000       0.126717         3.4482 
  69   0.0000       0.149973         4.0810 
  70   0.0000       0.158004         4.2995 
  71   0.0000       0.164442         4.4747 
  72   0.0000       0.169008         4.5989 
  73   0.0000       0.176130         4.7927 
  74   0.0000       0.181070         4.9272 
  75   0.0000       0.190285         5.1779 
  76   0.0000       0.191869         5.2210 
  77   0.0000       0.196852         5.3566 
  78   0.0000       0.205784         5.5997 
  79   0.0000       0.207174         5.6375 
  80   0.0000       0.212994         5.7959 
  81   0.0000       0.215628         5.8675 
  82   0.0000       0.226084         6.1521 
  83   0.0000       0.230313         6.2671 
  84   0.0000       0.236450         6.4341 
  85   0.0000       0.240600         6.5471 
  86   0.0000       0.243468         6.6251 
  87   0.0000       0.250095         6.8054 
  88   0.0000       0.255156         6.9431 
  89   0.0000       0.263097         7.1592 
  90   0.0000       0.270653         7.3648 
  91   0.0000       0.280300         7.6273 
  92   0.0000       0.284083         7.7303 
  93   0.0000       0.286409         7.7936 
  94   0.0000       0.294776         8.0213 
  95   0.0000       0.299159         8.1405 
  96   0.0000       0.302884         8.2419 
  97   0.0000       0.311480         8.4758 
  98   0.0000       0.314489         8.5577 
  99   0.0000       0.319769         8.7014 
 100   0.0000       0.321596         8.7511 
 101   0.0000       0.331043         9.0081 
 102   0.0000       0.333924         9.0865 
 103   0.0000       0.347930         9.4676 
 104   0.0000       0.360898         9.8205 
 105   0.0000       0.371262        10.1025 
 106   0.0000       0.387553        10.5459 
 107   0.0000       0.392440        10.6788 
 108   0.0000       0.400553        10.8996 
 109   0.0000       0.403741        10.9863 
 110   0.0000       0.425773        11.5859 
 111   0.0000       0.428656        11.6643 
 112   0.0000       0.442845        12.0504 
 113   0.0000       0.450348        12.2546 
 114   0.0000       0.454645        12.3715 
 115   0.0000       0.463118        12.6021 
 116   0.0000       0.470441        12.8014 
 117   0.0000       0.483283        13.1508 
 118   0.0000       0.494698        13.4614 
 119   0.0000       0.500018        13.6062 
 120   0.0000       0.512296        13.9403 
 121   0.0000       0.532132        14.4800 
 122   0.0000       0.537390        14.6231 
 123   0.0000       0.545288        14.8380 
 124   0.0000       0.560861        15.2618 
 125   0.0000       0.573644        15.6097 
 126   0.0000       0.591988        16.1088 
 127   0.0000       0.609004        16.5718 
 128   0.0000       0.616189        16.7674 
 129   0.0000       0.636337        17.3156 
 130   0.0000       0.648011        17.6333 
 131   0.0000       0.668103        18.1800 
 132   0.0000       0.673868        18.3369 
 133   0.0000       0.703755        19.1501 
 134   0.0000       0.724557        19.7162 
 135   0.0000       0.737166        20.0593 
 136   0.0000       0.755078        20.5467 
 137   0.0000       0.766703        20.8630 
 138   0.0000       0.771466        20.9927 
 139   0.0000       0.784469        21.3465 
 140   0.0000       0.803245        21.8574 
 141   0.0000       0.817162        22.2361 
 142   0.0000       0.818192        22.2641 
 143   0.0000       0.819824        22.3085 
 144   0.0000       0.838792        22.8247 
 145   0.0000       0.842255        22.9189 
 146   0.0000       0.859490        23.3879 
 147   0.0000       0.867708        23.6115 
 148   0.0000       0.877770        23.8853 
 149   0.0000       0.885241        24.0886 
 150   0.0000       0.890604        24.2346 
 151   0.0000       0.902366        24.5546 
 152   0.0000       0.907147        24.6847 
 153   0.0000       0.914233        24.8775 
 154   0.0000       0.919361        25.0171 
 155   0.0000       0.921694        25.0806 
 156   0.0000       0.924547        25.1582 
 157   0.0000       0.928941        25.2778 
 158   0.0000       0.931907        25.3585 
 159   0.0000       0.955182        25.9918 
 160   0.0000       0.958600        26.0848 
 161   0.0000       0.963028        26.2053 
 162   0.0000       0.968099        26.3433 
 163   0.0000       0.979742        26.6601 
 164   0.0000       1.002114        27.2689 
 165   0.0000       1.013163        27.5696 
 166   0.0000       1.021053        27.7843 
 167   0.0000       1.026577        27.9346 
 168   0.0000       1.038894        28.2698 
 169   0.0000       1.048517        28.5316 
 170   0.0000       1.052374        28.6365 
 171   0.0000       1.068568        29.0772 
 172   0.0000       1.086460        29.5641 
 173   0.0000       1.101727        29.9795 
 174   0.0000       1.129610        30.7382 
 175   0.0000       1.150899        31.3176 
 176   0.0000       1.157702        31.5027 
 177   0.0000       1.166609        31.7451 
 178   0.0000       1.173531        31.9334 
 179   0.0000       1.190150        32.3856 
 180   0.0000       1.195385        32.5281 
 181   0.0000       1.198010        32.5995 
 182   0.0000       1.214434        33.0464 
 183   0.0000       1.241882        33.7933 
 184   0.0000       1.288174        35.0530 
 185   0.0000       1.309050        35.6211 
 186   0.0000       1.328843        36.1597 
 187   0.0000       1.338943        36.4345 
 188   0.0000       1.344735        36.5921 
 189   0.0000       1.360486        37.0207 
 190   0.0000       1.374180        37.3933 
 191   0.0000       1.382229        37.6124 
 192   0.0000       1.400968        38.1223 
 193   0.0000       1.413564        38.4650 
 194   0.0000       1.416274        38.5388 
 195   0.0000       1.435548        39.0632 
 196   0.0000       1.460059        39.7302 
 197   0.0000       1.465740        39.8848 
 198   0.0000       1.480959        40.2989 
 199   0.0000       1.488088        40.4929 
 200   0.0000       1.492414        40.6107 
 201   0.0000       1.509215        41.0678 
 202   0.0000       1.520728        41.3811 
 203   0.0000       1.536280        41.8043 
 204   0.0000       1.542019        41.9605 
 205   0.0000       1.551242        42.2115 
 206   0.0000       1.566857        42.6364 
 207   0.0000       1.573907        42.8282 
 208   0.0000       1.573931        42.8288 
 209   0.0000       1.597593        43.4727 
 210   0.0000       1.610749        43.8307 
 211   0.0000       1.616750        43.9940 
 212   0.0000       1.632835        44.4317 
 213   0.0000       1.640072        44.6286 
 214   0.0000       1.653279        44.9880 
 215   0.0000       1.657924        45.1144 
 216   0.0000       1.666105        45.3370 
 217   0.0000       1.675443        45.5911 
 218   0.0000       1.686812        45.9005 
 219   0.0000       1.693703        46.0880 
 220   0.0000       1.704136        46.3719 
 221   0.0000       1.708683        46.4956 
 222   0.0000       1.731808        47.1249 
 223   0.0000       1.746267        47.5183 
 224   0.0000       1.747160        47.5427 
 225   0.0000       1.752067        47.6762 
 226   0.0000       1.763450        47.9859 
 227   0.0000       1.773311        48.2542 
 228   0.0000       1.801322        49.0165 
 229   0.0000       1.816013        49.4162 
 230   0.0000       1.820305        49.5330 
 231   0.0000       1.836388        49.9707 
 232   0.0000       1.849746        50.3341 
 233   0.0000       1.852235        50.4019 
 234   0.0000       1.870075        50.8873 
 235   0.0000       1.876928        51.0738 
 236   0.0000       1.910790        51.9952 
 237   0.0000       1.924726        52.3744 
 238   0.0000       1.949631        53.0522 
 239   0.0000       1.957237        53.2591 
 240   0.0000       1.978389        53.8347 
 241   0.0000       2.000877        54.4466 
 242   0.0000       2.016152        54.8623 
 243   0.0000       2.046881        55.6985 
 244   0.0000       2.060089        56.0579 
 245   0.0000       2.063198        56.1425 
 246   0.0000       2.075586        56.4796 
 247   0.0000       2.093988        56.9803 
 248   0.0000       2.123385        57.7802 
 249   0.0000       2.137473        58.1636 
 250   0.0000       2.149537        58.4919 
 251   0.0000       2.186779        59.5053 
 252   0.0000       2.200304        59.8733 
 253   0.0000       2.210247        60.1439 
 254   0.0000       2.220827        60.4318 
 255   0.0000       2.255260        61.3688 
 256   0.0000       2.266368        61.6710 
 257   0.0000       2.276959        61.9592 
 258   0.0000       2.298869        62.5554 
 259   0.0000       2.307256        62.7836 
 260   0.0000       2.326219        63.2996 
 261   0.0000       2.336132        63.5694 
 262   0.0000       2.355160        64.0872 
 263   0.0000       2.380596        64.7793 
 264   0.0000       2.384594        64.8881 
 265   0.0000       2.390867        65.0588 
 266   0.0000       2.398288        65.2607 
 267   0.0000       2.420720        65.8711 
 268   0.0000       2.424597        65.9766 
 269   0.0000       2.445107        66.5348 
 270   0.0000       2.460453        66.9523 
 271   0.0000       2.461605        66.9837 
 272   0.0000       2.480330        67.4932 
 273   0.0000       2.486295        67.6555 
 274   0.0000       2.493280        67.8456 
 275   0.0000       2.500301        68.0366 
 276   0.0000       2.518392        68.5289 
 277   0.0000       2.538927        69.0877 
 278   0.0000       2.582526        70.2741 
 279   0.0000       2.599541        70.7371 
 280   0.0000       2.606876        70.9367 
 281   0.0000       2.632045        71.6216 
 282   0.0000       2.666559        72.5608 
 283   0.0000       2.682379        72.9913 
 284   0.0000       2.694075        73.3095 
 285   0.0000       2.728448        74.2448 
 286   0.0000       2.734800        74.4177 
 287   0.0000       2.749793        74.8257 
 288   0.0000       2.774443        75.4964 
 289   0.0000       2.791536        75.9616 
 290   0.0000       2.836987        77.1983 
 291   0.0000       2.901306        78.9486 
 292   0.0000       2.975356        80.9636 
 293   0.0000       3.025615        82.3312 
 294   0.0000       3.084133        83.9235 
 295   0.0000       3.113269        84.7164 
 296   0.0000       3.352852        91.2357 
 297   0.0000       3.413659        92.8904 
 298   0.0000       3.436698        93.5173 
 299   0.0000       3.441158        93.6387 
 300   0.0000       4.921714       133.9266 
 301   0.0000       4.974650       135.3671 
 302   0.0000       4.989285       135.7654 
 303   0.0000       4.990217       135.7907 
 304   0.0000       5.007680       136.2659 
 305   0.0000       5.014253       136.4448 
 306   0.0000       5.026151       136.7685 
 307   0.0000       5.034020       136.9827 
 308   0.0000       5.080706       138.2530 
 309   0.0000       5.104793       138.9085 
 310   0.0000       5.133043       139.6772 
 311   0.0000       5.154251       140.2543 
 312   0.0000       5.184086       141.0662 
 313   0.0000       5.214880       141.9041 
 314   0.0000       5.241809       142.6369 
 315   0.0000       5.249441       142.8445 
 316   0.0000       5.283546       143.7726 
 317   0.0000       5.301508       144.2614 
 318   0.0000       5.313689       144.5928 
 319   0.0000       5.354210       145.6955 
 320   0.0000       5.386538       146.5752 
 321   0.0000       5.451518       148.3433 
 322   0.0000       5.597170       152.3067 
 323   0.0000       5.651683       153.7901 
 324   0.0000       5.697981       155.0499 
 325   0.0000       5.735873       156.0810 
 326   0.0000       5.858720       159.4239 
 327   0.0000       7.207417       196.1238 
 328   0.0000       7.291601       198.4146 
 329   0.0000       7.321069       199.2164 
 330   0.0000       9.074964       246.9423 
 331   0.0000       9.103126       247.7087 
 332   0.0000      29.583122       804.9977 
 333   0.0000      29.623271       806.0902 
 334   0.0000      29.737256       809.1919 
 335   0.0000      29.879981       813.0756 
 336   0.0000      29.915014       814.0289 
 337   0.0000      30.064357       818.0927 
 338   0.0000      30.071698       818.2925 
 339   0.0000      30.142954       820.2315 
 340   0.0000      30.256244       823.3143 
 341   0.0000      36.539902       994.3013 
 342   0.0000      36.607875       996.1509 
 343   0.0000      36.611118       996.2392 
 344   0.0000      36.614807       996.3395 
 345   0.0000      36.634503       996.8755 
 346   0.0000      36.639426       997.0095 
 347   0.0000      36.652289       997.3595 
 348   0.0000      36.702583       998.7281 
 349   0.0000      36.707280       998.8559 
 350   0.0000      36.718334       999.1567 
 351   0.0000      36.731820       999.5236 
 352   0.0000      36.777369      1000.7631 
 353   0.0000      36.832031      1002.2505 
 354   0.0000      36.838475      1002.4259 
 355   0.0000      36.885546      1003.7067 
 356   0.0000      36.891983      1003.8819 
 357   0.0000      36.917764      1004.5834 
 358   0.0000      36.951364      1005.4977 
 359   0.0000      41.151888      1119.7998 
 360   0.0000      41.233358      1122.0167 
 361   0.0000      41.258951      1122.7131 
 362   0.0000      53.611889      1458.8537 
 363   0.0000      53.639314      1459.5999 

                    ********************************
                    * MULLIKEN POPULATION ANALYSIS *
                    ********************************

--------------------------------------------
MULLIKEN ATOMIC CHARGES AND SPIN POPULATIONS
--------------------------------------------
   0 N :   -0.131245    0.028712
   1 C :   -0.114987   -0.048013
   2 C :    0.062661    0.019302
   3 O :   -0.335159    0.008551
   4 C :   -0.137329    0.983816
   5 C :   -0.222668   -0.057442
   6 C :   -0.286559    0.012689
   7 C :   -0.291703    0.001472
   8 N :   -0.456895    0.000585
   9 H :    0.148853    0.013136
  10 H :    0.155734    0.052824
  11 H :    0.144874   -0.000637
  12 H :    0.160929   -0.000504
  13 H :    0.157393    0.000131
  14 H :    0.135551    0.000250
  15 H :    0.211300    0.000294
  16 H :    0.210905    0.000041
  17 H :    0.249997    0.000714
  18 C :    0.177533   -0.002198
  19 N :   -0.088285    0.016224
  20 H :    0.239332    0.002824
  21 O :   -0.318401    0.008404
  22 C :   -0.552962    0.003292
  23 H :    0.185895   -0.000277
  24 H :    0.150155   -0.000025
  25 H :    0.183785    0.000694
  26 C :   -0.443905   -0.001151
  27 H :    0.191862    0.001703
  28 H :    0.150934    0.000068
  29 H :    0.171420    0.000083
  30 H :    0.174934    0.002671
  31 H :    0.116052   -0.048234
Sum of atomic charges         :   -0.0000000
Sum of atomic spin populations:    1.0000000

-----------------------------------------------------
MULLIKEN REDUCED ORBITAL CHARGES AND SPIN POPULATIONS
-----------------------------------------------------
CHARGE
  0 N s       :     3.385335  s :     3.385335
      pz      :     1.179391  p :     3.712110
      px      :     1.535920
      py      :     0.996799
      dz2     :     0.006327  d :     0.033800
      dxz     :     0.004355
      dyz     :     0.011110
      dx2y2   :     0.005755
      dxy     :     0.006253
  1 C s       :     3.134374  s :     3.134374
      pz      :     0.982214  p :     2.872625
      px      :     0.995716
      py      :     0.894695
      dz2     :     0.019462  d :     0.107988
      dxz     :     0.029538
      dyz     :     0.019662
      dx2y2   :     0.022910
      dxy     :     0.016416
  2 C s       :     3.106274  s :     3.106274
      pz      :     0.841234  p :     2.638276
      px      :     0.837856
      py      :     0.959185
      dz2     :     0.049456  d :     0.192790
      dxz     :     0.027264
      dyz     :     0.056643
      dx2y2   :     0.027433
      dxy     :     0.031994
  3 O s       :     3.904786  s :     3.904786
      pz      :     1.302699  p :     4.412049
      px      :     1.381006
[...]
 A(SD)          -9.3107             -17.0173              26.3280
 A(ORB+DIA)      0.0906              -0.0709              -0.0199    A(PC) =  -0.0001
 A(ORB)          0.0901              -0.0707              -0.0196    A(PC) =  -0.0001
 A(DIA)          0.0005              -0.0002              -0.0003    A(PC) =  -0.0000
             ----------           ----------           ----------
 A(Tot)          1.1966              -6.6715              36.7248    A(iso)=   10.4166
 Orientation: 
  X           0.0566350            0.4496766           -0.8913941
  Y          -0.9367926           -0.2848284           -0.2032052
  Z          -0.3452710            0.8465599            0.4051225

Notes:  (1) The A matrix conforms to the "SAI" spin Hamiltonian convention.
        (2) Tensor is right-handed.

 -----------------------------------------------------------
 Nucleus  20H : A:ISTP=    1 I=  0.5 P=533.5514 MHz/au**3
                Q:ISTP=    2 I=  1.0 Q=  0.0029 barn     
 -----------------------------------------------------------
 Solving for nuclear perturbation:
Forming RHS of the CP-SCF equations         ... 
Calc. nucleus orbit integrals (SHARK)       ... done

------------------------------------------------------------------------------
                           ORCA CP-SCF CALCULATION
------------------------------------------------------------------------------

Input orbitals are from        ... epr_info.gbw
Input Perturbation             ... epr_info.pin.tmp
Wavefunction output            ... epr_info.pout.tmp
Perturbation mode              ... Imaginary perturbation
Solver                         ... POPLE
Max. number of iterations      ... 64
Convergence tolerance          ... 1.000e-03
Integral handling              ... Direct
DFT GridXC                     ... 1
COSX GridX                     ... 1
COSX IntAccX                   ... 3.067
COSX Algorithm                 ... Auto
Number of perturbations        ... 3
Number of operators            ... 2
Orbital ranges used for CP-SCF:
 Operator 0:  Orbitals   0... 54  to  55...363
 Operator 1:  Orbitals   0... 53  to  54...363
Variables per perturbation     ... 33735
DFT calculation                         ... on
XC functional terms                     ... off
Hybrid DFT                              ... on
   Exchange mixing (SCF)                ...  0.200
   Exchange mixing (CP-SCF)             ...  0.200
   GGA exch. scaling(SCF)               ...  0.720
   GGA exch. scaling (CP-SCF)           ...  0.720
   GGA corr. scaling (SCF)              ...  0.810
   GGA corr. scaling (CP-SCF)           ...  0.810

CP-SCF GRID
-----------

General Integration Accuracy     IntAcc      ... 3.467
Radial Grid Type                 RadialGrid  ... OptM3 with GC (2021)
Angular Grid (max. ang.)         AngularGrid ... 1 (Lebedev-50)
Angular grid pruning method      GridPruning ... 4 (adaptive)
Weight generation scheme         WeightScheme... Becke
Basis function cutoff            BFCut       ... 1.0000e-10
Integration weight cutoff        WCut        ... 1.0000e-14
Angular grids for H and He will be reduced by one unit
Partially contracted basis set               ... off
Rotationally invariant grid construction     ... off

Total number of grid points                  ...    20003
Total number of batches                      ...      326
Average number of points per batch           ...       61
Average number of grid points per atom       ...      625

CP-SCF GRIDX
------------

General Integration Accuracy     IntAcc      ... 3.067
Radial Grid Type                 RadialGrid  ... OptM3 with GC (2021)
Angular Grid (max. ang.)         AngularGrid ... 1 (Lebedev-50)
Angular grid pruning method      GridPruning ... 4 (adaptive)
Weight generation scheme         WeightScheme... Becke
Basis function cutoff            BFCut       ... 1.0000e-10
Integration weight cutoff        WCut        ... 1.0000e-14
Angular grids for H and He will be reduced by one unit
Partially contracted basis set               ... on
Rotationally invariant grid construction     ... off

Total number of grid points                  ...     9447
Total number of batches                      ...      168
Average number of points per batch           ...       56
Average number of grid points per atom       ...      295

Memory available               ... 920.7 MB
Memory needed per perturbation ...   8.0 MB
Perturbations treated per batch... 3
Number of batches              ... 1
     CP-SCF ITERATION   0:   7.3711e-02 (   0.5 sec   0/  3 done)
     CP-SCF ITERATION   1:   2.5009e-03 (   0.5 sec   0/  3 done)
     CP-SCF ITERATION   2:   2.4885e-04 (   0.5 sec   3/  3 done)
                    *** THE CP-SCF HAS CONVERGED ***

Forming final perturbed densities           ... done
Transforming perturbed density to AO basis  ... done

 Raw HFC matrix (all values in MHz): 
 -----------------------------------
                -9.5941               7.0980              -0.9297
                 7.0963               5.4684               2.0871
                -0.9296               2.0821              -8.8489

 A(FC)          -4.3199              -4.3199              -4.3199
 A(SD)          -4.0131              12.7553              -8.7422
 A(ORB+DIA)     -0.0128              -0.0016              -0.0005    A(PC) =  -0.0050
 A(ORB)         -0.0125              -0.0015               0.0005    A(PC) =  -0.0045
 A(DIA)         -0.0003              -0.0001              -0.0010    A(PC) =  -0.0005
             ----------           ----------           ----------
 A(Tot)         -8.3458               8.4337             -13.0626    A(iso)=   -4.3249
 Orientation: 
  X          -0.3778450            0.3606849           -0.8527248
  Y           0.0548947            0.9281065            0.3682458
  Z           0.9242401            0.0923297           -0.3704800

Notes:  (1) The A matrix conforms to the "SAI" spin Hamiltonian convention.
        (2) Tensor is right-handed.

 -----------------------------------------------------------
 Nucleus  30H : A:ISTP=    1 I=  0.5 P=533.5514 MHz/au**3
                Q:ISTP=    2 I=  1.0 Q=  0.0029 barn     
 -----------------------------------------------------------
 Solving for nuclear perturbation:
Forming RHS of the CP-SCF equations         ... 
Calc. nucleus orbit integrals (SHARK)       ... done

------------------------------------------------------------------------------
                           ORCA CP-SCF CALCULATION
------------------------------------------------------------------------------

Input orbitals are from        ... epr_info.gbw
Input Perturbation             ... epr_info.pin.tmp
Wavefunction output            ... epr_info.pout.tmp
Perturbation mode              ... Imaginary perturbation
Solver                         ... POPLE
Max. number of iterations      ... 64
Convergence tolerance          ... 1.000e-03
Integral handling              ... Direct
DFT GridXC                     ... 1
COSX GridX                     ... 1
COSX IntAccX                   ... 3.067
COSX Algorithm                 ... Auto
Number of perturbations        ... 3
Number of operators            ... 2
Orbital ranges used for CP-SCF:
 Operator 0:  Orbitals   0... 54  to  55...363
 Operator 1:  Orbitals   0... 53  to  54...363
Variables per perturbation     ... 33735
DFT calculation                         ... on
XC functional terms                     ... off
Hybrid DFT                              ... on
   Exchange mixing (SCF)                ...  0.200
   Exchange mixing (CP-SCF)             ...  0.200
   GGA exch. scaling(SCF)               ...  0.720
   GGA exch. scaling (CP-SCF)           ...  0.720
   GGA corr. scaling (SCF)              ...  0.810
   GGA corr. scaling (CP-SCF)           ...  0.810

CP-SCF GRID
-----------

General Integration Accuracy     IntAcc      ... 3.467
Radial Grid Type                 RadialGrid  ... OptM3 with GC (2021)
Angular Grid (max. ang.)         AngularGrid ... 1 (Lebedev-50)
Angular grid pruning method      GridPruning ... 4 (adaptive)
Weight generation scheme         WeightScheme... Becke
Basis function cutoff            BFCut       ... 1.0000e-10
Integration weight cutoff        WCut        ... 1.0000e-14
Angular grids for H and He will be reduced by one unit
Partially contracted basis set               ... off
Rotationally invariant grid construction     ... off

Total number of grid points                  ...    20003
Total number of batches                      ...      326
Average number of points per batch           ...       61
Average number of grid points per atom       ...      625

CP-SCF GRIDX
------------

General Integration Accuracy     IntAcc      ... 3.067
Radial Grid Type                 RadialGrid  ... OptM3 with GC (2021)
Angular Grid (max. ang.)         AngularGrid ... 1 (Lebedev-50)
Angular grid pruning method      GridPruning ... 4 (adaptive)
Weight generation scheme         WeightScheme... Becke
Basis function cutoff            BFCut       ... 1.0000e-10
Integration weight cutoff        WCut        ... 1.0000e-14
Angular grids for H and He will be reduced by one unit
Partially contracted basis set               ... on
Rotationally invariant grid construction     ... off

Total number of grid points                  ...     9447
Total number of batches                      ...      168
Average number of points per batch           ...       56
Average number of grid points per atom       ...      295

Memory available               ... 920.4 MB
Memory needed per perturbation ...   8.0 MB
Perturbations treated per batch... 3
Number of batches              ... 1
     CP-SCF ITERATION   0:   4.2267e-02 (   0.5 sec   0/  3 done)
     CP-SCF ITERATION   1:   1.6797e-03 (   0.5 sec   0/  3 done)
     CP-SCF ITERATION   2:   1.2907e-04 (   0.5 sec   3/  3 done)
                    *** THE CP-SCF HAS CONVERGED ***

Forming final perturbed densities           ... done
Transforming perturbed density to AO basis  ... done

 Raw HFC matrix (all values in MHz): 
 -----------------------------------
                13.3649              -0.4430               2.0357
                -0.4420              -0.4015               0.8027
                 2.0369               0.8028              -1.7101

 A(FC)           3.7489               3.7489               3.7489
 A(SD)          -3.7839              -6.1047               9.8886
 A(ORB+DIA)      0.0003               0.0008               0.0055    A(PC) =   0.0022
 A(ORB)          0.0001               0.0003               0.0047    A(PC) =   0.0017
 A(DIA)          0.0002               0.0006               0.0008    A(PC) =   0.0005
             ----------           ----------           ----------
 A(Tot)         -0.0347              -2.3549              13.6430    A(iso)=    3.7511
 Orientation: 
  X          -0.0306495           -0.1287451            0.9912040
  Y           0.9156060           -0.4013703           -0.0238211
  Z           0.4009067            0.9068222            0.1301816

Notes:  (1) The A matrix conforms to the "SAI" spin Hamiltonian convention.
        (2) Tensor is right-handed.

 -----------------------------------------------------------
 Nucleus  31H : A:ISTP=    1 I=  0.5 P=533.5514 MHz/au**3
                Q:ISTP=    2 I=  1.0 Q=  0.0029 barn     
 -----------------------------------------------------------
 Solving for nuclear perturbation:
Forming RHS of the CP-SCF equations         ... 
Calc. nucleus orbit integrals (SHARK)       ... done

------------------------------------------------------------------------------
                           ORCA CP-SCF CALCULATION
------------------------------------------------------------------------------

Input orbitals are from        ... epr_info.gbw
Input Perturbation             ... epr_info.pin.tmp
Wavefunction output            ... epr_info.pout.tmp
Perturbation mode              ... Imaginary perturbation
Solver                         ... POPLE
Max. number of iterations      ... 64
Convergence tolerance          ... 1.000e-03
Integral handling              ... Direct
DFT GridXC                     ... 1
COSX GridX                     ... 1
COSX IntAccX                   ... 3.067
COSX Algorithm                 ... Auto
Number of perturbations        ... 3
Number of operators            ... 2
Orbital ranges used for CP-SCF:
 Operator 0:  Orbitals   0... 54  to  55...363
 Operator 1:  Orbitals   0... 53  to  54...363
Variables per perturbation     ... 33735
DFT calculation                         ... on
XC functional terms                     ... off
Hybrid DFT                              ... on
   Exchange mixing (SCF)                ...  0.200
   Exchange mixing (CP-SCF)             ...  0.200
   GGA exch. scaling(SCF)               ...  0.720
   GGA exch. scaling (CP-SCF)           ...  0.720
   GGA corr. scaling (SCF)              ...  0.810
   GGA corr. scaling (CP-SCF)           ...  0.810

CP-SCF GRID
-----------

General Integration Accuracy     IntAcc      ... 3.467
Radial Grid Type                 RadialGrid  ... OptM3 with GC (2021)
Angular Grid (max. ang.)         AngularGrid ... 1 (Lebedev-50)
Angular grid pruning method      GridPruning ... 4 (adaptive)
Weight generation scheme         WeightScheme... Becke
Basis function cutoff            BFCut       ... 1.0000e-10
Integration weight cutoff        WCut        ... 1.0000e-14
Angular grids for H and He will be reduced by one unit
Partially contracted basis set               ... off
Rotationally invariant grid construction     ... off

Total number of grid points                  ...    20003
Total number of batches                      ...      326
Average number of points per batch           ...       61
Average number of grid points per atom       ...      625

CP-SCF GRIDX
------------

General Integration Accuracy     IntAcc      ... 3.067
Radial Grid Type                 RadialGrid  ... OptM3 with GC (2021)
Angular Grid (max. ang.)         AngularGrid ... 1 (Lebedev-50)
Angular grid pruning method      GridPruning ... 4 (adaptive)
Weight generation scheme         WeightScheme... Becke
Basis function cutoff            BFCut       ... 1.0000e-10
Integration weight cutoff        WCut        ... 1.0000e-14
Angular grids for H and He will be reduced by one unit
Partially contracted basis set               ... on
Rotationally invariant grid construction     ... off

Total number of grid points                  ...     9447
Total number of batches                      ...      168
Average number of points per batch           ...       56
Average number of grid points per atom       ...      295

Memory available               ... 920.0 MB
Memory needed per perturbation ...   8.0 MB
Perturbations treated per batch... 3
Number of batches              ... 1
     CP-SCF ITERATION   0:   6.2228e-02 (   0.5 sec   0/  3 done)
     CP-SCF ITERATION   1:   2.8461e-03 (   0.5 sec   0/  3 done)
     CP-SCF ITERATION   2:   1.9481e-04 (   0.5 sec   3/  3 done)
                    *** THE CP-SCF HAS CONVERGED ***

Forming final perturbed densities           ... done
Transforming perturbed density to AO basis  ... done

 Raw HFC matrix (all values in MHz): 
 -----------------------------------
               -86.1375               0.8617             -14.1148
                 0.8637             -47.3986             -15.1011
               -14.1177             -15.1023             -23.1945

 A(FC)         -52.2536             -52.2536             -52.2536
 A(SD)          38.6909              -1.6196             -37.0713
 A(ORB+DIA)      0.0055              -0.0030               0.0277    A(PC) =   0.0101
 A(ORB)          0.0006               0.0008               0.0288    A(PC) =   0.0101
 A(DIA)          0.0049              -0.0038              -0.0011    A(PC) =  -0.0000
             ----------           ----------           ----------
 A(Tot)        -13.5572             -53.8762             -89.2971    A(iso)=  -52.2435
 Orientation: 
  X          -0.1791928           -0.1432819           -0.9733243
  Y          -0.4047145            0.9124846           -0.0598163
  Z           0.8967141            0.3831998           -0.2214989

Notes:  (1) The A matrix conforms to the "SAI" spin Hamiltonian convention.
        (2) Tensor is right-handed.


--------------------------------------------------------------------------------
----------------------------------------------------------------------------
                           ORCA EULER ANGLE PROGRAM
----------------------------------------------------------------------------

Only g-tensor available        -->  using g-tensor as reference tensor

Reference tensor               ...  g

g-tensor ordering              ...  |g_min> --> |gx>
                                    |g_mid> --> |gy>
                                    |g_max> --> |gz>

A- and EFG-tensor ordering     ...  the axes |Ax>, |Qx>, |Ay>, etc. are assigned
                                    such that the Euler rotation is minimal. You
                                    can find the respective eigenvalues as Ax,
                                    EFGx, Ay, etc. in the tables below.
                                    The relation of |Ax>, |Ay>,  etc. to Amin, Amid, etc.
                                    (as printed in the ORCA EPR/NMR CALCULATION Output)
                                    is obtained in the detailed printout.

Euler rotation around          ...  z - y - z
   First rotation              -->  by alpha around z
   Second rotation             -->  by beta around y'
   Third rotation              -->  by gamma around z''
   Positive / Negative angle   -->  clockwise / counterclockwise rotation

Plot EFG-tensors                    (-)
Plot HFC-tensors                    (-)
Detailed Printout                   (-)

-------------------------------------------------------------------------
          Euler rotation of hyperfine tensor to g-tensor
-------------------------------------------------------------------------

-------------------------------------------------------------------
 Atom  |   Alpha    Beta    Gamma   |   Ax       Ay       Az 
       |          [degrees]         |           [MHz]         
-------------------------------------------------------------------
  0N      129.4     38.9   -166.3     237.62   158.23   160.57
  3O      -61.5     28.6     84.4      48.03    -0.33    -9.81
  8N      175.4     20.7    175.5       7.03     6.12     8.61
  9H      126.0     49.3   -150.2      26.94    39.61    26.14
 10H     -136.2     35.8    131.0     126.45   124.02   137.36
 11H       65.0     29.0    -90.3      -4.63    -4.50     4.02
 12H      -13.5     36.3    -16.0      -4.64    -6.13     3.98
 13H      -56.8     26.8     53.1      -0.49    -0.42     2.55
 14H     -129.2      5.0    114.8       0.96     0.32     3.78
 15H       -2.8     11.8      4.2       0.32     0.32     1.55
 16H      104.1     18.6    -70.1      -0.54    -0.58     1.04
 17H     -115.4     25.9    120.8       1.45     7.35    -1.27
 19N       77.2     40.7    -86.3       1.20    -6.67    36.72
 20H      -11.4     28.7     28.2       8.43    -8.35   -13.06
 30H       25.7     11.7    -35.3      -0.03    -2.35    13.64
 31H       27.6      4.6    -37.4     -53.88   -13.56   -89.30
-------------------------------------------------------------------


Maximum memory used throughout the entire EPRNMR-calculation: 137.6 MB

Timings for individual modules:

Sum of individual times         ...      487.844 sec (=   8.131 min)
GTO integral calculation        ...        3.662 sec (=   0.061 min)   0.8 %
Spin-Orbit-Coupling Matrices    ...        4.737 sec (=   0.079 min)   1.0 %
SCF iterations                  ...       25.913 sec (=   0.432 min)   5.3 %
EPR/NMR calculation             ...      453.532 sec (=   7.559 min)  93.0 %
                             ****ORCA TERMINATED NORMALLY****
TOTAL RUN TIME: 0 days 0 hours 8 minutes 10 seconds 548 msec
