
                                 *****************
                                 * O   R   C   A *
                                 *****************

                                            #,                                       
                                            ###                                      
                                            ####                                     
                                            #####                                    
                                            ######                                   
                                           ########,                                 
                                     ,,################,,,,,                         
                               ,,#################################,,                 
                          ,,##########################################,,             
                       ,#########################################, ''#####,          
                    ,#############################################,,   '####,        
                  ,##################################################,,,,####,       
                ,###########''''           ''''###############################       
              ,#####''   ,,,,##########,,,,          '''####'''          '####       
            ,##' ,,,,###########################,,,                        '##       
           ' ,,###''''                  '''############,,,                           
         ,,##''                                '''############,,,,        ,,,,,,###''
      ,#''                                            '''#######################'''  
     '                                                          ''''####''''         
             ,#######,   #######,   ,#######,      ##                                
            ,#'     '#,  ##    ##  ,#'     '#,    #''#        ######   ,####,        
            ##       ##  ##   ,#'  ##            #'  '#       #        #'  '#        
            ##       ##  #######   ##           ,######,      #####,   #    #        
            '#,     ,#'  ##    ##  '#,     ,#' ,#      #,         ##   #,  ,#        
             '#######'   ##     ##  '#######'  #'      '#     #####' # '####'        



                  #######################################################
                  #                        -***-                        #
                  #          Department of theory and spectroscopy      #
                  #    Directorship and core code : Frank Neese         #
                  #        Max Planck Institute fuer Kohlenforschung    #
                  #                Kaiser Wilhelm Platz 1               #
                  #                 D-45470 Muelheim/Ruhr               #
                  #                      Germany                        #
                  #                                                     #
                  #                  All rights reserved                #
                  #                        -***-                        #
                  #######################################################


                         Program Version 5.0.4 -  RELEASE  -


 With contributions from (in alphabetic order):
   Daniel Aravena         : Magnetic Suceptibility
   Michael Atanasov       : Ab Initio Ligand Field Theory (pilot matlab implementation)
   Alexander A. Auer      : GIAO ZORA, VPT2 properties, NMR spectrum
   Ute Becker             : Parallelization
   Giovanni Bistoni       : ED, misc. LED, open-shell LED, HFLD
   Martin Brehm           : Molecular dynamics
   Dmytro Bykov           : SCF Hessian
   Vijay G. Chilkuri      : MRCI spin determinant printing, contributions to CSF-ICE
   Dipayan Datta          : RHF DLPNO-CCSD density
   Achintya Kumar Dutta   : EOM-CC, STEOM-CC
   Dmitry Ganyushin       : Spin-Orbit,Spin-Spin,Magnetic field MRCI
   Miquel Garcia          : C-PCM and meta-GGA Hessian, CC/C-PCM, Gaussian charge scheme
   Yang Guo               : DLPNO-NEVPT2, F12-NEVPT2, CIM, IAO-localization
   Andreas Hansen         : Spin unrestricted coupled pair/coupled cluster methods
   Benjamin Helmich-Paris : MC-RPA, TRAH-SCF, COSX integrals
   Lee Huntington         : MR-EOM, pCC
   Robert Izsak           : Overlap fitted RIJCOSX, COSX-SCS-MP3, EOM
   Marcus Kettner         : VPT2
   Christian Kollmar      : KDIIS, OOCD, Brueckner-CCSD(T), CCSD density, CASPT2, CASPT2-K
   Simone Kossmann        : Meta GGA functionals, TD-DFT gradient, OOMP2, MP2 Hessian
   Martin Krupicka        : Initial AUTO-CI
   Lucas Lang             : DCDCAS
   Marvin Lechner         : AUTO-CI (C++ implementation), FIC-MRCC
   Dagmar Lenk            : GEPOL surface, SMD
   Dimitrios Liakos       : Extrapolation schemes; Compound Job, initial MDCI parallelization
   Dimitrios Manganas     : Further ROCIS development; embedding schemes
   Dimitrios Pantazis     : SARC Basis sets
   Anastasios Papadopoulos: AUTO-CI, single reference methods and gradients
   Taras Petrenko         : DFT Hessian,TD-DFT gradient, ASA, ECA, R-Raman, ABS, FL, XAS/XES, NRVS
   Peter Pinski           : DLPNO-MP2, DLPNO-MP2 Gradient
   Christoph Reimann      : Effective Core Potentials
   Marius Retegan         : Local ZFS, SOC
   Christoph Riplinger    : Optimizer, TS searches, QM/MM, DLPNO-CCSD(T), (RO)-DLPNO pert. Triples
   Tobias Risthaus        : Range-separated hybrids, TD-DFT gradient, RPA, STAB
   Michael Roemelt        : Original ROCIS implementation
   Masaaki Saitow         : Open-shell DLPNO-CCSD energy and density
   Barbara Sandhoefer     : DKH picture change effects
   Avijit Sen             : IP-ROCIS
   Kantharuban Sivalingam : CASSCF convergence, NEVPT2, FIC-MRCI
   Bernardo de Souza      : ESD, SOC TD-DFT
   Georgi Stoychev        : AutoAux, RI-MP2 NMR, DLPNO-MP2 response
   Willem Van den Heuvel  : Paramagnetic NMR
   Boris Wezisla          : Elementary symmetry handling
   Frank Wennmohs         : Technical directorship


 We gratefully acknowledge several colleagues who have allowed us to
 interface, adapt or use parts of their codes:
   Stefan Grimme, W. Hujo, H. Kruse, P. Pracht,  : VdW corrections, initial TS optimization,
                  C. Bannwarth, S. Ehlert          DFT functionals, gCP, sTDA/sTD-DF
   Ed Valeev, F. Pavosevic, A. Kumar             : LibInt (2-el integral package), F12 methods
   Garnet Chan, S. Sharma, J. Yang, R. Olivares  : DMRG
   Ulf Ekstrom                                   : XCFun DFT Library
   Mihaly Kallay                                 : mrcc  (arbitrary order and MRCC methods)
   Jiri Pittner, Ondrej Demel                    : Mk-CCSD
   Frank Weinhold                                : gennbo (NPA and NBO analysis)
   Christopher J. Cramer and Donald G. Truhlar   : smd solvation model
   Lars Goerigk                                  : TD-DFT with DH, B97 family of functionals
   V. Asgeirsson, H. Jonsson                     : NEB implementation
   FAccTs GmbH                                   : IRC, NEB, NEB-TS, DLPNO-Multilevel, CI-OPT
                                                   MM, QMMM, 2- and 3-layer-ONIOM, Crystal-QMMM,
                                                   LR-CPCM, SF, NACMEs, symmetry and pop. for TD-DFT,
                                                   nearIR, NL-DFT gradient (VV10), updates on ESD,
                                                   ML-optimized integration grids
   S Lehtola, MJT Oliveira, MAL Marques          : LibXC Library
   Liviu Ungur et al                             : ANISO software


 Your calculation uses the libint2 library for the computation of 2-el integrals
 For citations please refer to: http://libint.valeyev.net

 Your ORCA version has been built with support for libXC version: 5.1.0
 For citations please refer to: https://tddft.org/programs/libxc/

 This ORCA versions uses:
   CBLAS   interface :  Fast vector & matrix operations
   LAPACKE interface :  Fast linear algebra routines
   SCALAPACK package :  Parallel linear algebra routines
   Shared memory     :  Shared parallel matrices
   BLAS/LAPACK       :  OpenBLAS 0.3.15  USE64BITINT DYNAMIC_ARCH NO_AFFINITY Zen SINGLE_THREADED
        Core in use  :  Zen
   Copyright (c) 2011-2014, The OpenBLAS Project




***************************************
The coordinates will be read from file: opt.xyz
***************************************


XCFun DFT library Copyright 2009-2010 Ulf Ekstrom and contributors.
See http://admol.org/xcfun for more information.
This is free software; see the source code for copying conditions.
There is ABSOLUTELY NO WARRANTY; not even for MERCHANTABILITY or FITNESS FOR A PARTICULAR PURPOSE.
For details see the documentation.
Scientific users of this library should cite U. Ekstrom, L. Visscher, R. Bast, A. J. Thorvaldsen and K. Ruud;
J.Chem.Theor.Comp. 2010, DOI: 10.1021/ct100117s
XCFun Version 0.99 

================================================================================

----- Orbital basis set information -----
Your calculation utilizes the basis: def2-TZVP
   F. Weigend and R. Ahlrichs, Phys. Chem. Chem. Phys. 7, 3297 (2005).

----- AuxJ basis set information -----
Your calculation utilizes the auxiliary basis: def2/J
   F. Weigend, Phys. Chem. Chem. Phys. 8, 1057 (2006).

================================================================================
                                        WARNINGS
                       Please study these warnings very carefully!
================================================================================


WARNING: your system is open-shell and RHF/RKS was chosen
  ===> : WILL SWITCH to UHF/UKS


WARNING: Geometry Optimization
  ===> : Switching off AutoStart
         For restart on a previous wavefunction, please use MOREAD

WARNING: Minnesota functionals are quite sensitive to the integration grid.
         see SE Wheeler, KN Houk, JCTC 2010, 6, 395,
             N Mardirossian, M Head-Gordon, JCTC 2016, 12, 4303.
         DEFGRID3 seems to be a minimum grid for reliable results with these functionals!
  ===> : Please increase the integration grid!


INFO   : the flag for use of the SHARK integral package has been found!

================================================================================
                                       INPUT FILE
================================================================================
NAME = freq.inp
|  1> ! M062X def2-TZVP OPT FREQ
|  2> %pal nprocs 16 end
|  3> *XYZFile 0 2 opt.xyz
|  4> 
|  5>                          ****END OF INPUT****
================================================================================

                       *****************************
                       * Geometry Optimization Run *
                       *****************************

Geometry optimization settings:
Update method            Update   .... BFGS
Choice of coordinates    CoordSys .... Z-matrix Internals
Initial Hessian          InHess   .... Almoef's Model

Convergence Tolerances:
Energy Change            TolE     ....  5.0000e-06 Eh
Max. Gradient            TolMAXG  ....  3.0000e-04 Eh/bohr
RMS Gradient             TolRMSG  ....  1.0000e-04 Eh/bohr
Max. Displacement        TolMAXD  ....  4.0000e-03 bohr
RMS Displacement         TolRMSD  ....  2.0000e-03 bohr
Strict Convergence                ....  False
------------------------------------------------------------------------------
                        ORCA OPTIMIZATION COORDINATE SETUP
------------------------------------------------------------------------------

The optimization will be done in new redundant internal coordinates
Making redundant internal coordinates   ...  (new redundants) done
Evaluating the initial hessian          ...  (Almloef) done
Evaluating the coordinates              ...  done
Calculating the B-matrix                .... done
Calculating the G-matrix                .... done
Diagonalizing the G-matrix              .... done
Small eigenvalue found = 4.953e-03
Small eigenvalue found = 6.909e-03
Small eigenvalue found = 9.840e-03
Small eigenvalue found = 2.523e-02
Small eigenvalue found = 2.945e-02
The first mode is                       ....   63
The number of degrees of freedom        ....   90

    -----------------------------------------------------------------
                    Redundant Internal Coordinates


    -----------------------------------------------------------------
         Definition                    Initial Value    Approx d2E/dq
    -----------------------------------------------------------------
      1. B(C   1,N   0)                  1.4626         0.428645   
      2. B(C   2,C   1)                  1.5595         0.335238   
      3. B(O   3,C   2)                  1.2322         0.999005   
      4. B(C   4,C   1)                  1.5090         0.403487   
      5. B(C   5,C   4)                  1.5006         0.416125   
      6. B(C   6,C   5)                  1.5418         0.357710   
      7. B(C   7,C   6)                  1.5347         0.367172   
      8. B(N   8,C   7)                  1.4747         0.410012   
      9. B(H   9,C   5)                  1.0994         0.347861   
     10. B(H  10,C   5)                  1.1043         0.341643   
     11. B(H  11,C   6)                  1.0994         0.347844   
     12. B(H  12,C   6)                  1.0962         0.351951   
     13. B(H  13,C   7)                  1.0970         0.350899   
     14. B(H  14,C   7)                  1.1041         0.341943   
     15. B(H  15,N   8)                  1.0166         0.422413   
     16. B(H  16,N   8)                  1.0172         0.421430   
     17. B(H  17,N   0)                  1.0139         0.426611   
     18. B(C  18,N   0)                  1.3682         0.606317   
     19. B(N  19,C   2)                  1.3592         0.626553   
     20. B(H  20,N  19)                  1.0104         0.432105   
     21. B(O  21,C  18)                  1.2314         1.002015   
     22. B(C  22,C  18)                  1.5269         0.377904   
     23. B(H  23,C  22)                  1.0935         0.355553   
     24. B(H  24,C  22)                  1.0930         0.356089   
     25. B(H  25,C  22)                  1.0934         0.355659   
     26. B(C  26,N  19)                  1.4590         0.434316   
     27. B(H  27,C  26)                  1.0912         0.358575   
     28. B(H  28,C  26)                  1.0923         0.357106   
     29. B(H  29,C  26)                  1.0963         0.351917   
     30. B(H  30,C   1)                  1.0988         0.348689   
     31. B(H  31,C   4)                  1.0873         0.363710   
     32. A(H  17,N   0,C  18)          120.9957         0.356450   
     33. A(C   1,N   0,H  17)          114.3910         0.336261   
     34. A(C   1,N   0,C  18)          121.4129         0.399636   
     35. A(C   2,C   1,C   4)          113.0333         0.361418   
     36. A(C   4,C   1,H  30)          108.2975         0.326718   
     37. A(N   0,C   1,C   2)          105.7350         0.362900   
     38. A(C   2,C   1,H  30)          106.8146         0.316954   
     39. A(N   0,C   1,C   4)          113.6370         0.374632   
     40. A(N   0,C   1,H  30)          109.0606         0.328012   
     41. A(O   3,C   2,N  19)          123.5826         0.468010   
     42. A(C   1,C   2,O   3)          121.8029         0.420715   
     43. A(C   1,C   2,N  19)          114.5758         0.387474   
     44. A(C   1,C   4,C   5)          121.4843         0.375076   
     45. A(C   5,C   4,H  31)          118.5471         0.330680   
     46. A(C   1,C   4,H  31)          117.8364         0.328999   
     47. A(H   9,C   5,H  10)          105.3238         0.286895   
     48. A(C   6,C   5,H  10)          108.7350         0.319260   
     49. A(C   4,C   5,C   6)          113.3486         0.367384   
     50. A(C   4,C   5,H  10)          108.9459         0.327280   
     51. A(C   6,C   5,H   9)          109.9598         0.320202   
     52. A(C   4,C   5,H   9)          110.1987         0.328255   
     53. A(C   7,C   6,H  11)          109.1688         0.321570   
     54. A(C   5,C   6,H  11)          109.0121         0.320200   
     55. A(C   5,C   6,C   7)          112.8759         0.359609   
     56. A(H  11,C   6,H  12)          106.7158         0.288229   
     57. A(C   7,C   6,H  12)          108.5942         0.322189   
     58. A(C   5,C   6,H  12)          110.2828         0.320815   
     59. A(H  13,C   7,H  14)          106.8864         0.287324   
     60. A(N   8,C   7,H  14)          113.5706         0.324576   
     61. A(C   6,C   7,H  14)          108.8811         0.320671   
     62. A(N   8,C   7,H  13)          107.6983         0.325958   
     63. A(C   6,C   7,H  13)          109.0866         0.322031   
     64. A(C   6,C   7,N   8)          110.5708         0.365801   
     65. A(H  15,N   8,H  16)          105.9607         0.300823   
     66. A(C   7,N   8,H  16)          109.3162         0.333110   
     67. A(C   7,N   8,H  15)          109.6922         0.333239   
     68. A(O  21,C  18,C  22)          121.8350         0.430064   
     69. A(N   0,C  18,C  22)          115.6280         0.393407   
     70. A(N   0,C  18,O  21)          122.5310         0.465460   
     71. A(H  20,N  19,C  26)          119.5641         0.337717   
     72. A(C   2,N  19,C  26)          122.5152         0.402885   
     73. A(C   2,N  19,H  20)          116.9403         0.359226   
     74. A(H  24,C  22,H  25)          109.2884         0.289764   
     75. A(H  23,C  22,H  25)          107.6039         0.289695   
     76. A(C  18,C  22,H  25)          108.4790         0.324272   
     77. A(H  23,C  22,H  24)          109.3735         0.289750   
     78. A(C  18,C  22,H  24)          113.5040         0.324336   
     79. A(C  18,C  22,H  23)          108.4227         0.324256   
     80. A(H  28,C  26,H  29)          109.0993         0.289413   
     81. A(H  27,C  26,H  29)          108.2795         0.289599   
     82. A(N  19,C  26,H  29)          111.8314         0.329225   
     83. A(H  27,C  26,H  28)          109.2681         0.290265   
     84. A(N  19,C  26,H  28)          109.1450         0.330022   
     85. A(N  19,C  26,H  27)          109.1816         0.330246   
     86. D(C   2,C   1,N   0,C  18)   -163.9849         0.015665   
     87. D(C   4,C   1,N   0,H  17)   -128.5671         0.015665   
     88. D(C   4,C   1,N   0,C  18)     71.4714         0.015665   
     89. D(H  30,C   1,N   0,H  17)    110.5159         0.015665   
     90. D(C   2,C   1,N   0,H  17)     -4.0234         0.015665   
     91. D(H  30,C   1,N   0,C  18)    -49.4457         0.015665   
     92. D(O   3,C   2,C   1,C   4)    135.9803         0.008565   
     93. D(O   3,C   2,C   1,H  30)   -105.0160         0.008565   
     94. D(N  19,C   2,C   1,H  30)     72.7971         0.008565   
     95. D(N  19,C   2,C   1,C   4)    -46.2066         0.008565   
     96. D(O   3,C   2,C   1,N   0)     11.0609         0.008565   
     97. D(N  19,C   2,C   1,N   0)   -171.1260         0.008565   
     98. D(C   5,C   4,C   1,H  30)    172.6267         0.012073   
     99. D(C   5,C   4,C   1,N   0)     51.2825         0.012073   
    100. D(C   5,C   4,C   1,C   2)    -69.2311         0.012073   
    101. D(H  31,C   4,C   1,H  30)      9.4701         0.012073   
    102. D(H  31,C   4,C   1,C   2)    127.6123         0.012073   
    103. D(H  31,C   4,C   1,N   0)   -111.8741         0.012073   
    104. D(H  10,C   5,C   4,H  31)     81.3054         0.012812   
    105. D(H  10,C   5,C   4,C   1)    -81.7354         0.012812   
    106. D(H   9,C   5,C   4,H  31)   -163.6065         0.012812   
    107. D(C   6,C   5,C   4,H  31)    -39.8967         0.012812   
    108. D(C   6,C   5,C   4,C   1)    157.0624         0.012812   
    109. D(H   9,C   5,C   4,C   1)     33.3526         0.012812   
    110. D(H  11,C   6,C   5,H  10)    -68.0026         0.010275   
    111. D(H  11,C   6,C   5,H   9)    177.1584         0.010275   
    112. D(H  11,C   6,C   5,C   4)     53.3180         0.010275   
    113. D(H  12,C   6,C   5,C   4)    -63.5329         0.010275   
    114. D(C   7,C   6,C   5,H  10)     53.4856         0.010275   
    115. D(C   7,C   6,C   5,H   9)    -61.3533         0.010275   
    116. D(C   7,C   6,C   5,C   4)    174.8063         0.010275   
    117. D(H  12,C   6,C   5,H  10)    175.1465         0.010275   
    118. D(H  12,C   6,C   5,H   9)     60.3075         0.010275   
    119. D(H  14,C   7,C   6,H  12)   -179.4011         0.010788   
    120. D(H  14,C   7,C   6,H  11)     64.6081         0.010788   
    121. D(H  14,C   7,C   6,C   5)    -56.7915         0.010788   
    122. D(H  13,C   7,C   6,H  12)    -63.0933         0.010788   
    123. D(H  13,C   7,C   6,H  11)   -179.0841         0.010788   
    124. D(H  13,C   7,C   6,C   5)     59.5163         0.010788   
    125. D(N   8,C   7,C   6,H  12)     55.1657         0.010788   
    126. D(N   8,C   7,C   6,H  11)    -60.8252         0.010788   
    127. D(N   8,C   7,C   6,C   5)    177.7753         0.010788   
    128. D(H  16,N   8,C   7,H  14)    -55.8799         0.014341   
    129. D(H  16,N   8,C   7,H  13)   -174.0363         0.014341   
    130. D(H  16,N   8,C   7,C   6)     66.8609         0.014341   
    131. D(H  15,N   8,C   7,H  14)     59.9008         0.014341   
    132. D(H  15,N   8,C   7,H  13)    -58.2556         0.014341   
    133. D(H  15,N   8,C   7,C   6)   -177.3584         0.014341   
    134. D(C  22,C  18,N   0,H  17)     13.9867         0.029667   
    135. D(C  22,C  18,N   0,C   1)    172.6374         0.029667   
    136. D(O  21,C  18,N   0,H  17)   -166.8836         0.029667   
    137. D(O  21,C  18,N   0,C   1)     -8.2329         0.029667   
    138. D(C  26,N  19,C   2,O   3)     -2.4789         0.031841   
    139. D(C  26,N  19,C   2,C   1)    179.7521         0.031841   
    140. D(H  20,N  19,C   2,O   3)   -171.0868         0.031841   
    141. D(H  20,N  19,C   2,C   1)     11.1441         0.031841   
    142. D(H  25,C  22,C  18,O  21)    -57.2154         0.010664   
    143. D(H  25,C  22,C  18,N   0)    121.9209         0.010664   
    144. D(H  24,C  22,C  18,O  21)   -178.8923         0.010664   
    145. D(H  24,C  22,C  18,N   0)      0.2440         0.010664   
    146. D(H  23,C  22,C  18,O  21)     59.3627         0.010664   
    147. D(H  23,C  22,C  18,N   0)   -121.5010         0.010664   
    148. D(H  27,C  26,N  19,C   2)     38.6120         0.016083   
    149. D(H  29,C  26,N  19,H  20)     87.1233         0.016083   
    150. D(H  29,C  26,N  19,C   2)    -81.1969         0.016083   
    151. D(H  28,C  26,N  19,H  20)    -33.6871         0.016083   
    152. D(H  28,C  26,N  19,C   2)    157.9928         0.016083   
    153. D(H  27,C  26,N  19,H  20)   -153.0678         0.016083   
    -----------------------------------------------------------------

Number of atoms                         .... 32
Number of degrees of freedom            .... 153

         *************************************************************
         *                GEOMETRY OPTIMIZATION CYCLE   1            *
         *************************************************************
---------------------------------
CARTESIAN COORDINATES (ANGSTROEM)
---------------------------------
  N     -1.990716    0.765157    0.772090
  C     -1.560882   -0.045108   -0.367129
  C     -1.829908   -1.525831    0.041578
  O     -2.490392   -1.813845    1.041193
  C     -0.130950    0.202782   -0.780680
  C      0.991809    0.156449    0.213895
  C      2.365163   -0.125579   -0.427623
  C      3.521372   -0.045165    0.578377
  N      4.801263   -0.374613   -0.075828
  H      0.779858   -0.591747    0.991061
  H      1.040325    1.123372    0.745152
  H      2.538666    0.599424   -1.235709
  H      2.371980   -1.119858   -0.889234
  H      3.355218   -0.780482    1.375379
  H      3.512332    0.951087    1.054193
  H      5.550685   -0.360023    0.610858
  H      5.028771    0.348980   -0.753564
  H     -2.414672    0.236108    1.525937
  C     -2.202324    2.111365    0.650258
  N     -1.319882   -2.450175   -0.814568
  H     -0.680212   -2.115592   -1.521493
  O     -1.905859    2.738920   -0.366937
  C     -2.814287    2.796717    1.869728
  H     -3.751726    3.270464    1.565713
  H     -3.005872    2.115101    2.702465
  H     -2.135628    3.588015    2.199492
  C     -1.465564   -3.885451   -0.596826
  H     -2.460938   -4.088430   -0.198515
  H     -1.345403   -4.406296   -1.549371
  H     -0.725479   -4.266782    0.116363
  H     -2.210820    0.170550   -1.226407
  H      0.044010    0.684228   -1.739735

----------------------------
CARTESIAN COORDINATES (A.U.)
----------------------------
  NO LB      ZA    FRAG     MASS         X           Y           Z
   0 N     7.0000    0    14.007   -3.761908    1.445937    1.459038
   1 C     6.0000    0    12.011   -2.949640   -0.085241   -0.693774
   2 C     6.0000    0    12.011   -3.458025   -2.883404    0.078571
   3 O     8.0000    0    15.999   -4.706158   -3.427671    1.967570
   4 C     6.0000    0    12.011   -0.247459    0.383202   -1.475272
   5 C     6.0000    0    12.011    1.874247    0.295646    0.404202
   6 C     6.0000    0    12.011    4.469510   -0.237310   -0.808090
   7 C     6.0000    0    12.011    6.654429   -0.085349    1.092974
   8 N     7.0000    0    14.007    9.073072   -0.707915   -0.143293
   9 H     1.0000    0     1.008    1.473717   -1.118240    1.872833
  10 H     1.0000    0     1.008    1.965930    2.122865    1.408133
  11 H     1.0000    0     1.008    4.797383    1.132748   -2.335152
  12 H     1.0000    0     1.008    4.482393   -2.116226   -1.680409
  13 H     1.0000    0     1.008    6.340443   -1.474897    2.599089
  14 H     1.0000    0     1.008    6.637345    1.797293    1.992136
  15 H     1.0000    0     1.008   10.489275   -0.680345    1.154354
  16 H     1.0000    0     1.008    9.502999    0.659477   -1.424029
  17 H     1.0000    0     1.008   -4.563068    0.446179    2.883603
  18 C     6.0000    0    12.011   -4.161789    3.989901    1.228810
  19 N     7.0000    0    14.007   -2.494216   -4.630159   -1.539310
  20 H     1.0000    0     1.008   -1.285415   -3.997889   -2.875205
  21 O     8.0000    0    15.999   -3.601552    5.175809   -0.693411
  22 C     6.0000    0    12.011   -5.318232    5.285029    3.533273
  23 H     1.0000    0     1.008   -7.089734    6.180281    2.958769
  24 H     1.0000    0     1.008   -5.680275    3.996962    5.106918
  25 H     1.0000    0     1.008   -4.035751    6.780366    4.156437
  26 C     6.0000    0    12.011   -2.769515   -7.342438   -1.127838
  27 H     1.0000    0     1.008   -4.650498   -7.726014   -0.375139
  28 H     1.0000    0     1.008   -2.542443   -8.326693   -2.927886
  29 H     1.0000    0     1.008   -1.370957   -8.063050    0.219894
  30 H     1.0000    0     1.008   -4.177844    0.322293   -2.317573
  31 H     1.0000    0     1.008    0.083166    1.293004   -3.287623

--------------------------------
INTERNAL COORDINATES (ANGSTROEM)
--------------------------------
 N      0   0   0     0.000000000000     0.00000000     0.00000000
 C      1   0   0     1.462568222642     0.00000000     0.00000000
 C      2   1   0     1.559473992326   105.73495524     0.00000000
 O      3   2   1     1.232242500597   121.80285618    11.06093267
 C      2   1   3     1.509032905382   113.63702077   235.45631609
 C      5   2   1     1.500637554425   121.48433491    51.28249104
 C      6   5   2     1.541812651250   113.34855649   157.06243508
 C      7   6   5     1.534705568950   112.87589168   174.80628496
 N      8   7   6     1.474666006700   110.57077955   177.77525751
 H      6   5   2     1.099412442306   110.19873517    33.35263743
 H      6   5   2     1.104322277798   108.94588550   278.26456691
 H      7   6   5     1.099425644924   109.01207825    53.31804016
 H      7   6   5     1.096231191644   110.28280280   296.46714560
 H      8   7   6     1.097045998382   109.08655762    59.51633596
 H      8   7   6     1.104083251579   108.88111759   303.20853624
 H      9   8   7     1.016554895671   109.69218672   182.64163679
 H      9   8   7     1.017188870133   109.31622033    66.86091666
 H      1   2   3     1.013862705103   114.39102876   355.97662777
 C      1   2   3     1.368172577676   121.41288099   196.01505632
 N      3   2   1     1.359235706152   114.57582978   188.87403364
 H     20   3   2     1.010379571193   116.94028764    11.14411442
 O     19   1   2     1.231423500500   122.53104922   351.76714230
 C     19   1   2     1.526863505656   115.62799218   172.63743594
 H     23  19   1     1.093459115846   108.42274794   238.49904991
 H     23  19   1     1.093048685791   113.50398669     0.24402231
 H     23  19   1     1.093378221343   108.47900754   121.92093286
 C     20   3   2     1.458990314509   122.51517679   179.75209815
 H     27  20   3     1.091155584960   109.18161061    38.61202516
 H     27  20   3     1.092272349803   109.14504431   157.99279495
 H     27  20   3     1.096256864241   111.83137923   278.80312994
 H      2   1   3     1.098765290568   109.06058548   114.53927834
 H      5   2   1     1.087284620441   117.83636244   248.12585435

---------------------------
INTERNAL COORDINATES (A.U.)
---------------------------
 N      0   0   0     0.000000000000     0.00000000     0.00000000
 C      1   0   0     2.763853392969     0.00000000     0.00000000
 C      2   1   0     2.946978758469   105.73495524     0.00000000
 O      3   2   1     2.328600856706   121.80285618    11.06093267
 C      2   1   3     2.851658918247   113.63702077   235.45631609
 C      5   2   1     2.835794004141   121.48433491    51.28249104
 C      6   5   2     2.913603660678   113.34855649   157.06243508
 C      7   6   5     2.900173221520   112.87589168   174.80628496
 N      8   7   6     2.786714891665   110.57077955   177.77525751
 H      6   5   2     2.077588424183   110.19873517    33.35263743
 H      6   5   2     2.086866668627   108.94588550   278.26456691
 H      7   6   5     2.077613373516   109.01207825    53.31804016
 H      7   6   5     2.071576731669   110.28280280   296.46714560
 H      8   7   6     2.073116493255   109.08655762    59.51633596
 H      8   7   6     2.086414974534   108.88111759   303.20853624
 H      9   8   7     1.921010352915   109.69218672   182.64163679
 H      9   8   7     1.922208391024   109.31622033    66.86091666
 H      1   2   3     1.915922850041   114.39102876   355.97662777
 C      1   2   3     2.585471475748   121.41288099   196.01505632
 N      3   2   1     2.568583236075   114.57582978   188.87403364
 H     20   3   2     1.909340680864   116.94028764    11.14411442
 O     19   1   2     2.327053170819   122.53104922   351.76714230
 C     19   1   2     2.885353869569   115.62799218   172.63743594
 H     23  19   1     2.066338267588   108.42274794   238.49904991
 H     23  19   1     2.065562667188   113.50398669     0.24402231
 H     23  19   1     2.066185399131   108.47900754   121.92093286
 C     20   3   2     2.757092126465   122.51517679   179.75209815
 H     27  20   3     2.061985225073   109.18161061    38.61202516
 H     27  20   3     2.064095604782   109.14504431   157.99279495
 H     27  20   3     2.071625245847   111.83137923   278.80312994
 H      2   1   3     2.076365484632   109.06058548   114.53927834
 H      5   2   1     2.054670162259   117.83636244   248.12585435

---------------------
BASIS SET INFORMATION
---------------------
There are 4 groups of distinct atoms

 Group   1 Type N   : 11s6p2d1f contracted to 5s3p2d1f pattern {62111/411/11/1}
 Group   2 Type C   : 11s6p2d1f contracted to 5s3p2d1f pattern {62111/411/11/1}
 Group   3 Type O   : 11s6p2d1f contracted to 5s3p2d1f pattern {62111/411/11/1}
 Group   4 Type H   : 5s1p contracted to 3s1p pattern {311/1}

Atom   0N    basis set group =>   1
Atom   1C    basis set group =>   2
Atom   2C    basis set group =>   2
Atom   3O    basis set group =>   3
Atom   4C    basis set group =>   2
Atom   5C    basis set group =>   2
Atom   6C    basis set group =>   2
Atom   7C    basis set group =>   2
Atom   8N    basis set group =>   1
Atom   9H    basis set group =>   4
Atom  10H    basis set group =>   4
Atom  11H    basis set group =>   4
Atom  12H    basis set group =>   4
Atom  13H    basis set group =>   4
Atom  14H    basis set group =>   4
Atom  15H    basis set group =>   4
Atom  16H    basis set group =>   4
Atom  17H    basis set group =>   4
Atom  18C    basis set group =>   2
Atom  19N    basis set group =>   1
Atom  20H    basis set group =>   4
Atom  21O    basis set group =>   3
Atom  22C    basis set group =>   2
Atom  23H    basis set group =>   4
Atom  24H    basis set group =>   4
Atom  25H    basis set group =>   4
Atom  26C    basis set group =>   2
Atom  27H    basis set group =>   4
Atom  28H    basis set group =>   4
Atom  29H    basis set group =>   4
Atom  30H    basis set group =>   4
Atom  31H    basis set group =>   4
---------------------------------
AUXILIARY/J BASIS SET INFORMATION
---------------------------------
There are 4 groups of distinct atoms

 Group   1 Type N   : 12s5p4d2f1g contracted to 6s4p3d1f1g pattern {711111/2111/211/2/1}
 Group   2 Type C   : 12s5p4d2f1g contracted to 6s4p3d1f1g pattern {711111/2111/211/2/1}
 Group   3 Type O   : 12s5p4d2f1g contracted to 6s4p3d1f1g pattern {711111/2111/211/2/1}
 Group   4 Type H   : 5s2p1d contracted to 3s1p1d pattern {311/2/1}

Atom   0N    basis set group =>   1
Atom   1C    basis set group =>   2
Atom   2C    basis set group =>   2
Atom   3O    basis set group =>   3
Atom   4C    basis set group =>   2
Atom   5C    basis set group =>   2
Atom   6C    basis set group =>   2
Atom   7C    basis set group =>   2
Atom   8N    basis set group =>   1
Atom   9H    basis set group =>   4
Atom  10H    basis set group =>   4
Atom  11H    basis set group =>   4
Atom  12H    basis set group =>   4
Atom  13H    basis set group =>   4
Atom  14H    basis set group =>   4
Atom  15H    basis set group =>   4
Atom  16H    basis set group =>   4
Atom  17H    basis set group =>   4
Atom  18C    basis set group =>   2
Atom  19N    basis set group =>   1
Atom  20H    basis set group =>   4
Atom  21O    basis set group =>   3
Atom  22C    basis set group =>   2
Atom  23H    basis set group =>   4
Atom  24H    basis set group =>   4
Atom  25H    basis set group =>   4
Atom  26C    basis set group =>   2
Atom  27H    basis set group =>   4
Atom  28H    basis set group =>   4
Atom  29H    basis set group =>   4
Atom  30H    basis set group =>   4
Atom  31H    basis set group =>   4


           ************************************************************
           *        Program running with 16 parallel MPI-processes    *
           *              working on a common directory               *
           ************************************************************
------------------------------------------------------------------------------
                           ORCA GTO INTEGRAL CALCULATION
                           -- RI-GTO INTEGRALS CHOSEN --
------------------------------------------------------------------------------
------------------------------------------------------------------------------
                   ___                                                        
                  /   \      - P O W E R E D   B Y -                         
                 /     \                                                     
                 |  |  |   _    _      __       _____    __    __             
                 |  |  |  | |  | |    /  \     |  _  \  |  |  /  |          
                  \  \/   | |  | |   /    \    | | | |  |  | /  /          
                 / \  \   | |__| |  /  /\  \   | |_| |  |  |/  /          
                |  |  |   |  __  | /  /__\  \  |    /   |      \           
                |  |  |   | |  | | |   __   |  |    \   |  |\   \          
                \     /   | |  | | |  |  |  |  | |\  \  |  | \   \       
                 \___/    |_|  |_| |__|  |__|  |_| \__\ |__|  \__/        
                                                                              
                      - O R C A' S   B I G   F R I E N D -                    
                                      &                                       
                       - I N T E G R A L  F E E D E R -                       
                                                                              
 v1 FN, 2020, v2 2021                                                         
------------------------------------------------------------------------------


Reading SHARK input file freq.SHARKINP.tmp ... ok
----------------------
SHARK INTEGRAL PACKAGE
----------------------

Number of atoms                             ...     32
Number of basis functions                   ...    542
Number of shells                            ...    226
Maximum angular momentum                    ...      3
Integral batch strategy                     ... SHARK/LIBINT Hybrid
RI-J (if used) integral strategy            ... SPLIT-RIJ (Revised 2003 algorithm where possible)
Printlevel                                  ...      1
Contraction scheme used                     ... SEGMENTED contraction
Coulomb Range Separation                    ... NOT USED
Exchange Range Separation                   ... NOT USED
Finite Nucleus Model                        ... NOT USED
Auxiliary Coulomb fitting basis             ... AVAILABLE
   # of basis functions in Aux-J            ...    884
   # of shells in Aux-J                     ...    300
   Maximum angular momentum in Aux-J        ...      4
Auxiliary J/K fitting basis                 ... NOT available
Auxiliary Correlation fitting basis         ... NOT available
Auxiliary 'external' fitting basis          ... NOT available
Integral threshold                          ...     2.500000e-11
Primitive cut-off                           ...     2.500000e-12
Primitive pair pre-selection threshold      ...     2.500000e-12

Calculating pre-screening integrals         ... done (  0.0 sec) Dimension = 226
Organizing shell pair data                  ... done (  0.1 sec)
Shell pair information
Total number of shell pairs                 ...     25651
Shell pairs after pre-screening             ...     19236
Total number of primitive shell pairs       ...     75828
Primitive shell pairs kept                  ...     39468
          la=0 lb=0:   5753 shell pairs
          la=1 lb=0:   5705 shell pairs
          la=1 lb=1:   1445 shell pairs
          la=2 lb=0:   2554 shell pairs
          la=2 lb=1:   1285 shell pairs
          la=2 lb=2:    304 shell pairs
          la=3 lb=0:   1220 shell pairs
          la=3 lb=1:    619 shell pairs
          la=3 lb=2:    279 shell pairs
          la=3 lb=3:     72 shell pairs

Calculating one electron integrals          ... done (  0.0 sec)
Calculating RI/J V-Matrix + Cholesky decomp.... done (  0.0 sec)
Calculating Nuclear repulsion               ... done (  0.0 sec) ENN=    914.578648728223 Eh

SHARK setup successfully completed in   0.4 seconds

Maximum memory used throughout the entire GTOINT-calculation: 30.9 MB


           ************************************************************
           *        Program running with 16 parallel MPI-processes    *
           *              working on a common directory               *
           ************************************************************
-------------------------------------------------------------------------------
                                 ORCA SCF
-------------------------------------------------------------------------------

------------
SCF SETTINGS
------------
Hamiltonian:
 Density Functional     Method          .... DFT(GTOs)
 Exchange Functional    Exchange        .... M062X
 Correlation Functional Correlation     .... M062X
 Gradients option       PostSCFGGA      .... off
 Hybrid DFT is turned on
   Fraction HF Exchange ScalHFX         ....  0.540000
   Scaling of DF-GGA-X  ScalDFX         ....  0.460000
   Scaling of DF-GGA-C  ScalDFC         ....  1.000000
   Scaling of DF-LDA-C  ScalLDAC        ....  1.000000
   Perturbative correction              ....  0.000000
   Density functional embedding theory  .... OFF
 RI-approximation to the Coulomb term is turned on
   Number of AuxJ basis functions       .... 884
   RIJ-COSX (HFX calculated with COS-X)).... on


General Settings:
 Integral files         IntName         .... freq
 Hartree-Fock type      HFTyp           .... UHF
 Total Charge           Charge          ....    0
 Multiplicity           Mult            ....    2
 Number of Electrons    NEL             ....  109
 Basis Dimension        Dim             ....  542
 Nuclear Repulsion      ENuc            ....    914.5786487282 Eh

Convergence Acceleration:
 DIIS                   CNVDIIS         .... on
   Start iteration      DIISMaxIt       ....    12
   Startup error        DIISStart       ....  0.200000
   # of expansion vecs  DIISMaxEq       ....     5
   Bias factor          DIISBfac        ....   1.050
   Max. coefficient     DIISMaxC        ....  10.000
 Trust-Rad. Augm. Hess. CNVTRAH         .... auto
   Auto Start mean grad. ratio tolernc. ....  1.125000
   Auto Start start iteration           ....    20
   Auto Start num. interpolation iter.  ....    10
   Max. Number of Micro iterations      ....    16
   Max. Number of Macro iterations      .... Maxiter - #DIIS iter
   Number of Davidson start vectors     ....     2
   Converg. threshold I  (grad. norm)   ....   1.000e-05
   Converg. threshold II (energy diff.) ....   1.000e-08
   Grad. Scal. Fac. for Micro threshold ....   0.100
   Minimum threshold for Micro iter.    ....   0.010
   NR start threshold (gradient norm)   ....   0.001
   Initial trust radius                 ....   0.400
   Minimum AH scaling param. (alpha)    ....   1.000
   Maximum AH scaling param. (alpha)    .... 1000.000
   Orbital update algorithm             .... Taylor
   White noise on init. David. guess    .... on
   Maximum white noise                  ....   0.010
   Quad. conv. algorithm                .... NR
 SOSCF                  CNVSOSCF        .... off
 Level Shifting         CNVShift        .... on
   Level shift para.    LevelShift      ....    0.2500
   Turn off err/grad.   ShiftErr        ....    0.0010
 Zerner damping         CNVZerner       .... off
 Static damping         CNVDamp         .... on
   Fraction old density DampFac         ....    0.7000
   Max. Damping (<1)    DampMax         ....    0.9800
   Min. Damping (>=0)   DampMin         ....    0.0000
   Turn off err/grad.   DampErr         ....    0.1000
 Fernandez-Rico         CNVRico         .... off

SCF Procedure:
 Maximum # iterations   MaxIter         ....   125
 SCF integral mode      SCFMode         .... Direct
   Integral package                     .... SHARK and LIBINT hybrid scheme
 Reset frequency        DirectResetFreq ....    20
 Integral Threshold     Thresh          ....  2.500e-11 Eh
 Primitive CutOff       TCut            ....  2.500e-12 Eh

Convergence Tolerance:
 Convergence Check Mode ConvCheckMode   .... Total+1el-Energy
 Convergence forced     ConvForced      .... 0
 Energy Change          TolE            ....  1.000e-08 Eh
 1-El. energy change                    ....  1.000e-05 Eh
 DIIS Error             TolErr          ....  5.000e-07


Diagonalization of the overlap matrix:
Smallest eigenvalue                        ... 6.260e-05
Time for diagonalization                   ...    0.035 sec
Threshold for overlap eigenvalues          ... 1.000e-08
Number of eigenvalues below threshold      ... 0
Time for construction of square roots      ...    0.022 sec
Total time needed                          ...    0.059 sec

Time for model grid setup =    0.116 sec

------------------------------
INITIAL GUESS: MODEL POTENTIAL
------------------------------
Loading Hartree-Fock densities                     ... done
Calculating cut-offs                               ... done
Initializing the effective Hamiltonian             ... done
Setting up the integral package (SHARK)            ... done
Starting the Coulomb interaction                   ... done (   0.1 sec)
Reading the grid                                   ... done
Mapping shells                                     ... done
Starting the XC term evaluation                    ... done (   0.1 sec)
  promolecular density results
     # of electrons  =    108.991246946
     EX              =    -87.227300345
     EC              =     -3.609633892
     EX+EC           =    -90.836934237
Transforming the Hamiltonian                       ... done (   0.0 sec)
Diagonalizing the Hamiltonian                      ... done (   0.0 sec)
Back transforming the eigenvectors                 ... done (   0.0 sec)
Now organizing SCF variables                       ... done
                      ------------------
                      INITIAL GUESS DONE (   0.4 sec)
                      ------------------
-------------------
DFT GRID GENERATION
-------------------

General Integration Accuracy     IntAcc      ... 4.388
Radial Grid Type                 RadialGrid  ... OptM3 with GC (2021)
Angular Grid (max. ang.)         AngularGrid ... 4 (Lebedev-302)
Angular grid pruning method      GridPruning ... 4 (adaptive)
Weight generation scheme         WeightScheme... Becke
Basis function cutoff            BFCut       ... 1.0000e-11
Integration weight cutoff        WCut        ... 1.0000e-14
Angular grids for H and He will be reduced by one unit
Partially contracted basis set               ... off
Rotationally invariant grid construction     ... off

Total number of grid points                  ...   141727
Total number of batches                      ...     2231
Average number of points per batch           ...       63
Average number of grid points per atom       ...     4429
Time for grid setup =    0.597 sec

--------------------
COSX GRID GENERATION
--------------------

GRIDX 1
-------
General Integration Accuracy     IntAcc      ... 3.816
Radial Grid Type                 RadialGrid  ... OptM3 with GC (2021)
Angular Grid (max. ang.)         AngularGrid ... 1 (Lebedev-50)
Angular grid pruning method      GridPruning ... 4 (adaptive)
Weight generation scheme         WeightScheme... Becke
Basis function cutoff            BFCut       ... 1.0000e-11
Integration weight cutoff        WCut        ... 1.0000e-14
Angular grids for H and He will be reduced by one unit
Partially contracted basis set               ... on
Rotationally invariant grid construction     ... off

Total number of grid points                  ...    18099
Total number of batches                      ...      304
Average number of points per batch           ...       59
Average number of grid points per atom       ...      566
UseSFitting                                  ... on

GRIDX 2
-------
General Integration Accuracy     IntAcc      ... 4.020
Radial Grid Type                 RadialGrid  ... OptM3 with GC (2021)
Angular Grid (max. ang.)         AngularGrid ... 2 (Lebedev-110)
Angular grid pruning method      GridPruning ... 4 (adaptive)
Weight generation scheme         WeightScheme... Becke
Basis function cutoff            BFCut       ... 1.0000e-11
Integration weight cutoff        WCut        ... 1.0000e-14
Angular grids for H and He will be reduced by one unit
Partially contracted basis set               ... on
Rotationally invariant grid construction     ... off

Total number of grid points                  ...    38384
Total number of batches                      ...      617
Average number of points per batch           ...       62
Average number of grid points per atom       ...     1200
UseSFitting                                  ... on

GRIDX 3
-------
General Integration Accuracy     IntAcc      ... 4.338
Radial Grid Type                 RadialGrid  ... OptM3 with GC (2021)
Angular Grid (max. ang.)         AngularGrid ... 3 (Lebedev-194)
Angular grid pruning method      GridPruning ... 4 (adaptive)
Weight generation scheme         WeightScheme... Becke
Basis function cutoff            BFCut       ... 1.0000e-11
Integration weight cutoff        WCut        ... 1.0000e-14
Angular grids for H and He will be reduced by one unit
Partially contracted basis set               ... on
Rotationally invariant grid construction     ... off

Total number of grid points                  ...    83619
Total number of batches                      ...     1322
Average number of points per batch           ...       63
Average number of grid points per atom       ...     2613
UseSFitting                                  ... on

Time for X-Grid setup             =    0.823 sec

--------------
SCF ITERATIONS
--------------
ITER       Energy         Delta-E        Max-DP      RMS-DP      [F,P]     Damp
               ***  Starting incremental Fock matrix formation  ***
  0   -667.9168159305   0.000000000000 0.06484168  0.00047627  0.1502475 0.7000
  1   -668.1472052004  -0.230389269861 0.07092952  0.00040978  0.0711332 0.7000
                               ***Turning on DIIS***
  2   -668.2491217527  -0.101916552274 0.17471978  0.00083896  0.0273566 0.0000
  3   -668.4104006378  -0.161278885195 0.02333669  0.00025195  0.0366811 0.0000
  4   -668.4415322761  -0.031131638249 0.01029832  0.00008460  0.0051396 0.0000
  5   -668.4427114337  -0.001179157642 0.00621220  0.00003885  0.0038204 0.0000
  6   -668.4429858493  -0.000274415513 0.00439946  0.00002131  0.0013337 0.0000
  7   -668.4430518555  -0.000066006280 0.00305182  0.00001846  0.0006607 0.0000
               *** Restarting incremental Fock matrix formation ***
                                   *** Resetting DIIS ***
  8   -668.4430564752  -0.000004619642 0.00058880  0.00000682  0.0002481 0.0000
  9   -668.4430580050  -0.000001529864 0.00013077  0.00000183  0.0002790 0.0000
 10   -668.4430595266  -0.000001521522 0.00011423  0.00000128  0.0000604 0.0000
 11   -668.4430597287  -0.000000202166 0.00011527  0.00000062  0.0000766 0.0000
 12   -668.4430597743  -0.000000045601 0.00003574  0.00000024  0.0000290 0.0000
 13   -668.4430597695   0.000000004850 0.00000943  0.00000007  0.0000079 0.0000
 14   -668.4430597760  -0.000000006487 0.00000602  0.00000004  0.0000026 0.0000
 15   -668.4430597585   0.000000017488 0.00000782  0.00000003  0.0000015 0.0000
                            ***DIIS convergence achieved***

               *****************************************************
               *                     SUCCESS                       *
               *           SCF CONVERGED AFTER  16 CYCLES          *
               *****************************************************

Old exchange energy                            =    -48.245495558 Eh
New exchange energy                            =    -48.245456535 Eh
Exchange energy change after final integration =      0.000039023 Eh
Total energy after final integration           =   -668.443020735 Eh
Final COS-X integration done in                =     4.708 sec

----------------
TOTAL SCF ENERGY
----------------

Total Energy       :         -668.44302074 Eh          -18189.25932 eV

Components:
Nuclear Repulsion  :          914.57864873 Eh           24886.95026 eV
Electronic Energy  :        -1583.02166946 Eh          -43076.20958 eV
One Electron Energy:        -2722.79949987 Eh          -74091.14111 eV
Two Electron Energy:         1139.77783041 Eh           31014.93153 eV
Max COSX asymmetry :            0.00000242 Eh               0.00007 eV

Virial components:
Potential Energy   :        -1333.22386289 Eh          -36278.86569 eV
Kinetic Energy     :          664.78084215 Eh           18089.60637 eV
Virial Ratio       :            2.00550885


DFT components:
N(Alpha)           :       55.000058817611 electrons
N(Beta)            :       54.000041257124 electrons
N(Total)           :      109.000100074734 electrons
E(XC)              :      -45.002694899794 Eh       
DFET-embed. en.    :        0.000000000000 Eh       

---------------
SCF CONVERGENCE
---------------

  Last Energy change         ...    4.8487e-10  Tolerance :   1.0000e-08
  Last MAX-Density change    ...    0.0000e+00  Tolerance :   1.0000e-07
  Last RMS-Density change    ...    0.0000e+00  Tolerance :   5.0000e-09
  Last DIIS Error            ...    9.4975e-07  Tolerance :   5.0000e-07

             **** THE GBW FILE WAS UPDATED (freq.gbw) ****
             **** DENSITY freq.scfp WAS UPDATED ****
             **** ENERGY FILE WAS UPDATED (freq.en.tmp) ****
----------------------
UHF SPIN CONTAMINATION
----------------------

Warning: in a DFT calculation there is little theoretical justification to 
         calculate <S**2> as in Hartree-Fock theory. We will do it anyways
         but you should keep in mind that the values have only limited relevance

Expectation value of <S**2>     :     0.755284
Ideal value S*(S+1) for S=0.5   :     0.750000
Deviation                       :     0.005284

             **** THE GBW FILE WAS UPDATED (freq.gbw) ****
             **** DENSITY freq.scfp WAS UPDATED ****
----------------
ORBITAL ENERGIES
----------------
                 SPIN UP ORBITALS
  NO   OCC          E(Eh)            E(eV) 
   0   1.0000     -19.610401      -533.6262 
   1   1.0000     -19.587094      -532.9919 
   2   1.0000     -14.787355      -402.3844 
   3   1.0000     -14.768368      -401.8677 
   4   1.0000     -14.729589      -400.8125 
   5   1.0000     -10.659192      -290.0514 
   6   1.0000     -10.642247      -289.5903 
   7   1.0000     -10.598644      -288.4038 
   8   1.0000     -10.580453      -287.9088 
   9   1.0000     -10.562636      -287.4239 
  10   1.0000     -10.560775      -287.3733 
  11   1.0000     -10.545074      -286.9460 
  12   1.0000     -10.539929      -286.8060 
  13   1.0000     -10.537982      -286.7531 
  14   1.0000      -1.172720       -31.9113 
  15   1.0000      -1.148561       -31.2539 
  16   1.0000      -1.043615       -28.3982 
  17   1.0000      -1.029723       -28.0202 
  18   1.0000      -0.988781       -26.9061 
  19   1.0000      -0.908375       -24.7182 
  20   1.0000      -0.864486       -23.5239 
  21   1.0000      -0.824794       -22.4438 
  22   1.0000      -0.806867       -21.9560 
  23   1.0000      -0.765998       -20.8439 
  24   1.0000      -0.702849       -19.1255 
  25   1.0000      -0.679537       -18.4911 
  26   1.0000      -0.676542       -18.4096 
  27   1.0000      -0.639869       -17.4117 
  28   1.0000      -0.615268       -16.7423 
  29   1.0000      -0.575160       -15.6509 
  30   1.0000      -0.565896       -15.3988 
  31   1.0000      -0.556038       -15.1306 
  32   1.0000      -0.550566       -14.9816 
  33   1.0000      -0.538049       -14.6411 
  34   1.0000      -0.531490       -14.4626 
  35   1.0000      -0.524829       -14.2813 
  36   1.0000      -0.507797       -13.8179 
  37   1.0000      -0.504142       -13.7184 
  38   1.0000      -0.492222       -13.3940 
  39   1.0000      -0.477400       -12.9907 
  40   1.0000      -0.471420       -12.8280 
  41   1.0000      -0.465458       -12.6657 
  42   1.0000      -0.460040       -12.5183 
  43   1.0000      -0.456738       -12.4285 
  44   1.0000      -0.435580       -11.8527 
  45   1.0000      -0.426001       -11.5921 
  46   1.0000      -0.418503       -11.3881 
  47   1.0000      -0.400816       -10.9068 
  48   1.0000      -0.399351       -10.8669 
  49   1.0000      -0.359201        -9.7743 
  50   1.0000      -0.339346        -9.2341 
  51   1.0000      -0.329941        -8.9781 
  52   1.0000      -0.320842        -8.7305 
  53   1.0000      -0.314655        -8.5622 
  54   1.0000      -0.261521        -7.1163 
  55   0.0000       0.040617         1.1052 
  56   0.0000       0.051490         1.4011 
  57   0.0000       0.059863         1.6290 
  58   0.0000       0.064896         1.7659 
  59   0.0000       0.072571         1.9748 
  60   0.0000       0.083747         2.2789 
  61   0.0000       0.091379         2.4865 
  62   0.0000       0.100291         2.7291 
  63   0.0000       0.107129         2.9151 
  64   0.0000       0.114664         3.1202 
  65   0.0000       0.122382         3.3302 
  66   0.0000       0.126196         3.4340 
  67   0.0000       0.137779         3.7492 
  68   0.0000       0.145385         3.9561 
  69   0.0000       0.150037         4.0827 
  70   0.0000       0.157250         4.2790 
  71   0.0000       0.160852         4.3770 
  72   0.0000       0.164966         4.4889 
  73   0.0000       0.166652         4.5348 
  74   0.0000       0.170088         4.6283 
  75   0.0000       0.175417         4.7733 
  76   0.0000       0.190292         5.1781 
  77   0.0000       0.191615         5.2141 
  78   0.0000       0.208016         5.6604 
  79   0.0000       0.214360         5.8330 
  80   0.0000       0.218469         5.9448 
  81   0.0000       0.222805         6.0628 
  82   0.0000       0.230052         6.2600 
  83   0.0000       0.234145         6.3714 
  84   0.0000       0.247169         6.7258 
  85   0.0000       0.253357         6.8942 
  86   0.0000       0.256739         6.9862 
  87   0.0000       0.263159         7.1609 
  88   0.0000       0.269565         7.3352 
  89   0.0000       0.275915         7.5080 
  90   0.0000       0.287732         7.8296 
  91   0.0000       0.293058         7.9745 
  92   0.0000       0.300163         8.1678 
  93   0.0000       0.307661         8.3719 
  94   0.0000       0.313984         8.5439 
  95   0.0000       0.329748         8.9729 
  96   0.0000       0.330879         9.0037 
  97   0.0000       0.340774         9.2729 
  98   0.0000       0.346009         9.4154 
  99   0.0000       0.355860         9.6834 
 100   0.0000       0.366645         9.9769 
 101   0.0000       0.379735        10.3331 
 102   0.0000       0.388959        10.5841 
 103   0.0000       0.389244        10.5919 
 104   0.0000       0.398504        10.8438 
 105   0.0000       0.405963        11.0468 
 106   0.0000       0.406982        11.0745 
 107   0.0000       0.416912        11.3448 
 108   0.0000       0.426415        11.6033 
 109   0.0000       0.429073        11.6757 
 110   0.0000       0.435456        11.8494 
 111   0.0000       0.438199        11.9240 
 112   0.0000       0.443200        12.0601 
 113   0.0000       0.446600        12.1526 
 114   0.0000       0.451946        12.2981 
 115   0.0000       0.455491        12.3945 
 116   0.0000       0.464769        12.6470 
 117   0.0000       0.468064        12.7367 
 118   0.0000       0.471999        12.8438 
 119   0.0000       0.480573        13.0770 
 120   0.0000       0.484703        13.1894 
 121   0.0000       0.486962        13.2509 
 122   0.0000       0.495417        13.4810 
 123   0.0000       0.502519        13.6742 
 124   0.0000       0.502832        13.6827 
 125   0.0000       0.510192        13.8830 
 126   0.0000       0.518688        14.1142 
 127   0.0000       0.525411        14.2972 
 128   0.0000       0.528445        14.3797 
 129   0.0000       0.535568        14.5735 
 130   0.0000       0.537062        14.6142 
 131   0.0000       0.545448        14.8424 
 132   0.0000       0.548891        14.9361 
 133   0.0000       0.558108        15.1869 
 134   0.0000       0.561144        15.2695 
 135   0.0000       0.565930        15.3997 
 136   0.0000       0.567906        15.4535 
 137   0.0000       0.572552        15.5799 
 138   0.0000       0.578314        15.7367 
 139   0.0000       0.592697        16.1281 
 140   0.0000       0.593194        16.1416 
 141   0.0000       0.606837        16.5129 
 142   0.0000       0.614429        16.7195 
 143   0.0000       0.618087        16.8190 
 144   0.0000       0.626399        17.0452 
 145   0.0000       0.633324        17.2336 
 146   0.0000       0.637870        17.3573 
 147   0.0000       0.655940        17.8490 
 148   0.0000       0.673822        18.3356 
 149   0.0000       0.684996        18.6397 
 150   0.0000       0.694369        18.8948 
 151   0.0000       0.696355        18.9488 
 152   0.0000       0.703835        19.1523 
 153   0.0000       0.721413        19.6307 
 154   0.0000       0.731557        19.9067 
 155   0.0000       0.749072        20.3833 
 156   0.0000       0.770735        20.9728 
 157   0.0000       0.789355        21.4794 
 158   0.0000       0.792830        21.5740 
 159   0.0000       0.797347        21.6969 
 160   0.0000       0.814963        22.1763 
 161   0.0000       0.833150        22.6712 
 162   0.0000       0.840392        22.8682 
 163   0.0000       0.851926        23.1821 
 164   0.0000       0.870163        23.6783 
 165   0.0000       0.876442        23.8492 
 166   0.0000       0.883500        24.0413 
 167   0.0000       0.896046        24.3827 
 168   0.0000       0.899680        24.4815 
 169   0.0000       0.912531        24.8312 
 170   0.0000       0.915958        24.9245 
 171   0.0000       0.917662        24.9709 
 172   0.0000       0.935545        25.4575 
 173   0.0000       0.963272        26.2120 
 174   0.0000       0.969889        26.3920 
 175   0.0000       0.975844        26.5541 
 176   0.0000       0.985982        26.8299 
 177   0.0000       1.000862        27.2348 
 178   0.0000       1.003044        27.2942 
 179   0.0000       1.020508        27.7694 
 180   0.0000       1.032352        28.0917 
 181   0.0000       1.040806        28.3218 
 182   0.0000       1.056024        28.7359 
 183   0.0000       1.065223        28.9862 
 184   0.0000       1.074631        29.2422 
 185   0.0000       1.089423        29.6447 
 186   0.0000       1.102886        30.0111 
 187   0.0000       1.117000        30.3951 
 188   0.0000       1.128227        30.7006 
 189   0.0000       1.133835        30.8532 
 190   0.0000       1.147586        31.2274 
 191   0.0000       1.169041        31.8112 
 192   0.0000       1.184521        32.2324 
 193   0.0000       1.190400        32.3924 
 194   0.0000       1.202143        32.7120 
 195   0.0000       1.209342        32.9079 
 196   0.0000       1.230872        33.4937 
 197   0.0000       1.247650        33.9503 
 198   0.0000       1.276197        34.7271 
 199   0.0000       1.291858        35.1532 
 200   0.0000       1.298230        35.3266 
 201   0.0000       1.305389        35.5214 
 202   0.0000       1.318229        35.8708 
 203   0.0000       1.332324        36.2544 
 204   0.0000       1.342497        36.5312 
 205   0.0000       1.351094        36.7651 
 206   0.0000       1.374839        37.4113 
 207   0.0000       1.387748        37.7626 
 208   0.0000       1.391119        37.8543 
 209   0.0000       1.396300        37.9953 
 210   0.0000       1.399972        38.0952 
 211   0.0000       1.425580        38.7920 
 212   0.0000       1.436888        39.0997 
 213   0.0000       1.448473        39.4149 
 214   0.0000       1.468275        39.9538 
 215   0.0000       1.478951        40.2443 
 216   0.0000       1.489683        40.5363 
 217   0.0000       1.508000        41.0348 
 218   0.0000       1.519600        41.3504 
 219   0.0000       1.528803        41.6009 
 220   0.0000       1.537501        41.8375 
 221   0.0000       1.548986        42.1500 
 222   0.0000       1.552734        42.2520 
 223   0.0000       1.563202        42.5369 
 224   0.0000       1.573396        42.8143 
 225   0.0000       1.576973        42.9116 
 226   0.0000       1.587405        43.1955 
 227   0.0000       1.588308        43.2201 
 228   0.0000       1.605194        43.6795 
 229   0.0000       1.608974        43.7824 
 230   0.0000       1.611688        43.8563 
 231   0.0000       1.618068        44.0299 
 232   0.0000       1.625387        44.2290 
 233   0.0000       1.628261        44.3072 
 234   0.0000       1.633128        44.4397 
 235   0.0000       1.645388        44.7733 
 236   0.0000       1.665221        45.3130 
 237   0.0000       1.682705        45.7887 
 238   0.0000       1.692700        46.0607 
 239   0.0000       1.709443        46.5163 
 240   0.0000       1.712636        46.6032 
 241   0.0000       1.727057        46.9956 
 242   0.0000       1.752003        47.6744 
 243   0.0000       1.757043        47.8116 
 244   0.0000       1.763817        47.9959 
 245   0.0000       1.768559        48.1249 
 246   0.0000       1.783066        48.5197 
 247   0.0000       1.806563        49.1591 
 248   0.0000       1.817134        49.4467 
 249   0.0000       1.824461        49.6461 
 250   0.0000       1.829086        49.7719 
 251   0.0000       1.846817        50.2544 
 252   0.0000       1.860973        50.6396 
 253   0.0000       1.871689        50.9313 
 254   0.0000       1.881759        51.2053 
 255   0.0000       1.899547        51.6893 
 256   0.0000       1.906599        51.8812 
 257   0.0000       1.908059        51.9209 
 258   0.0000       1.918965        52.2177 
 259   0.0000       1.926589        52.4252 
 260   0.0000       1.941842        52.8402 
 261   0.0000       1.952023        53.1173 
 262   0.0000       1.966563        53.5129 
 263   0.0000       1.972211        53.6666 
 264   0.0000       1.976674        53.7880 
 265   0.0000       1.986884        54.0659 
 266   0.0000       2.000489        54.4361 
 267   0.0000       2.005935        54.5843 
 268   0.0000       2.014687        54.8224 
 269   0.0000       2.028841        55.2076 
 270   0.0000       2.037652        55.4473 
 271   0.0000       2.042264        55.5728 
 272   0.0000       2.057796        55.9955 
 273   0.0000       2.065991        56.2185 
 274   0.0000       2.072897        56.4064 
 275   0.0000       2.099994        57.1437 
 276   0.0000       2.110789        57.4375 
 277   0.0000       2.119294        57.6689 
 278   0.0000       2.146584        58.4115 
 279   0.0000       2.154585        58.6292 
 280   0.0000       2.162345        58.8404 
 281   0.0000       2.175673        59.2031 
 282   0.0000       2.190476        59.6059 
 283   0.0000       2.211025        60.1650 
 284   0.0000       2.220943        60.4349 
 285   0.0000       2.244705        61.0815 
 286   0.0000       2.249080        61.2006 
 287   0.0000       2.257062        61.4178 
 288   0.0000       2.263746        61.5997 
 289   0.0000       2.280935        62.0674 
 290   0.0000       2.282950        62.1222 
 291   0.0000       2.310390        62.8689 
 292   0.0000       2.327641        63.3383 
 293   0.0000       2.330374        63.4127 
 294   0.0000       2.332751        63.4774 
 295   0.0000       2.350425        63.9583 
 296   0.0000       2.352258        64.0082 
 297   0.0000       2.368381        64.4469 
 298   0.0000       2.376211        64.6600 
 299   0.0000       2.377740        64.7016 
 300   0.0000       2.393669        65.1350 
 301   0.0000       2.407126        65.5012 
 302   0.0000       2.417036        65.7709 
 303   0.0000       2.431134        66.1545 
 304   0.0000       2.448297        66.6215 
 305   0.0000       2.461189        66.9724 
 306   0.0000       2.465477        67.0890 
 307   0.0000       2.473847        67.3168 
 308   0.0000       2.483828        67.5884 
 309   0.0000       2.493354        67.8476 
 310   0.0000       2.510483        68.3137 
 311   0.0000       2.517992        68.5181 
 312   0.0000       2.526200        68.7414 
 313   0.0000       2.548395        69.3454 
 314   0.0000       2.554063        69.4996 
 315   0.0000       2.567365        69.8615 
 316   0.0000       2.571005        69.9606 
 317   0.0000       2.573423        70.0264 
 318   0.0000       2.588490        70.4364 
 319   0.0000       2.603360        70.8410 
 320   0.0000       2.612309        71.0845 
 321   0.0000       2.620599        71.3101 
 322   0.0000       2.629014        71.5391 
 323   0.0000       2.634087        71.6772 
 324   0.0000       2.646730        72.0212 
 325   0.0000       2.657162        72.3051 
 326   0.0000       2.665556        72.5335 
 327   0.0000       2.674321        72.7720 
 328   0.0000       2.686328        73.0987 
 329   0.0000       2.699335        73.4526 
 330   0.0000       2.718203        73.9661 
 331   0.0000       2.726816        74.2004 
 332   0.0000       2.732707        74.3607 
 333   0.0000       2.744903        74.6926 
 334   0.0000       2.760931        75.1287 
 335   0.0000       2.771365        75.4127 
 336   0.0000       2.775865        75.5351 
 337   0.0000       2.781625        75.6919 
 338   0.0000       2.788138        75.8691 
 339   0.0000       2.803594        76.2897 
 340   0.0000       2.832203        77.0682 
 341   0.0000       2.844729        77.4090 
 342   0.0000       2.858536        77.7847 
 343   0.0000       2.866358        77.9976 
 344   0.0000       2.880074        78.3708 
 345   0.0000       2.890622        78.6578 
 346   0.0000       2.907896        79.1279 
 347   0.0000       2.934404        79.8492 
 348   0.0000       2.946814        80.1869 
 349   0.0000       2.955697        80.4286 
 350   0.0000       2.968583        80.7793 
 351   0.0000       2.972427        80.8838 
 352   0.0000       2.983053        81.1730 
 353   0.0000       2.999288        81.6148 
 354   0.0000       3.003009        81.7160 
 355   0.0000       3.031356        82.4874 
 356   0.0000       3.051443        83.0340 
 357   0.0000       3.054475        83.1165 
 358   0.0000       3.064915        83.4006 
 359   0.0000       3.079327        83.7927 
 360   0.0000       3.088398        84.0396 
 361   0.0000       3.099742        84.3483 
 362   0.0000       3.105101        84.4941 
 363   0.0000       3.113869        84.7327 
 364   0.0000       3.122739        84.9740 
 365   0.0000       3.134890        85.3047 
 366   0.0000       3.146013        85.6074 
 367   0.0000       3.154191        85.8299 
 368   0.0000       3.157103        85.9091 
 369   0.0000       3.174718        86.3885 
 370   0.0000       3.184168        86.6456 
 371   0.0000       3.195528        86.9547 
 372   0.0000       3.199268        87.0565 
 373   0.0000       3.207518        87.2810 
 374   0.0000       3.210795        87.3702 
 375   0.0000       3.219468        87.6062 
 376   0.0000       3.233450        87.9866 
 377   0.0000       3.239720        88.1573 
 378   0.0000       3.244344        88.2831 
 379   0.0000       3.258029        88.6555 
 380   0.0000       3.269579        88.9698 
 381   0.0000       3.283280        89.3426 
 382   0.0000       3.290641        89.5429 
 383   0.0000       3.300535        89.8121 
 384   0.0000       3.313128        90.1548 
 385   0.0000       3.314321        90.1873 
 386   0.0000       3.325005        90.4780 
 387   0.0000       3.326016        90.5055 
 388   0.0000       3.334413        90.7340 
 389   0.0000       3.338189        90.8367 
 390   0.0000       3.346547        91.0642 
 391   0.0000       3.367047        91.6220 
 392   0.0000       3.373382        91.7944 
 393   0.0000       3.385637        92.1279 
 394   0.0000       3.393198        92.3336 
 395   0.0000       3.403916        92.6253 
 396   0.0000       3.413713        92.8918 
 397   0.0000       3.418634        93.0258 
 398   0.0000       3.438397        93.5635 
 399   0.0000       3.444691        93.7348 
 400   0.0000       3.469579        94.4121 
 401   0.0000       3.471735        94.4707 
 402   0.0000       3.482589        94.7661 
 403   0.0000       3.491471        95.0078 
 404   0.0000       3.518169        95.7342 
 405   0.0000       3.522560        95.8537 
 406   0.0000       3.538946        96.2996 
 407   0.0000       3.555764        96.7573 
 408   0.0000       3.562636        96.9443 
 409   0.0000       3.583906        97.5230 
 410   0.0000       3.591540        97.7308 
 411   0.0000       3.596704        97.8713 
 412   0.0000       3.619458        98.4905 
 413   0.0000       3.634354        98.8958 
 414   0.0000       3.649541        99.3091 
 415   0.0000       3.665110        99.7327 
 416   0.0000       3.712979       101.0353 
 417   0.0000       3.720541       101.2411 
 418   0.0000       3.747850       101.9842 
 419   0.0000       3.757360       102.2430 
 420   0.0000       3.765878       102.4748 
 421   0.0000       3.783029       102.9414 
 422   0.0000       3.800858       103.4266 
 423   0.0000       3.813136       103.7607 
 424   0.0000       3.841391       104.5296 
 425   0.0000       3.852111       104.8213 
 426   0.0000       3.861175       105.0679 
 427   0.0000       3.873783       105.4110 
 428   0.0000       3.886368       105.7535 
 429   0.0000       3.890398       105.8631 
 430   0.0000       3.899399       106.1080 
 431   0.0000       3.906409       106.2988 
 432   0.0000       3.942922       107.2924 
 433   0.0000       3.973277       108.1184 
 434   0.0000       3.990431       108.5852 
 435   0.0000       4.009789       109.1119 
 436   0.0000       4.036129       109.8286 
 437   0.0000       4.058172       110.4285 
 438   0.0000       4.088734       111.2601 
 439   0.0000       4.091360       111.3316 
 440   0.0000       4.129362       112.3657 
 441   0.0000       4.143392       112.7474 
 442   0.0000       4.149548       112.9149 
 443   0.0000       4.167816       113.4120 
 444   0.0000       4.173890       113.5773 
 445   0.0000       4.191835       114.0656 
 446   0.0000       4.207846       114.5013 
 447   0.0000       4.242536       115.4453 
 448   0.0000       4.289288       116.7175 
 449   0.0000       4.298146       116.9585 
 450   0.0000       4.321856       117.6037 
 451   0.0000       4.330465       117.8379 
 452   0.0000       4.345590       118.2495 
 453   0.0000       4.362891       118.7203 
 454   0.0000       4.393516       119.5537 
 455   0.0000       4.410087       120.0046 
 456   0.0000       4.421198       120.3069 
 457   0.0000       4.472313       121.6978 
 458   0.0000       4.484940       122.0414 
 459   0.0000       4.502615       122.5224 
 460   0.0000       4.521929       123.0479 
 461   0.0000       4.548427       123.7690 
 462   0.0000       4.550853       123.8350 
 463   0.0000       4.583388       124.7203 
 464   0.0000       4.614152       125.5575 
 465   0.0000       4.644275       126.3771 
 466   0.0000       4.698192       127.8443 
 467   0.0000       4.706199       128.0622 
 468   0.0000       4.714597       128.2907 
 469   0.0000       4.722254       128.4991 
 470   0.0000       4.756936       129.4428 
 471   0.0000       4.781798       130.1193 
 472   0.0000       4.798402       130.5712 
 473   0.0000       4.808545       130.8472 
 474   0.0000       4.839405       131.6869 
 475   0.0000       4.846948       131.8922 
 476   0.0000       4.868056       132.4665 
 477   0.0000       4.888547       133.0241 
 478   0.0000       4.920672       133.8983 
 479   0.0000       4.956731       134.8795 
 480   0.0000       4.972744       135.3152 
 481   0.0000       4.989728       135.7774 
 482   0.0000       5.024870       136.7337 
 483   0.0000       5.057395       137.6187 
 484   0.0000       5.065971       137.8521 
 485   0.0000       5.079179       138.2115 
 486   0.0000       5.105170       138.9187 
 487   0.0000       5.108156       139.0000 
 488   0.0000       5.178626       140.9176 
 489   0.0000       5.188672       141.1909 
 490   0.0000       5.203121       141.5841 
 491   0.0000       5.223398       142.1359 
 492   0.0000       5.239263       142.5676 
 493   0.0000       5.257688       143.0690 
 494   0.0000       5.264949       143.2665 
 495   0.0000       5.272423       143.4699 
 496   0.0000       5.277394       143.6052 
 497   0.0000       5.305076       144.3584 
 498   0.0000       5.368756       146.0913 
 499   0.0000       5.435584       147.9098 
 500   0.0000       5.448347       148.2571 
 501   0.0000       5.464195       148.6883 
 502   0.0000       5.518568       150.1679 
 503   0.0000       5.530687       150.4976 
 504   0.0000       5.592449       152.1783 
 505   0.0000       5.643586       153.5698 
 506   0.0000       5.681051       154.5893 
 507   0.0000       5.732438       155.9876 
 508   0.0000       5.739717       156.1856 
 509   0.0000       5.774203       157.1240 
 510   0.0000       5.869522       159.7178 
 511   0.0000       5.901115       160.5775 
 512   0.0000       6.086749       165.6289 
 513   0.0000       6.101318       166.0253 
 514   0.0000       6.294130       171.2720 
 515   0.0000       6.303729       171.5332 
 516   0.0000       6.399788       174.1471 
 517   0.0000       6.438861       175.2103 
 518   0.0000       6.538369       177.9181 
 519   0.0000       6.560870       178.5304 
 520   0.0000       6.654744       181.0848 
 521   0.0000       6.660041       181.2289 
 522   0.0000       6.819773       185.5754 
 523   0.0000       6.834147       185.9666 
 524   0.0000       7.041101       191.5981 
 525   0.0000       7.065619       192.2653 
 526   0.0000       7.077958       192.6010 
 527   0.0000       7.104182       193.3146 
 528   0.0000      22.403313       609.6251 
 529   0.0000      22.439764       610.6170 
 530   0.0000      22.470730       611.4596 
 531   0.0000      22.517847       612.7418 
 532   0.0000      22.568916       614.1314 
 533   0.0000      22.576972       614.3506 
 534   0.0000      22.767057       619.5231 
 535   0.0000      23.358652       635.6212 
 536   0.0000      23.390458       636.4867 
 537   0.0000      32.044346       871.9710 
 538   0.0000      32.519551       884.9020 
 539   0.0000      32.661475       888.7639 
 540   0.0000      44.066040      1199.0979 
 541   0.0000      44.085133      1199.6175 

                 SPIN DOWN ORBITALS
  NO   OCC          E(Eh)            E(eV) 
   0   1.0000     -19.610219      -533.6212 
   1   1.0000     -19.586909      -532.9869 
   2   1.0000     -14.787088      -402.3771 
   3   1.0000     -14.767652      -401.8482 
   4   1.0000     -14.729576      -400.8121 
   5   1.0000     -10.658641      -290.0364 
   6   1.0000     -10.642260      -289.5906 
   7   1.0000     -10.599333      -288.4225 
   8   1.0000     -10.580461      -287.9090 
   9   1.0000     -10.562622      -287.4236 
  10   1.0000     -10.554043      -287.1901 
  11   1.0000     -10.545693      -286.9629 
  12   1.0000     -10.539881      -286.8047 
  13   1.0000     -10.537742      -286.7465 
  14   1.0000      -1.171909       -31.8893 
  15   1.0000      -1.148036       -31.2397 
  16   1.0000      -1.042660       -28.3722 
  17   1.0000      -1.027278       -27.9536 
  18   1.0000      -0.988668       -26.9030 
  19   1.0000      -0.896025       -24.3821 
  20   1.0000      -0.862671       -23.4745 
  21   1.0000      -0.823565       -22.4104 
  22   1.0000      -0.798845       -21.7377 
  23   1.0000      -0.764060       -20.7911 
  24   1.0000      -0.692388       -18.8408 
  25   1.0000      -0.678202       -18.4548 
  26   1.0000      -0.673999       -18.3404 
  27   1.0000      -0.629970       -17.1423 
  28   1.0000      -0.609731       -16.5916 
  29   1.0000      -0.571713       -15.5571 
  30   1.0000      -0.564508       -15.3610 
  31   1.0000      -0.554944       -15.1008 
  32   1.0000      -0.547905       -14.9093 
  33   1.0000      -0.537173       -14.6172 
  34   1.0000      -0.530022       -14.4226 
  35   1.0000      -0.523143       -14.2354 
  36   1.0000      -0.504415       -13.7258 
  37   1.0000      -0.501284       -13.6406 
  38   1.0000      -0.486255       -13.2317 
  39   1.0000      -0.474637       -12.9155 
  40   1.0000      -0.470934       -12.8148 
  41   1.0000      -0.462703       -12.5908 
  42   1.0000      -0.458476       -12.4758 
[...]
     59       0.000873  -0.000093   0.000002  -0.000013  -0.001241   0.059516
     60       0.009682  -0.001161   0.000007  -0.000034  -0.013786   0.481784
     61       0.000357  -0.000241   0.000031  -0.000033  -0.008426   0.341815
     62      -0.010560   0.001392  -0.000051   0.000096   0.022793  -0.802883
     63      -0.000002  -0.000220  -0.000001  -0.000012   0.000135  -0.000015
     64      -0.000019  -0.000084  -0.000001  -0.000012   0.001217  -0.000007
     65       0.000023   0.000308   0.000002   0.000012  -0.001166   0.000014
     66       0.000010  -0.000030  -0.000005  -0.000006   0.000031   0.000007
     67       0.000225   0.000197  -0.000002   0.000001  -0.000294  -0.000009
     68      -0.000148  -0.000103  -0.000001  -0.000002   0.000327   0.000010
     69       0.001091   0.001495   0.000001  -0.000005  -0.000666   0.000003
     70      -0.000494  -0.000772  -0.000003  -0.000007   0.000280  -0.000014
     71       0.000374   0.000443   0.000000   0.000006  -0.000191  -0.000027
     72      -0.000454  -0.000543  -0.000008  -0.000005   0.000474  -0.000009
     73      -0.001510  -0.001366  -0.000004  -0.000059   0.004967   0.000117
     74       0.001844   0.002013   0.000002   0.000038  -0.003327  -0.000005
     75      -0.000748  -0.000613  -0.000007  -0.000007   0.000019  -0.000019
     76      -0.000867  -0.000818   0.000004  -0.000003   0.000507  -0.000027
     77      -0.000395  -0.000393   0.000000   0.000002   0.000204  -0.000008
     78       0.045236   0.000036   0.000003   0.000010   0.000031  -0.000503
     79      -0.021456  -0.000095   0.000001   0.000007  -0.000127   0.001583
     80      -0.079345  -0.000138  -0.000000  -0.000001  -0.000009   0.000114
     81      -0.444981  -0.000609   0.000019   0.000015  -0.000266   0.008398
     82      -0.144554  -0.000325   0.000001  -0.000007  -0.000270   0.006555
     83       0.134822   0.000236  -0.000008   0.000012  -0.000074  -0.003585
     84      -0.212515  -0.000538  -0.000001   0.000015  -0.000204   0.002812
     85       0.422214   0.001235  -0.000007  -0.000004   0.000270  -0.005214
     86       0.710121   0.001821  -0.000012  -0.000011   0.000546  -0.006280
     87       0.120713   0.000313   0.000004   0.000020   0.000101  -0.003331
     88      -0.033775  -0.000128  -0.000003  -0.000008   0.000016   0.003162
     89       0.102374   0.000327   0.000014   0.000022  -0.000199  -0.003171
     90       0.000016   0.023979   0.000000  -0.000007  -0.002849  -0.000426
     91      -0.000281  -0.003616  -0.000011   0.000020  -0.002522   0.000040
     92       0.000135   0.024390   0.000016   0.000081  -0.006101  -0.000787
     93       0.000247  -0.123704   0.000009   0.000018  -0.000796  -0.000407
     94       0.001360  -0.600385   0.000015   0.000068   0.000390  -0.001836
     95      -0.001844   0.783694  -0.000024  -0.000126   0.000682   0.000900


-----------
IR SPECTRUM
-----------

 Mode   freq       eps      Int      T**2         TX        TY        TZ
       cm**-1   L/(mol*cm) km/mol    a.u.
----------------------------------------------------------------------------
  8:     42.35   0.000207    1.05  0.001529  (-0.015459  0.010457 -0.034362)
  9:     49.66   0.000016    0.08  0.000100  (-0.006251 -0.003879  0.006758)
 10:     64.99   0.002011   10.16  0.009655  ( 0.091654  0.011661  0.033451)
 11:     82.53   0.000169    0.86  0.000640  (-0.010100  0.020610 -0.010638)
 12:     95.11   0.001124    5.68  0.003689  (-0.049136 -0.016840 -0.031476)
 13:    110.93   0.001003    5.07  0.002821  (-0.015581 -0.050353 -0.006535)
 14:    115.63   0.000408    2.06  0.001101  (-0.002220 -0.030298 -0.013344)
 15:    122.74   0.000484    2.45  0.001232  (-0.032839  0.004113  0.011680)
 16:    147.15   0.001880    9.50  0.003987  (-0.032951  0.053111 -0.008976)
 17:    163.89   0.000632    3.19  0.001203  ( 0.017925  0.022462  0.019418)
 18:    211.00   0.001235    6.24  0.001826  ( 0.027851 -0.001248  0.032390)
 19:    225.48   0.001643    8.30  0.002274  (-0.020802  0.034816  0.025075)
 20:    271.59   0.007191   36.34  0.008263  (-0.040044  0.058425 -0.056970)
 21:    290.30   0.000484    2.45  0.000521  (-0.003870  0.022443 -0.001398)
 22:    301.59   0.000313    1.58  0.000324  (-0.010440 -0.003699 -0.014184)
 23:    352.73   0.000090    0.46  0.000080  (-0.003324 -0.004457  0.006993)
 24:    374.89   0.004768   24.10  0.003969  (-0.000933  0.057698  0.025280)
 25:    435.08   0.007263   36.70  0.005209  ( 0.068630 -0.010108  0.019926)
 26:    481.52   0.006686   33.79  0.004333  ( 0.044529  0.012473  0.046848)
 27:    483.72   0.006880   34.77  0.004438  (-0.047244 -0.024065 -0.040339)
 28:    524.57   0.004361   22.04  0.002594  ( 0.000134  0.025125  0.044306)
 29:    549.30   0.014600   73.78  0.008294  ( 0.082895 -0.006944  0.037077)
 30:    586.23   0.004912   24.82  0.002615  (-0.002536 -0.044625 -0.024837)
 31:    628.03   0.002093   10.58  0.001040  ( 0.018046 -0.026676  0.001593)
 32:    664.58   0.000998    5.04  0.000469  (-0.017717  0.003847 -0.011836)
 33:    724.21   0.001742    8.80  0.000751  ( 0.012432  0.020540  0.013203)
 34:    734.50   0.000392    1.98  0.000166  (-0.011238 -0.005989 -0.002078)
 35:    808.63   0.002912   14.72  0.001124  (-0.022707  0.016368  0.018450)
 36:    837.75   0.015933   80.52  0.005935  (-0.025465  0.051971  0.050848)
 37:    876.92   0.009155   46.26  0.003258  ( 0.019623 -0.039083 -0.036678)
 38:    897.20   0.000515    2.60  0.000179  (-0.006051 -0.007043  0.009647)
 39:    945.43   0.000638    3.22  0.000210  ( 0.003524  0.007338 -0.012009)
 40:    992.06   0.000702    3.55  0.000221  (-0.008730  0.005060  0.010905)
 41:   1018.21   0.000807    4.08  0.000247  (-0.002592  0.014044 -0.006579)
 42:   1027.20   0.003243   16.39  0.000985  ( 0.018715 -0.023964 -0.007785)
 43:   1062.76   0.000639    3.23  0.000188  ( 0.005064 -0.005723 -0.011366)
 44:   1063.08   0.002058   10.40  0.000604  ( 0.024383 -0.000682  0.003036)
 45:   1067.13   0.001126    5.69  0.000329  ( 0.007975 -0.009575 -0.013193)
 46:   1090.27   0.000232    1.17  0.000066  ( 0.003910 -0.006713 -0.002445)
 47:   1111.35   0.002238   11.31  0.000628  ( 0.023669 -0.004545 -0.006888)
 48:   1136.59   0.001323    6.69  0.000363  ( 0.016074  0.004143  0.009369)
 49:   1157.51   0.000833    4.21  0.000224  (-0.005621  0.011964  0.007052)
 50:   1164.85   0.000547    2.76  0.000146  (-0.003150  0.007570  0.008899)
 51:   1188.45   0.000413    2.09  0.000109  (-0.009189 -0.004862 -0.000683)
 52:   1204.61   0.001117    5.65  0.000289  ( 0.013429 -0.008858 -0.005531)
 53:   1231.60   0.000348    1.76  0.000088  ( 0.003166  0.007466  0.004745)
 54:   1246.76   0.003199   16.17  0.000801  ( 0.012325 -0.025294 -0.003016)
 55:   1273.40   0.005735   28.98  0.001406  (-0.003244 -0.037345  0.000602)
 56:   1284.42   0.000704    3.56  0.000171  ( 0.010331 -0.004431 -0.006687)
 57:   1309.36   0.000124    0.63  0.000030  ( 0.005258  0.000283 -0.001375)
 58:   1331.41   0.004539   22.94  0.001064  (-0.018375  0.026605  0.004286)
 59:   1335.25   0.008794   44.44  0.002055  (-0.012013  0.043693  0.001349)
 60:   1359.26   0.000424    2.14  0.000097  ( 0.007906 -0.005553 -0.002018)
 61:   1366.42   0.001409    7.12  0.000322  (-0.010627  0.014260  0.002330)
 62:   1400.93   0.003837   19.39  0.000855  ( 0.012388 -0.022323 -0.014247)
 63:   1423.48   0.000918    4.64  0.000201  ( 0.014025 -0.002045  0.000649)
 64:   1435.54   0.002456   12.41  0.000534  (-0.021593  0.000600  0.008209)
 65:   1457.35   0.004550   22.99  0.000974  ( 0.014978 -0.020977 -0.017603)
 66:   1475.64   0.000197    1.00  0.000042  (-0.000253 -0.000773 -0.006411)
 67:   1477.59   0.001978    9.99  0.000418  (-0.017058  0.007544 -0.008353)
 68:   1483.04   0.014099   71.25  0.002967  (-0.002578  0.054400 -0.000838)
 69:   1488.25   0.002952   14.92  0.000619  (-0.014442 -0.014528 -0.014116)
 70:   1492.62   0.000975    4.93  0.000204  ( 0.001058  0.004176  0.013610)
 71:   1511.05   0.001732    8.76  0.000358  ( 0.002339 -0.018458  0.003407)
 72:   1521.53   0.000615    3.11  0.000126  ( 0.006426 -0.002355  0.008900)
 73:   1535.18   0.095215  481.18  0.019355  (-0.049182  0.122701  0.043363)
 74:   1575.93   0.035141  177.59  0.006958  ( 0.013750 -0.074746 -0.034387)
 75:   1656.40   0.007310   36.94  0.001377  ( 0.032601  0.017592 -0.002194)
 76:   1776.11   0.085324  431.19  0.014991  ( 0.032044  0.057649 -0.103156)
 77:   1786.93   0.019634   99.22  0.003429  ( 0.036123 -0.037337 -0.027019)
 78:   3002.59   0.002674   13.52  0.000278  (-0.006545  0.009856  0.011747)
 79:   3006.21   0.009726   49.15  0.001010  (-0.003941  0.017905  0.025953)
 80:   3052.90   0.002105   10.64  0.000215  (-0.003155  0.002698  0.014068)
 81:   3064.84   0.003004   15.18  0.000306  (-0.005070 -0.008278  0.014547)
 82:   3067.25   0.002840   14.35  0.000289  (-0.005603 -0.014005 -0.007839)
 83:   3077.55   0.005817   29.40  0.000590  (-0.005960  0.023437 -0.002250)
 84:   3088.79   0.002064   10.43  0.000209  (-0.002371 -0.005072  0.013312)
 85:   3089.58   0.000645    3.26  0.000065  ( 0.003597 -0.000886 -0.007168)
 86:   3112.20   0.007756   39.20  0.000778  ( 0.008340  0.026466 -0.002773)
 87:   3149.16   0.002159   10.91  0.000214  ( 0.011146  0.004890  0.008110)
 88:   3173.39   0.000254    1.28  0.000025  (-0.004622 -0.000845 -0.001698)
 89:   3182.01   0.001418    7.16  0.000139  (-0.001922 -0.007662  0.008754)
 90:   3186.27   0.001167    5.90  0.000114  ( 0.004568 -0.002977 -0.009197)
 91:   3217.00   0.000576    2.91  0.000056  ( 0.002658  0.003306 -0.006157)
 92:   3525.35   0.000112    0.56  0.000010  ( 0.002993  0.000882  0.000386)
 93:   3608.84   0.000886    4.48  0.000077  ( 0.002077 -0.005275  0.006669)
 94:   3609.36   0.020931  105.78  0.001810  ( 0.006026  0.036896 -0.020300)
 95:   3645.27   0.009508   48.05  0.000814  ( 0.015727  0.005679 -0.023117)

* The epsilon (eps) is given for a Dirac delta lineshape.
** The dipole moment derivative (T) already includes vibrational overlap.

The first frequency considered to be a vibration is 8
The total number of vibrations considered is 88


--------------------------
THERMOCHEMISTRY AT 298.15K
--------------------------

Temperature         ... 298.15 K
Pressure            ... 1.00 atm
Total Mass          ... 200.26 AMU

Throughout the following assumptions are being made:
  (1) The electronic state is orbitally nondegenerate
      but the spin degeneracy is treated
  (2) There are no thermally accessible electronically excited states
  (3) Hindered rotations indicated by low frequency modes are not
      treated as such but are treated as vibrations and this may
      cause some error
  (4) All equations used are the standard statistical mechanics
      equations for an ideal gas
  (5) All vibrations are strictly harmonic

freq.      42.35  E(vib)   ...       0.53 
freq.      49.66  E(vib)   ...       0.52 
freq.      64.99  E(vib)   ...       0.50 
freq.      82.53  E(vib)   ...       0.48 
freq.      95.11  E(vib)   ...       0.47 
freq.     110.93  E(vib)   ...       0.45 
freq.     115.63  E(vib)   ...       0.44 
freq.     122.74  E(vib)   ...       0.43 
freq.     147.15  E(vib)   ...       0.41 
freq.     163.89  E(vib)   ...       0.39 
freq.     211.00  E(vib)   ...       0.34 
freq.     225.48  E(vib)   ...       0.33 
freq.     271.59  E(vib)   ...       0.29 
freq.     290.30  E(vib)   ...       0.27 
freq.     301.59  E(vib)   ...       0.26 
freq.     352.73  E(vib)   ...       0.22 
freq.     374.89  E(vib)   ...       0.21 
freq.     435.08  E(vib)   ...       0.17 
freq.     481.52  E(vib)   ...       0.15 
freq.     483.72  E(vib)   ...       0.15 
freq.     524.57  E(vib)   ...       0.13 
freq.     549.30  E(vib)   ...       0.12 
freq.     586.23  E(vib)   ...       0.11 
freq.     628.03  E(vib)   ...       0.09 
freq.     664.58  E(vib)   ...       0.08 
freq.     724.21  E(vib)   ...       0.06 
freq.     734.50  E(vib)   ...       0.06 
freq.     808.63  E(vib)   ...       0.05 
freq.     837.75  E(vib)   ...       0.04 
freq.     876.92  E(vib)   ...       0.04 
freq.     897.20  E(vib)   ...       0.03 
freq.     945.43  E(vib)   ...       0.03 
freq.     992.06  E(vib)   ...       0.02 
freq.    1018.21  E(vib)   ...       0.02 
freq.    1027.20  E(vib)   ...       0.02 
freq.    1062.76  E(vib)   ...       0.02 
freq.    1063.08  E(vib)   ...       0.02 
freq.    1067.13  E(vib)   ...       0.02 
freq.    1090.27  E(vib)   ...       0.02 
freq.    1111.35  E(vib)   ...       0.01 
freq.    1136.59  E(vib)   ...       0.01 
freq.    1157.51  E(vib)   ...       0.01 
freq.    1164.85  E(vib)   ...       0.01 
freq.    1188.45  E(vib)   ...       0.01 
freq.    1204.61  E(vib)   ...       0.01 
freq.    1231.60  E(vib)   ...       0.01 
freq.    1246.76  E(vib)   ...       0.01 
freq.    1273.40  E(vib)   ...       0.01 
freq.    1284.42  E(vib)   ...       0.01 
freq.    1309.36  E(vib)   ...       0.01 
freq.    1331.41  E(vib)   ...       0.01 
freq.    1335.25  E(vib)   ...       0.01 
freq.    1359.26  E(vib)   ...       0.01 
freq.    1366.42  E(vib)   ...       0.01 
freq.    1400.93  E(vib)   ...       0.00 
freq.    1423.48  E(vib)   ...       0.00 
freq.    1435.54  E(vib)   ...       0.00 
freq.    1457.35  E(vib)   ...       0.00 
freq.    1475.64  E(vib)   ...       0.00 
freq.    1477.59  E(vib)   ...       0.00 
freq.    1483.04  E(vib)   ...       0.00 
freq.    1488.25  E(vib)   ...       0.00 
freq.    1492.62  E(vib)   ...       0.00 
freq.    1511.05  E(vib)   ...       0.00 
freq.    1521.53  E(vib)   ...       0.00 
freq.    1535.18  E(vib)   ...       0.00 
freq.    1575.93  E(vib)   ...       0.00 
freq.    1656.40  E(vib)   ...       0.00 
freq.    1776.11  E(vib)   ...       0.00 
freq.    1786.93  E(vib)   ...       0.00 
freq.    3002.59  E(vib)   ...       0.00 
freq.    3006.21  E(vib)   ...       0.00 
freq.    3052.90  E(vib)   ...       0.00 
freq.    3064.84  E(vib)   ...       0.00 
freq.    3067.25  E(vib)   ...       0.00 
freq.    3077.55  E(vib)   ...       0.00 
freq.    3088.79  E(vib)   ...       0.00 
freq.    3089.58  E(vib)   ...       0.00 
freq.    3112.20  E(vib)   ...       0.00 
freq.    3149.16  E(vib)   ...       0.00 
freq.    3173.39  E(vib)   ...       0.00 
freq.    3182.01  E(vib)   ...       0.00 
freq.    3186.27  E(vib)   ...       0.00 
freq.    3217.00  E(vib)   ...       0.00 
freq.    3525.35  E(vib)   ...       0.00 
freq.    3608.84  E(vib)   ...       0.00 
freq.    3609.36  E(vib)   ...       0.00 
freq.    3645.27  E(vib)   ...       0.00 

------------
INNER ENERGY
------------

The inner energy is: U= E(el) + E(ZPE) + E(vib) + E(rot) + E(trans)
    E(el)   - is the total energy from the electronic structure calculation
              = E(kin-el) + E(nuc-el) + E(el-el) + E(nuc-nuc)
    E(ZPE)  - the the zero temperature vibrational energy from the frequency calculation
    E(vib)  - the the finite temperature correction to E(ZPE) due to population
              of excited vibrational states
    E(rot)  - is the rotational thermal energy
    E(trans)- is the translational thermal energy

Summary of contributions to the inner energy U:
Electronic energy                ...   -668.44599582 Eh
Zero point energy                ...      0.27697568 Eh     173.80 kcal/mol
Thermal vibrational correction   ...      0.01305504 Eh       8.19 kcal/mol
Thermal rotational correction    ...      0.00141627 Eh       0.89 kcal/mol
Thermal translational correction ...      0.00141627 Eh       0.89 kcal/mol
-----------------------------------------------------------------------
Total thermal energy                   -668.15313255 Eh


Summary of corrections to the electronic energy:
(perhaps to be used in another calculation)
Total thermal correction                  0.01588758 Eh       9.97 kcal/mol
Non-thermal (ZPE) correction              0.27697568 Eh     173.80 kcal/mol
-----------------------------------------------------------------------
Total correction                          0.29286326 Eh     183.77 kcal/mol


--------
ENTHALPY
--------

The enthalpy is H = U + kB*T
                kB is Boltzmann's constant
Total free energy                 ...   -668.15313255 Eh 
Thermal Enthalpy correction       ...      0.00094421 Eh       0.59 kcal/mol
-----------------------------------------------------------------------
Total Enthalpy                    ...   -668.15218834 Eh


Note: Only C1 symmetry has been detected, increase convergence thresholds 
      if your molecule has a higher symmetry. Symmetry factor of 1.0 is   
      used for the rotational entropy correction. 
 

Note: Rotational entropy computed according to Herzberg 
Infrared and Raman Spectra, Chapter V,1, Van Nostrand Reinhold, 1945 
Point Group:  C1, Symmetry Number:   1  
Rotational constants in cm-1:     0.022879     0.013094     0.009299 

Vibrational entropy computed according to the QRRHO of S. Grimme
Chem.Eur.J. 2012 18 9955


-------
ENTROPY
-------

The entropy contributions are T*S = T*(S(el)+S(vib)+S(rot)+S(trans))
     S(el)   - electronic entropy
     S(vib)  - vibrational entropy
     S(rot)  - rotational entropy
     S(trans)- translational entropy
The entropies will be listed as multiplied by the temperature to get
units of energy

Electronic entropy                ...      0.00065446 Eh      0.41 kcal/mol
Vibrational entropy               ...      0.02344628 Eh     14.71 kcal/mol
Rotational entropy                ...      0.01554932 Eh      9.76 kcal/mol
Translational entropy             ...      0.01985478 Eh     12.46 kcal/mol
-----------------------------------------------------------------------
Final entropy term                ...      0.05950483 Eh     37.34 kcal/mol

In case the symmetry of your molecule has not been determined correctly
or in case you have a reason to use a different symmetry number we print 
out the resulting rotational entropy values for sn=1,12 :
 --------------------------------------------------------
|  sn= 1 | S(rot)=       0.01554932 Eh      9.76 kcal/mol|
|  sn= 2 | S(rot)=       0.01489486 Eh      9.35 kcal/mol|
|  sn= 3 | S(rot)=       0.01451203 Eh      9.11 kcal/mol|
|  sn= 4 | S(rot)=       0.01424041 Eh      8.94 kcal/mol|
|  sn= 5 | S(rot)=       0.01402972 Eh      8.80 kcal/mol|
|  sn= 6 | S(rot)=       0.01385757 Eh      8.70 kcal/mol|
|  sn= 7 | S(rot)=       0.01371203 Eh      8.60 kcal/mol|
|  sn= 8 | S(rot)=       0.01358595 Eh      8.53 kcal/mol|
|  sn= 9 | S(rot)=       0.01347474 Eh      8.46 kcal/mol|
|  sn=10 | S(rot)=       0.01337526 Eh      8.39 kcal/mol|
|  sn=11 | S(rot)=       0.01328527 Eh      8.34 kcal/mol|
|  sn=12 | S(rot)=       0.01320312 Eh      8.29 kcal/mol|
 --------------------------------------------------------


-------------------
GIBBS FREE ENERGY
-------------------

The Gibbs free energy is G = H - T*S

Total enthalpy                    ...   -668.15218834 Eh 
Total entropy correction          ...     -0.05950483 Eh    -37.34 kcal/mol
-----------------------------------------------------------------------
Final Gibbs free energy         ...   -668.21169318 Eh

For completeness - the Gibbs free energy minus the electronic energy
G-E(el)                           ...      0.23430264 Eh    147.03 kcal/mol


Timings for individual modules:

Sum of individual times         ...     1894.668 sec (=  31.578 min)
GTO integral calculation        ...       56.597 sec (=   0.943 min)   3.0 %
SCF iterations                  ...      833.402 sec (=  13.890 min)  44.0 %
SCF Gradient evaluation         ...      248.446 sec (=   4.141 min)  13.1 %
Geometry relaxation             ...        0.905 sec (=   0.015 min)   0.0 %
Analytical frequency calculation...      755.318 sec (=  12.589 min)  39.9 %
                             ****ORCA TERMINATED NORMALLY****
TOTAL RUN TIME: 0 days 0 hours 32 minutes 23 seconds 190 msec
