32
Energy: -6.681524637158432E+02
 N        -2.011926983972      0.725493490480      0.734725674179
 C        -1.593428854097     -0.089766595148     -0.391427793515
 C        -1.836341732527     -1.563211444426      0.035615346016
 O        -2.469365498608     -1.845813768075      1.035358938879
 C        -0.168205333562      0.164020160538     -0.817617138720
 C         0.938986279664      0.133356569690      0.192209927844
 C         2.329929030223     -0.055525889385     -0.437978910516
 C         3.453212567621     -0.020762798350      0.605637090998
 N         4.751017537087     -0.244310046627     -0.033113036139
 H         0.749114236395     -0.659974712286      0.933494314953
 H         0.930033452594      1.080785385782      0.763734827300
 H         2.499078045830      0.740368780903     -1.179831066727
 H         2.380023472604     -1.010655140782     -0.977941525579
 H         3.294006095115     -0.828755212078      1.333185652728
 H         3.393972357845      0.931894848081      1.163109265862
 H         5.497036782873     -0.272630721693      0.654030842352
 H         4.966629088588      0.508939245726     -0.679525018586
 H        -2.422474543764      0.216047343369      1.507260029241
 C        -2.093317685765      2.075215036305      0.636364837845
 N        -1.330640813758     -2.485573439573     -0.807212748324
 H        -0.716711088032     -2.159713970745     -1.539438231806
 O        -1.735678801730      2.675943082387     -0.359459865208
 C        -2.648809696114      2.798827217959      1.856430837380
 H        -3.543825161767      3.352046685003      1.549846278885
 H        -2.900279607929      2.125066886491      2.681911926791
 H        -1.903942327910      3.528814506418      2.192387893689
 C        -1.486531197302     -3.907801640434     -0.574910877406
 H        -2.501903102474     -4.104908778445     -0.216864172861
 H        -1.322714009337     -4.443281413048     -1.515092399426
 H        -0.778304339158     -4.276488764939      0.179505379052
 H        -2.257103703141      0.107689433332     -1.246715727746
 H        -0.001596465491      0.668406663571     -1.767570551436
