
                                 *****************
                                 * O   R   C   A *
                                 *****************

                                            #,                                       
                                            ###                                      
                                            ####                                     
                                            #####                                    
                                            ######                                   
                                           ########,                                 
                                     ,,################,,,,,                         
                               ,,#################################,,                 
                          ,,##########################################,,             
                       ,#########################################, ''#####,          
                    ,#############################################,,   '####,        
                  ,##################################################,,,,####,       
                ,###########''''           ''''###############################       
              ,#####''   ,,,,##########,,,,          '''####'''          '####       
            ,##' ,,,,###########################,,,                        '##       
           ' ,,###''''                  '''############,,,                           
         ,,##''                                '''############,,,,        ,,,,,,###''
      ,#''                                            '''#######################'''  
     '                                                          ''''####''''         
             ,#######,   #######,   ,#######,      ##                                
            ,#'     '#,  ##    ##  ,#'     '#,    #''#        ######   ,####,        
            ##       ##  ##   ,#'  ##            #'  '#       #        #'  '#        
            ##       ##  #######   ##           ,######,      #####,   #    #        
            '#,     ,#'  ##    ##  '#,     ,#' ,#      #,         ##   #,  ,#        
             '#######'   ##     ##  '#######'  #'      '#     #####' # '####'        



                  #######################################################
                  #                        -***-                        #
                  #          Department of theory and spectroscopy      #
                  #    Directorship and core code : Frank Neese         #
                  #        Max Planck Institute fuer Kohlenforschung    #
                  #                Kaiser Wilhelm Platz 1               #
                  #                 D-45470 Muelheim/Ruhr               #
                  #                      Germany                        #
                  #                                                     #
                  #                  All rights reserved                #
                  #                        -***-                        #
                  #######################################################


                         Program Version 5.0.4 -  RELEASE  -


 With contributions from (in alphabetic order):
   Daniel Aravena         : Magnetic Suceptibility
   Michael Atanasov       : Ab Initio Ligand Field Theory (pilot matlab implementation)
   Alexander A. Auer      : GIAO ZORA, VPT2 properties, NMR spectrum
   Ute Becker             : Parallelization
   Giovanni Bistoni       : ED, misc. LED, open-shell LED, HFLD
   Martin Brehm           : Molecular dynamics
   Dmytro Bykov           : SCF Hessian
   Vijay G. Chilkuri      : MRCI spin determinant printing, contributions to CSF-ICE
   Dipayan Datta          : RHF DLPNO-CCSD density
   Achintya Kumar Dutta   : EOM-CC, STEOM-CC
   Dmitry Ganyushin       : Spin-Orbit,Spin-Spin,Magnetic field MRCI
   Miquel Garcia          : C-PCM and meta-GGA Hessian, CC/C-PCM, Gaussian charge scheme
   Yang Guo               : DLPNO-NEVPT2, F12-NEVPT2, CIM, IAO-localization
   Andreas Hansen         : Spin unrestricted coupled pair/coupled cluster methods
   Benjamin Helmich-Paris : MC-RPA, TRAH-SCF, COSX integrals
   Lee Huntington         : MR-EOM, pCC
   Robert Izsak           : Overlap fitted RIJCOSX, COSX-SCS-MP3, EOM
   Marcus Kettner         : VPT2
   Christian Kollmar      : KDIIS, OOCD, Brueckner-CCSD(T), CCSD density, CASPT2, CASPT2-K
   Simone Kossmann        : Meta GGA functionals, TD-DFT gradient, OOMP2, MP2 Hessian
   Martin Krupicka        : Initial AUTO-CI
   Lucas Lang             : DCDCAS
   Marvin Lechner         : AUTO-CI (C++ implementation), FIC-MRCC
   Dagmar Lenk            : GEPOL surface, SMD
   Dimitrios Liakos       : Extrapolation schemes; Compound Job, initial MDCI parallelization
   Dimitrios Manganas     : Further ROCIS development; embedding schemes
   Dimitrios Pantazis     : SARC Basis sets
   Anastasios Papadopoulos: AUTO-CI, single reference methods and gradients
   Taras Petrenko         : DFT Hessian,TD-DFT gradient, ASA, ECA, R-Raman, ABS, FL, XAS/XES, NRVS
   Peter Pinski           : DLPNO-MP2, DLPNO-MP2 Gradient
   Christoph Reimann      : Effective Core Potentials
   Marius Retegan         : Local ZFS, SOC
   Christoph Riplinger    : Optimizer, TS searches, QM/MM, DLPNO-CCSD(T), (RO)-DLPNO pert. Triples
   Tobias Risthaus        : Range-separated hybrids, TD-DFT gradient, RPA, STAB
   Michael Roemelt        : Original ROCIS implementation
   Masaaki Saitow         : Open-shell DLPNO-CCSD energy and density
   Barbara Sandhoefer     : DKH picture change effects
   Avijit Sen             : IP-ROCIS
   Kantharuban Sivalingam : CASSCF convergence, NEVPT2, FIC-MRCI
   Bernardo de Souza      : ESD, SOC TD-DFT
   Georgi Stoychev        : AutoAux, RI-MP2 NMR, DLPNO-MP2 response
   Willem Van den Heuvel  : Paramagnetic NMR
   Boris Wezisla          : Elementary symmetry handling
   Frank Wennmohs         : Technical directorship


 We gratefully acknowledge several colleagues who have allowed us to
 interface, adapt or use parts of their codes:
   Stefan Grimme, W. Hujo, H. Kruse, P. Pracht,  : VdW corrections, initial TS optimization,
                  C. Bannwarth, S. Ehlert          DFT functionals, gCP, sTDA/sTD-DF
   Ed Valeev, F. Pavosevic, A. Kumar             : LibInt (2-el integral package), F12 methods
   Garnet Chan, S. Sharma, J. Yang, R. Olivares  : DMRG
   Ulf Ekstrom                                   : XCFun DFT Library
   Mihaly Kallay                                 : mrcc  (arbitrary order and MRCC methods)
   Jiri Pittner, Ondrej Demel                    : Mk-CCSD
   Frank Weinhold                                : gennbo (NPA and NBO analysis)
   Christopher J. Cramer and Donald G. Truhlar   : smd solvation model
   Lars Goerigk                                  : TD-DFT with DH, B97 family of functionals
   V. Asgeirsson, H. Jonsson                     : NEB implementation
   FAccTs GmbH                                   : IRC, NEB, NEB-TS, DLPNO-Multilevel, CI-OPT
                                                   MM, QMMM, 2- and 3-layer-ONIOM, Crystal-QMMM,
                                                   LR-CPCM, SF, NACMEs, symmetry and pop. for TD-DFT,
                                                   nearIR, NL-DFT gradient (VV10), updates on ESD,
                                                   ML-optimized integration grids
   S Lehtola, MJT Oliveira, MAL Marques          : LibXC Library
   Liviu Ungur et al                             : ANISO software


 Your calculation uses the libint2 library for the computation of 2-el integrals
 For citations please refer to: http://libint.valeyev.net

 Your ORCA version has been built with support for libXC version: 5.1.0
 For citations please refer to: https://tddft.org/programs/libxc/

 This ORCA versions uses:
   CBLAS   interface :  Fast vector & matrix operations
   LAPACKE interface :  Fast linear algebra routines
   SCALAPACK package :  Parallel linear algebra routines
   Shared memory     :  Shared parallel matrices
   BLAS/LAPACK       :  OpenBLAS 0.3.15  USE64BITINT DYNAMIC_ARCH NO_AFFINITY Zen SINGLE_THREADED
        Core in use  :  Zen
   Copyright (c) 2011-2014, The OpenBLAS Project




***************************************
The coordinates will be read from file: model.xyz
***************************************


================================================================================

----- Orbital basis set information -----
Your calculation utilizes the basis: EPR-II
   V. Barone, in Recent Advances in Density Functional Methods, Part 1 (ed. D. P. Chong), World Scientific, Singapore, 1995, p. 287.

----- AuxJ basis set information -----
Your calculation utilizes the auxiliary basis: def2/J
   F. Weigend, Phys. Chem. Chem. Phys. 8, 1057 (2006).

================================================================================
                                        WARNINGS
                       Please study these warnings very carefully!
================================================================================


WARNING: your system is open-shell and RHF/RKS was chosen
  ===> : WILL SWITCH to UHF/UKS


WARNING: Geometry Optimization
  ===> : Switching off AutoStart
         For restart on a previous wavefunction, please use MOREAD

INFO   : the flag for use of the SHARK integral package has been found!

================================================================================
                                       INPUT FILE
================================================================================
NAME = opt.inp
|  1> ! B3LYP EPR-II OPT
|  2> %pal nprocs 16 end
|  3> *XYZFile 0 2 model.xyz
|  4> 
|  5>                          ****END OF INPUT****
================================================================================

                       *****************************
                       * Geometry Optimization Run *
                       *****************************

Geometry optimization settings:
Update method            Update   .... BFGS
Choice of coordinates    CoordSys .... Z-matrix Internals
Initial Hessian          InHess   .... Almoef's Model

Convergence Tolerances:
Energy Change            TolE     ....  5.0000e-06 Eh
Max. Gradient            TolMAXG  ....  3.0000e-04 Eh/bohr
RMS Gradient             TolRMSG  ....  1.0000e-04 Eh/bohr
Max. Displacement        TolMAXD  ....  4.0000e-03 bohr
RMS Displacement         TolRMSD  ....  2.0000e-03 bohr
Strict Convergence                ....  False
------------------------------------------------------------------------------
                        ORCA OPTIMIZATION COORDINATE SETUP
------------------------------------------------------------------------------

The optimization will be done in new redundant internal coordinates
Making redundant internal coordinates   ...  (new redundants) done
Evaluating the initial hessian          ...  (Almloef) done
Evaluating the coordinates              ...  done
Calculating the B-matrix                .... done
Calculating the G-matrix                .... done
Diagonalizing the G-matrix              .... done
Small eigenvalue found = 5.032e-03
Small eigenvalue found = 6.811e-03
Small eigenvalue found = 9.730e-03
Small eigenvalue found = 2.572e-02
Small eigenvalue found = 2.961e-02
The first mode is                       ....   63
The number of degrees of freedom        ....   90

    -----------------------------------------------------------------
                    Redundant Internal Coordinates


    -----------------------------------------------------------------
         Definition                    Initial Value    Approx d2E/dq
    -----------------------------------------------------------------
      1. B(C   1,N   0)                  1.4519         0.445779   
      2. B(C   2,C   1)                  1.5532         0.343062   
      3. B(O   3,C   2)                  1.2166         1.058166   
      4. B(C   4,C   1)                  1.5091         0.403424   
      5. B(C   5,C   4)                  1.4989         0.418860   
      6. B(C   6,C   5)                  1.5387         0.361850   
      7. B(C   7,C   6)                  1.5337         0.368587   
      8. B(N   8,C   7)                  1.4637         0.426944   
      9. B(H   9,C   5)                  1.1022         0.344269   
     10. B(H  10,C   5)                  1.1065         0.338921   
     11. B(H  11,C   6)                  1.1011         0.345721   
     12. B(H  12,C   6)                  1.0983         0.349240   
     13. B(H  13,C   7)                  1.0989         0.348549   
     14. B(H  14,C   7)                  1.1054         0.340332   
     15. B(H  15,N   8)                  1.0146         0.425380   
     16. B(H  16,N   8)                  1.0157         0.423684   
     17. B(H  17,N   0)                  1.0124         0.428956   
     18. B(C  18,N   0)                  1.3557         0.634637   
     19. B(N  19,C   2)                  1.3479         0.653187   
     20. B(H  20,N  19)                  1.0096         0.433379   
     21. B(O  21,C  18)                  1.2167         1.057565   
     22. B(C  22,C  18)                  1.5234         0.382743   
     23. B(H  23,C  22)                  1.0959         0.352319   
     24. B(H  24,C  22)                  1.0948         0.353793   
     25. B(H  25,C  22)                  1.0957         0.352628   
     26. B(C  26,N  19)                  1.4495         0.449754   
     27. B(H  27,C  26)                  1.0945         0.354137   
     28. B(H  28,C  26)                  1.0943         0.354442   
     29. B(H  29,C  26)                  1.0985         0.349054   
     30. B(H  30,C   1)                  1.1004         0.346549   
     31. B(H  31,C   4)                  1.0884         0.362247   
     32. A(H  17,N   0,C  18)          122.1409         0.359563   
     33. A(C   1,N   0,H  17)          115.2275         0.338774   
     34. A(C   1,N   0,C  18)          121.3355         0.405658   
     35. A(C   2,C   1,C   4)          112.6371         0.362834   
     36. A(C   4,C   1,H  30)          108.6575         0.326379   
     37. A(N   0,C   1,C   2)          105.9229         0.366788   
     38. A(C   2,C   1,H  30)          106.8335         0.317829   
     39. A(N   0,C   1,C   4)          113.3813         0.377167   
     40. A(N   0,C   1,H  30)          109.1628         0.329806   
     41. A(O   3,C   2,N  19)          123.3738         0.476613   
     42. A(C   1,C   2,O   3)          121.8490         0.426822   
     43. A(C   1,C   2,N  19)          114.7439         0.391877   
     44. A(C   1,C   4,C   5)          120.2605         0.375491   
     45. A(C   5,C   4,H  31)          118.9761         0.330818   
     46. A(C   1,C   4,H  31)          117.9699         0.328771   
     47. A(H   9,C   5,H  10)          105.5162         0.286074   
     48. A(C   6,C   5,H  10)          108.9032         0.319443   
     49. A(C   4,C   5,C   6)          113.2248         0.368524   
     50. A(C   4,C   5,H  10)          108.9353         0.327202   
     51. A(C   6,C   5,H   9)          110.0482         0.320261   
     52. A(C   4,C   5,H   9)          109.9122         0.328048   
     53. A(C   7,C   6,H  11)          109.2425         0.321450   
     54. A(C   5,C   6,H  11)          109.0310         0.320482   
     55. A(C   5,C   6,C   7)          112.3719         0.360551   
     56. A(H  11,C   6,H  12)          106.8787         0.287605   
     57. A(C   7,C   6,H  12)          108.7138         0.321984   
     58. A(C   5,C   6,H  12)          110.4464         0.321013   
     59. A(H  13,C   7,H  14)          106.9797         0.286811   
     60. A(N   8,C   7,H  14)          113.5311         0.326489   
     61. A(C   6,C   7,H  14)          108.8727         0.320625   
     62. A(N   8,C   7,H  13)          107.7643         0.327775   
     63. A(C   6,C   7,H  13)          109.1324         0.321879   
     64. A(C   6,C   7,N   8)          110.4264         0.368591   
     65. A(H  15,N   8,H  16)          107.1941         0.301415   
     66. A(C   7,N   8,H  16)          110.6516         0.335654   
     67. A(C   7,N   8,H  15)          111.1404         0.335877   
     68. A(O  21,C  18,C  22)          121.8797         0.435251   
     69. A(N   0,C  18,C  22)          115.8918         0.397456   
     70. A(N   0,C  18,O  21)          122.2260         0.474044   
     71. A(H  20,N  19,C  26)          119.8900         0.339858   
     72. A(C   2,N  19,C  26)          122.0639         0.408371   
     73. A(C   2,N  19,H  20)          117.4379         0.361966   
     74. A(H  24,C  22,H  25)          109.5704         0.289082   
     75. A(H  23,C  22,H  25)          107.7365         0.288893   
     76. A(C  18,C  22,H  25)          108.3084         0.324493   
     77. A(H  23,C  22,H  24)          109.5116         0.289042   
     78. A(C  18,C  22,H  24)          113.2845         0.324669   
     79. A(C  18,C  22,H  23)          108.2713         0.324447   
     80. A(H  28,C  26,H  29)          109.2263         0.288704   
     81. A(H  27,C  26,H  29)          108.2399         0.288665   
     82. A(N  19,C  26,H  29)          111.7187         0.330684   
     83. A(H  27,C  26,H  28)          109.3779         0.289359   
     84. A(N  19,C  26,H  28)          109.0466         0.331524   
     85. A(N  19,C  26,H  27)          109.2015         0.331476   
     86. D(C   2,C   1,N   0,C  18)   -171.4918         0.016949   
     87. D(C   4,C   1,N   0,H  17)   -128.2445         0.016949   
     88. D(C   4,C   1,N   0,C  18)     64.4936         0.016949   
     89. D(H  30,C   1,N   0,H  17)    110.4754         0.016949   
     90. D(C   2,C   1,N   0,H  17)     -4.2300         0.016949   
     91. D(H  30,C   1,N   0,C  18)    -56.7864         0.016949   
     92. D(O   3,C   2,C   1,C   4)    135.5285         0.008927   
     93. D(O   3,C   2,C   1,H  30)   -105.2424         0.008927   
     94. D(N  19,C   2,C   1,H  30)     72.7243         0.008927   
     95. D(N  19,C   2,C   1,C   4)    -46.5047         0.008927   
     96. D(O   3,C   2,C   1,N   0)     11.0497         0.008927   
     97. D(N  19,C   2,C   1,N   0)   -170.9835         0.008927   
     98. D(C   5,C   4,C   1,H  30)    172.6364         0.012069   
     99. D(C   5,C   4,C   1,N   0)     51.0729         0.012069   
    100. D(C   5,C   4,C   1,C   2)    -69.2010         0.012069   
    101. D(H  31,C   4,C   1,H  30)     11.7512         0.012069   
    102. D(H  31,C   4,C   1,C   2)    129.9139         0.012069   
    103. D(H  31,C   4,C   1,N   0)   -109.8123         0.012069   
    104. D(H  10,C   5,C   4,H  31)     82.9231         0.012975   
    105. D(H  10,C   5,C   4,C   1)    -77.7720         0.012975   
    106. D(H   9,C   5,C   4,H  31)   -161.9219         0.012975   
    107. D(C   6,C   5,C   4,H  31)    -38.4038         0.012975   
    108. D(C   6,C   5,C   4,C   1)    160.9012         0.012975   
    109. D(H   9,C   5,C   4,C   1)     37.3830         0.012975   
    110. D(H  11,C   6,C   5,H  10)    -65.1882         0.010497   
    111. D(H  11,C   6,C   5,H   9)    179.6002         0.010497   
    112. D(H  11,C   6,C   5,C   4)     56.1568         0.010497   
    113. D(H  12,C   6,C   5,C   4)    -60.9971         0.010497   
    114. D(C   7,C   6,C   5,H  10)     56.0750         0.010497   
    115. D(C   7,C   6,C   5,H   9)    -59.1367         0.010497   
    116. D(C   7,C   6,C   5,C   4)    177.4199         0.010497   
    117. D(H  12,C   6,C   5,H  10)    177.6579         0.010497   
    118. D(H  12,C   6,C   5,H   9)     62.4463         0.010497   
    119. D(H  14,C   7,C   6,H  12)   -178.9909         0.010866   
    120. D(H  14,C   7,C   6,H  11)     64.7175         0.010866   
    121. D(H  14,C   7,C   6,C   5)    -56.4244         0.010866   
    122. D(H  13,C   7,C   6,H  12)    -62.5510         0.010866   
    123. D(H  13,C   7,C   6,H  11)   -178.8426         0.010866   
    124. D(H  13,C   7,C   6,C   5)     60.0155         0.010866   
    125. D(N   8,C   7,C   6,H  12)     55.7307         0.010866   
    126. D(N   8,C   7,C   6,H  11)    -60.5609         0.010866   
    127. D(N   8,C   7,C   6,C   5)    178.2971         0.010866   
    128. D(H  16,N   8,C   7,H  14)    -58.5519         0.015541   
    129. D(H  16,N   8,C   7,H  13)   -176.8447         0.015541   
    130. D(H  16,N   8,C   7,C   6)     64.0400         0.015541   
    131. D(H  15,N   8,C   7,H  14)     60.4242         0.015541   
    132. D(H  15,N   8,C   7,H  13)    -57.8686         0.015541   
    133. D(H  15,N   8,C   7,C   6)   -176.9839         0.015541   
    134. D(C  22,C  18,N   0,H  17)      9.0306         0.032736   
    135. D(C  22,C  18,N   0,C   1)    175.4055         0.032736   
    136. D(O  21,C  18,N   0,H  17)   -171.5355         0.032736   
    137. D(O  21,C  18,N   0,C   1)     -5.1606         0.032736   
    138. D(C  26,N  19,C   2,O   3)     -0.9441         0.034849   
    139. D(C  26,N  19,C   2,C   1)   -178.8760         0.034849   
    140. D(H  20,N  19,C   2,O   3)   -171.9860         0.034849   
    141. D(H  20,N  19,C   2,C   1)     10.0821         0.034849   
    142. D(H  25,C  22,C  18,O  21)    -56.6064         0.010922   
    143. D(H  25,C  22,C  18,N   0)    122.8297         0.010922   
    144. D(H  24,C  22,C  18,O  21)   -178.3760         0.010922   
    145. D(H  24,C  22,C  18,N   0)      1.0601         0.010922   
    146. D(H  23,C  22,C  18,O  21)     59.9556         0.010922   
    147. D(H  23,C  22,C  18,N   0)   -120.6083         0.010922   
    148. D(H  27,C  26,N  19,C   2)     41.0057         0.017256   
    149. D(H  29,C  26,N  19,H  20)     92.1321         0.017256   
    150. D(H  29,C  26,N  19,C   2)    -78.6959         0.017256   
    151. D(H  28,C  26,N  19,H  20)    -28.6990         0.017256   
    152. D(H  28,C  26,N  19,C   2)    160.4730         0.017256   
    153. D(H  27,C  26,N  19,H  20)   -148.1663         0.017256   
    -----------------------------------------------------------------

Number of atoms                         .... 32
Number of degrees of freedom            .... 153

         *************************************************************
         *                GEOMETRY OPTIMIZATION CYCLE   1            *
         *************************************************************
---------------------------------
CARTESIAN COORDINATES (ANGSTROEM)
---------------------------------
  N     -2.011927    0.725493    0.734726
  C     -1.593429   -0.089767   -0.391428
  C     -1.836342   -1.563211    0.035615
  O     -2.469365   -1.845814    1.035359
  C     -0.168205    0.164020   -0.817617
  C      0.938986    0.133357    0.192210
  C      2.329929   -0.055526   -0.437979
  C      3.453213   -0.020763    0.605637
  N      4.751018   -0.244310   -0.033113
  H      0.749114   -0.659975    0.933494
  H      0.930033    1.080785    0.763735
  H      2.499078    0.740369   -1.179831
  H      2.380023   -1.010655   -0.977942
  H      3.294006   -0.828755    1.333186
  H      3.393972    0.931895    1.163109
  H      5.497037   -0.272631    0.654031
  H      4.966629    0.508939   -0.679525
  H     -2.422475    0.216047    1.507260
  C     -2.093318    2.075215    0.636365
  N     -1.330641   -2.485573   -0.807213
  H     -0.716711   -2.159714   -1.539438
  O     -1.735679    2.675943   -0.359460
  C     -2.648810    2.798827    1.856431
  H     -3.543825    3.352047    1.549846
  H     -2.900280    2.125067    2.681912
  H     -1.903942    3.528815    2.192388
  C     -1.486531   -3.907802   -0.574911
  H     -2.501903   -4.104909   -0.216864
  H     -1.322714   -4.443281   -1.515092
  H     -0.778304   -4.276489    0.179505
  H     -2.257104    0.107689   -1.246716
  H     -0.001596    0.668407   -1.767571

----------------------------
CARTESIAN COORDINATES (A.U.)
----------------------------
  NO LB      ZA    FRAG     MASS         X           Y           Z
   0 N     7.0000    0    14.007   -3.801991    1.370984    1.388430
   1 C     6.0000    0    12.011   -3.011144   -0.169634   -0.739691
   2 C     6.0000    0    12.011   -3.470183   -2.954042    0.067303
   3 O     8.0000    0    15.999   -4.666425   -3.488083    1.956545
   4 C     6.0000    0    12.011   -0.317862    0.309953   -1.545072
   5 C     6.0000    0    12.011    1.774427    0.252007    0.363224
   6 C     6.0000    0    12.011    4.402928   -0.104929   -0.827660
   7 C     6.0000    0    12.011    6.525626   -0.039236    1.144488
   8 N     7.0000    0    14.007    8.978122   -0.461679   -0.062575
   9 H     1.0000    0     1.008    1.415621   -1.247171    1.764049
  10 H     1.0000    0     1.008    1.757509    2.042388    1.443250
  11 H     1.0000    0     1.008    4.722573    1.399094   -2.229558
  12 H     1.0000    0     1.008    4.497593   -1.909861   -1.848042
  13 H     1.0000    0     1.008    6.224769   -1.566120    2.519356
  14 H     1.0000    0     1.008    6.413678    1.761026    2.197958
  15 H     1.0000    0     1.008   10.387894   -0.515197    1.235939
  16 H     1.0000    0     1.008    9.385569    0.961756   -1.284116
  17 H     1.0000    0     1.008   -4.577813    0.408270    2.848309
  18 C     6.0000    0    12.011   -3.955797    3.921588    1.202555
  19 N     7.0000    0    14.007   -2.514547   -4.697053   -1.525411
  20 H     1.0000    0     1.008   -1.354388   -4.081268   -2.909117
  21 O     8.0000    0    15.999   -3.279958    5.056800   -0.679281
  22 C     6.0000    0    12.011   -5.005525    5.289017    3.508146
  23 H     1.0000    0     1.008   -6.696859    6.334450    2.928785
  24 H     1.0000    0     1.008   -5.480734    4.015794    5.068079
  25 H     1.0000    0     1.008   -3.597930    6.668493    4.143013
  26 C     6.0000    0    12.011   -2.809137   -7.384675   -1.086424
  27 H     1.0000    0     1.008   -4.727912   -7.757153   -0.409814
  28 H     1.0000    0     1.008   -2.499567   -8.396585   -2.863110
  29 H     1.0000    0     1.008   -1.470782   -8.081393    0.339216
  30 H     1.0000    0     1.008   -4.265308    0.203504   -2.355951
  31 H     1.0000    0     1.008   -0.003017    1.263106   -3.340224

--------------------------------
INTERNAL COORDINATES (ANGSTROEM)
--------------------------------
 N      0   0   0     0.000000000000     0.00000000     0.00000000
 C      1   0   0     1.451899213006     0.00000000     0.00000000
 C      2   1   0     1.553194203373   105.92287218     0.00000000
 O      3   2   1     1.216581445373   121.84900695    11.04972446
 C      2   1   3     1.509074934791   113.38133603   235.98546111
 C      5   2   1     1.498854305317   120.26049709    51.07292697
 C      6   5   2     1.538680048182   113.22483809   160.90115631
 C      7   6   5     1.533658611459   112.37185463   177.41992726
 N      8   7   6     1.463650516995   110.42636912   178.29709431
 H      6   5   2     1.102237931823   109.91223288    37.38301894
 H      6   5   2     1.106499988871   108.93527630   282.22804541
 H      7   6   5     1.101092338248   109.03097895    56.15678753
 H      7   6   5     1.098335543310   110.44637378   299.00291282
 H      8   7   6     1.098874583929   109.13235366    60.01545613
 H      8   7   6     1.105369268392   108.87273448   303.57556760
 H      9   8   7     1.014649439692   111.14039974   183.01607524
 H      9   8   7     1.015736820550   110.65161442    64.03998163
 H      1   2   3     1.012370488215   115.22751460   355.77001987
 C      1   2   3     1.355746123626   121.33549105   188.50817956
 N      3   2   1     1.347903656032   114.74387182   189.01649649
 H     20   3   2     1.009578258589   117.43786208    10.08214377
 O     19   1   2     1.216736042013   122.22596387   354.83944036
 C     19   1   2     1.523399818242   115.89181050   175.40547974
 H     23  19   1     1.095946419303   108.27131010   239.39168125
 H     23  19   1     1.094810088455   113.28450517     1.06011044
 H     23  19   1     1.095707981723   108.30842315   122.82967991
 C     20   3   2     1.449482330433   122.06394021   181.12404844
 H     27  20   3     1.094545006979   109.20146286    41.00570497
 H     27  20   3     1.094310720179   109.04661314   160.47297675
 H     27  20   3     1.098480480655   111.71869274   281.30406991
 H      2   1   3     1.100441111045   109.16282112   114.70539173
 H      5   2   1     1.088382168952   117.96989162   250.18774541

---------------------------
INTERNAL COORDINATES (A.U.)
---------------------------
 N      0   0   0     0.000000000000     0.00000000     0.00000000
 C      1   0   0     2.743691886636     0.00000000     0.00000000
 C      2   1   0     2.935111677169   105.92287218     0.00000000
 O      3   2   1     2.299005751365   121.84900695    11.04972446
 C      2   1   3     2.851738342320   113.38133603   235.98546111
 C      5   2   1     2.832424151698   120.26049709    51.07292697
 C      6   5   2     2.907683898792   113.22483809   160.90115631
 C      7   6   5     2.898194758588   112.37185463   177.41992726
 N      8   7   6     2.765898632893   110.42636912   178.29709431
 H      6   5   2     2.082927825564   109.91223288    37.38301894
 H      6   5   2     2.090981946154   108.93527630   282.22804541
 H      7   6   5     2.080762967448   109.03097895    56.15678753
 H      7   6   5     2.075553380007   110.44637378   299.00291282
 H      8   7   6     2.076572019153   109.13235366    60.01545613
 H      8   7   6     2.088845194114   108.87273448   303.57556760
 H      9   8   7     1.917409562954   111.14039974   183.01607524
 H      9   8   7     1.919464414980   110.65161442    64.03998163
 H      1   2   3     1.913102968790   115.22751460   355.77001987
 C      1   2   3     2.561988880778   121.33549105   188.50817956
 N      3   2   1     2.547168764811   114.74387182   189.01649649
 H     20   3   2     1.907826419494   117.43786208    10.08214377
 O     19   1   2     2.299297896676   122.22596387   354.83944036
 C     19   1   2     2.878808448944   115.89181050   175.40547974
 H     23  19   1     2.071038589933   108.27131010   239.39168125
 H     23  19   1     2.068891235834   113.28450517     1.06011044
 H     23  19   1     2.070588008207   108.30842315   122.82967991
 C     20   3   2     2.739124640477   122.06394021   181.12404844
 H     27  20   3     2.068390304442   109.20146286    41.00570497
 H     27  20   3     2.067947566553   109.04661314   160.47297675
 H     27  20   3     2.075827271896   111.71869274   281.30406991
 H      2   1   3     2.079532326383   109.16282112   114.70539173
 H      5   2   1     2.056744228362   117.96989162   250.18774541

---------------------
BASIS SET INFORMATION
---------------------
There are 4 groups of distinct atoms

 Group   1 Type N   : 10s5p1d contracted to 6s2p1d pattern {511111/41/1}
 Group   2 Type C   : 10s5p1d contracted to 6s2p1d pattern {511111/41/1}
 Group   3 Type O   : 10s5p1d contracted to 6s2p1d pattern {511111/41/1}
 Group   4 Type H   : 6s1p contracted to 4s1p pattern {3111/1}

Atom   0N    basis set group =>   1
Atom   1C    basis set group =>   2
Atom   2C    basis set group =>   2
Atom   3O    basis set group =>   3
Atom   4C    basis set group =>   2
Atom   5C    basis set group =>   2
Atom   6C    basis set group =>   2
Atom   7C    basis set group =>   2
Atom   8N    basis set group =>   1
Atom   9H    basis set group =>   4
Atom  10H    basis set group =>   4
Atom  11H    basis set group =>   4
Atom  12H    basis set group =>   4
Atom  13H    basis set group =>   4
Atom  14H    basis set group =>   4
Atom  15H    basis set group =>   4
Atom  16H    basis set group =>   4
Atom  17H    basis set group =>   4
Atom  18C    basis set group =>   2
Atom  19N    basis set group =>   1
Atom  20H    basis set group =>   4
Atom  21O    basis set group =>   3
Atom  22C    basis set group =>   2
Atom  23H    basis set group =>   4
Atom  24H    basis set group =>   4
Atom  25H    basis set group =>   4
Atom  26C    basis set group =>   2
Atom  27H    basis set group =>   4
Atom  28H    basis set group =>   4
Atom  29H    basis set group =>   4
Atom  30H    basis set group =>   4
Atom  31H    basis set group =>   4
---------------------------------
AUXILIARY/J BASIS SET INFORMATION
---------------------------------
There are 4 groups of distinct atoms

 Group   1 Type N   : 12s5p4d2f1g contracted to 6s4p3d1f1g pattern {711111/2111/211/2/1}
 Group   2 Type C   : 12s5p4d2f1g contracted to 6s4p3d1f1g pattern {711111/2111/211/2/1}
 Group   3 Type O   : 12s5p4d2f1g contracted to 6s4p3d1f1g pattern {711111/2111/211/2/1}
 Group   4 Type H   : 5s2p1d contracted to 3s1p1d pattern {311/2/1}

Atom   0N    basis set group =>   1
Atom   1C    basis set group =>   2
Atom   2C    basis set group =>   2
Atom   3O    basis set group =>   3
Atom   4C    basis set group =>   2
Atom   5C    basis set group =>   2
Atom   6C    basis set group =>   2
Atom   7C    basis set group =>   2
Atom   8N    basis set group =>   1
Atom   9H    basis set group =>   4
Atom  10H    basis set group =>   4
Atom  11H    basis set group =>   4
Atom  12H    basis set group =>   4
Atom  13H    basis set group =>   4
Atom  14H    basis set group =>   4
Atom  15H    basis set group =>   4
Atom  16H    basis set group =>   4
Atom  17H    basis set group =>   4
Atom  18C    basis set group =>   2
Atom  19N    basis set group =>   1
Atom  20H    basis set group =>   4
Atom  21O    basis set group =>   3
Atom  22C    basis set group =>   2
Atom  23H    basis set group =>   4
Atom  24H    basis set group =>   4
Atom  25H    basis set group =>   4
Atom  26C    basis set group =>   2
Atom  27H    basis set group =>   4
Atom  28H    basis set group =>   4
Atom  29H    basis set group =>   4
Atom  30H    basis set group =>   4
Atom  31H    basis set group =>   4


           ************************************************************
           *        Program running with 16 parallel MPI-processes    *
           *              working on a common directory               *
           ************************************************************
------------------------------------------------------------------------------
                           ORCA GTO INTEGRAL CALCULATION
                           -- RI-GTO INTEGRALS CHOSEN --
------------------------------------------------------------------------------
------------------------------------------------------------------------------
                   ___                                                        
                  /   \      - P O W E R E D   B Y -                         
                 /     \                                                     
                 |  |  |   _    _      __       _____    __    __             
                 |  |  |  | |  | |    /  \     |  _  \  |  |  /  |          
                  \  \/   | |  | |   /    \    | | | |  |  | /  /          
                 / \  \   | |__| |  /  /\  \   | |_| |  |  |/  /          
                |  |  |   |  __  | /  /__\  \  |    /   |      \           
                |  |  |   | |  | | |   __   |  |    \   |  |\   \          
                \     /   | |  | | |  |  |  |  | |\  \  |  | \   \       
                 \___/    |_|  |_| |__|  |__|  |_| \__\ |__|  \__/        
                                                                              
                      - O R C A' S   B I G   F R I E N D -                    
                                      &                                       
                       - I N T E G R A L  F E E D E R -                       
                                                                              
 v1 FN, 2020, v2 2021                                                         
------------------------------------------------------------------------------


Reading SHARK input file opt.SHARKINP.tmp ... ok
----------------------
SHARK INTEGRAL PACKAGE
----------------------

Number of atoms                             ...     32
Number of basis functions                   ...    364
Number of shells                            ...    216
Maximum angular momentum                    ...      2
Integral batch strategy                     ... SHARK/LIBINT Hybrid
RI-J (if used) integral strategy            ... SPLIT-RIJ (Revised 2003 algorithm where possible)
Printlevel                                  ...      1
Contraction scheme used                     ... SEGMENTED contraction
Coulomb Range Separation                    ... NOT USED
Exchange Range Separation                   ... NOT USED
Finite Nucleus Model                        ... NOT USED
Auxiliary Coulomb fitting basis             ... AVAILABLE
   # of basis functions in Aux-J            ...    884
   # of shells in Aux-J                     ...    300
   Maximum angular momentum in Aux-J        ...      4
Auxiliary J/K fitting basis                 ... NOT available
Auxiliary Correlation fitting basis         ... NOT available
Auxiliary 'external' fitting basis          ... NOT available
Integral threshold                          ...     2.500000e-11
Primitive cut-off                           ...     2.500000e-12
Primitive pair pre-selection threshold      ...     2.500000e-12

Calculating pre-screening integrals         ... done (  0.0 sec) Dimension = 216
Organizing shell pair data                  ... done (  0.0 sec)
Shell pair information
Total number of shell pairs                 ...     23436
Shell pairs after pre-screening             ...     15358
Total number of primitive shell pairs       ...     61703
Primitive shell pairs kept                  ...     29386
          la=0 lb=0:   7197 shell pairs
          la=1 lb=0:   5245 shell pairs
          la=1 lb=1:    898 shell pairs
          la=2 lb=0:   1429 shell pairs
          la=2 lb=1:    508 shell pairs
          la=2 lb=2:     81 shell pairs

Calculating one electron integrals          ... done (  0.0 sec)
Calculating RI/J V-Matrix + Cholesky decomp.... done (  0.0 sec)
Calculating Nuclear repulsion               ... done (  0.0 sec) ENN=    921.716275518851 Eh

SHARK setup successfully completed in   0.2 seconds

Maximum memory used throughout the entire GTOINT-calculation: 22.2 MB


           ************************************************************
           *        Program running with 16 parallel MPI-processes    *
           *              working on a common directory               *
           ************************************************************
-------------------------------------------------------------------------------
                                 ORCA SCF
-------------------------------------------------------------------------------

------------
SCF SETTINGS
------------
Hamiltonian:
 Density Functional     Method          .... DFT(GTOs)
 Exchange Functional    Exchange        .... B88
   X-Alpha parameter    XAlpha          ....  0.666667
   Becke's b parameter  XBeta           ....  0.004200
 Correlation Functional Correlation     .... LYP
 LDA part of GGA corr.  LDAOpt          .... VWN-5
 Gradients option       PostSCFGGA      .... off
 Hybrid DFT is turned on
   Fraction HF Exchange ScalHFX         ....  0.200000
   Scaling of DF-GGA-X  ScalDFX         ....  0.720000
   Scaling of DF-GGA-C  ScalDFC         ....  0.810000
   Scaling of DF-LDA-C  ScalLDAC        ....  1.000000
   Perturbative correction              ....  0.000000
   Density functional embedding theory  .... OFF
   NL short-range parameter             ....  4.800000
 RI-approximation to the Coulomb term is turned on
   Number of AuxJ basis functions       .... 884
   RIJ-COSX (HFX calculated with COS-X)).... on


General Settings:
 Integral files         IntName         .... opt
 Hartree-Fock type      HFTyp           .... UHF
 Total Charge           Charge          ....    0
 Multiplicity           Mult            ....    2
 Number of Electrons    NEL             ....  109
 Basis Dimension        Dim             ....  364
 Nuclear Repulsion      ENuc            ....    921.7162755189 Eh

Convergence Acceleration:
 DIIS                   CNVDIIS         .... on
   Start iteration      DIISMaxIt       ....    12
   Startup error        DIISStart       ....  0.200000
   # of expansion vecs  DIISMaxEq       ....     5
   Bias factor          DIISBfac        ....   1.050
   Max. coefficient     DIISMaxC        ....  10.000
 Trust-Rad. Augm. Hess. CNVTRAH         .... auto
   Auto Start mean grad. ratio tolernc. ....  1.125000
   Auto Start start iteration           ....    20
   Auto Start num. interpolation iter.  ....    10
   Max. Number of Micro iterations      ....    16
   Max. Number of Macro iterations      .... Maxiter - #DIIS iter
   Number of Davidson start vectors     ....     2
   Converg. threshold I  (grad. norm)   ....   1.000e-05
   Converg. threshold II (energy diff.) ....   1.000e-08
   Grad. Scal. Fac. for Micro threshold ....   0.100
   Minimum threshold for Micro iter.    ....   0.010
   NR start threshold (gradient norm)   ....   0.001
   Initial trust radius                 ....   0.400
   Minimum AH scaling param. (alpha)    ....   1.000
   Maximum AH scaling param. (alpha)    .... 1000.000
   Orbital update algorithm             .... Taylor
   White noise on init. David. guess    .... on
   Maximum white noise                  ....   0.010
   Quad. conv. algorithm                .... NR
 SOSCF                  CNVSOSCF        .... off
 Level Shifting         CNVShift        .... on
   Level shift para.    LevelShift      ....    0.2500
   Turn off err/grad.   ShiftErr        ....    0.0010
 Zerner damping         CNVZerner       .... off
 Static damping         CNVDamp         .... on
   Fraction old density DampFac         ....    0.7000
   Max. Damping (<1)    DampMax         ....    0.9800
   Min. Damping (>=0)   DampMin         ....    0.0000
   Turn off err/grad.   DampErr         ....    0.1000
 Fernandez-Rico         CNVRico         .... off

SCF Procedure:
 Maximum # iterations   MaxIter         ....   125
 SCF integral mode      SCFMode         .... Direct
   Integral package                     .... SHARK and LIBINT hybrid scheme
 Reset frequency        DirectResetFreq ....    20
 Integral Threshold     Thresh          ....  2.500e-11 Eh
 Primitive CutOff       TCut            ....  2.500e-12 Eh

Convergence Tolerance:
 Convergence Check Mode ConvCheckMode   .... Total+1el-Energy
 Convergence forced     ConvForced      .... 0
 Energy Change          TolE            ....  1.000e-08 Eh
 1-El. energy change                    ....  1.000e-05 Eh
 DIIS Error             TolErr          ....  5.000e-07


Diagonalization of the overlap matrix:
Smallest eigenvalue                        ... 6.463e-04
Time for diagonalization                   ...    0.014 sec
Threshold for overlap eigenvalues          ... 1.000e-08
Number of eigenvalues below threshold      ... 0
Time for construction of square roots      ...    0.012 sec
Total time needed                          ...    0.027 sec

Time for model grid setup =    0.112 sec

------------------------------
INITIAL GUESS: MODEL POTENTIAL
------------------------------
Loading Hartree-Fock densities                     ... done
Calculating cut-offs                               ... done
Initializing the effective Hamiltonian             ... done
Setting up the integral package (SHARK)            ... done
Starting the Coulomb interaction                   ... done (   0.0 sec)
Reading the grid                                   ... done
Mapping shells                                     ... done
Starting the XC term evaluation                    ... done (   0.0 sec)
  promolecular density results
     # of electrons  =    108.988589060
     EX              =    -87.742738609
     EC              =     -3.659511735
     EX+EC           =    -91.402250344
Transforming the Hamiltonian                       ... done (   0.0 sec)
Diagonalizing the Hamiltonian                      ... done (   0.0 sec)
Back transforming the eigenvectors                 ... done (   0.0 sec)
Now organizing SCF variables                       ... done
                      ------------------
                      INITIAL GUESS DONE (   0.3 sec)
                      ------------------
-------------------
DFT GRID GENERATION
-------------------

General Integration Accuracy     IntAcc      ... 4.388
Radial Grid Type                 RadialGrid  ... OptM3 with GC (2021)
Angular Grid (max. ang.)         AngularGrid ... 4 (Lebedev-302)
Angular grid pruning method      GridPruning ... 4 (adaptive)
Weight generation scheme         WeightScheme... Becke
Basis function cutoff            BFCut       ... 1.0000e-11
Integration weight cutoff        WCut        ... 1.0000e-14
Angular grids for H and He will be reduced by one unit
Partially contracted basis set               ... off
Rotationally invariant grid construction     ... off

Total number of grid points                  ...   141669
Total number of batches                      ...     2231
Average number of points per batch           ...       63
Average number of grid points per atom       ...     4427
Time for grid setup =    0.573 sec

--------------------
COSX GRID GENERATION
--------------------

GRIDX 1
-------
General Integration Accuracy     IntAcc      ... 3.816
Radial Grid Type                 RadialGrid  ... OptM3 with GC (2021)
Angular Grid (max. ang.)         AngularGrid ... 1 (Lebedev-50)
Angular grid pruning method      GridPruning ... 4 (adaptive)
Weight generation scheme         WeightScheme... Becke
Basis function cutoff            BFCut       ... 1.0000e-11
Integration weight cutoff        WCut        ... 1.0000e-14
Angular grids for H and He will be reduced by one unit
Partially contracted basis set               ... on
Rotationally invariant grid construction     ... off

Total number of grid points                  ...    18094
Total number of batches                      ...      304
Average number of points per batch           ...       59
Average number of grid points per atom       ...      565
UseSFitting                                  ... on

GRIDX 2
-------
General Integration Accuracy     IntAcc      ... 4.020
Radial Grid Type                 RadialGrid  ... OptM3 with GC (2021)
Angular Grid (max. ang.)         AngularGrid ... 2 (Lebedev-110)
Angular grid pruning method      GridPruning ... 4 (adaptive)
Weight generation scheme         WeightScheme... Becke
Basis function cutoff            BFCut       ... 1.0000e-11
Integration weight cutoff        WCut        ... 1.0000e-14
Angular grids for H and He will be reduced by one unit
Partially contracted basis set               ... on
Rotationally invariant grid construction     ... off

Total number of grid points                  ...    38348
Total number of batches                      ...      616
Average number of points per batch           ...       62
Average number of grid points per atom       ...     1198
UseSFitting                                  ... on

GRIDX 3
-------
General Integration Accuracy     IntAcc      ... 4.338
Radial Grid Type                 RadialGrid  ... OptM3 with GC (2021)
Angular Grid (max. ang.)         AngularGrid ... 3 (Lebedev-194)
Angular grid pruning method      GridPruning ... 4 (adaptive)
Weight generation scheme         WeightScheme... Becke
Basis function cutoff            BFCut       ... 1.0000e-11
Integration weight cutoff        WCut        ... 1.0000e-14
Angular grids for H and He will be reduced by one unit
Partially contracted basis set               ... on
Rotationally invariant grid construction     ... off

Total number of grid points                  ...    83545
Total number of batches                      ...     1322
Average number of points per batch           ...       63
Average number of grid points per atom       ...     2611
UseSFitting                                  ... on

Time for X-Grid setup             =    0.639 sec

--------------
SCF ITERATIONS
--------------
ITER       Energy         Delta-E        Max-DP      RMS-DP      [F,P]     Damp
               ***  Starting incremental Fock matrix formation  ***
  0   -667.6908429399   0.000000000000 0.06232495  0.00094982  0.1290010 0.7000
  1   -667.9425101266  -0.251667186750 0.03658105  0.00065697  0.0548123 0.7000
                               ***Turning on DIIS***
  2   -668.0334523925  -0.090942265903 0.04563853  0.00100185  0.0176181 0.0000
  3   -668.1811217356  -0.147669343049 0.02757413  0.00047891  0.0333432 0.0000
  4   -668.2143151667  -0.033193431157 0.00928866  0.00016541  0.0065726 0.0000
  5   -668.2161841908  -0.001869024016 0.00390362  0.00006294  0.0048602 0.0000
  6   -668.2165646407  -0.000380449961 0.00324747  0.00004171  0.0007702 0.0000
               *** Restarting incremental Fock matrix formation ***
                                   *** Resetting DIIS ***
  7   -668.2165996679  -0.000035027161 0.00186831  0.00002113  0.0007078 0.0000
  8   -668.2165880181   0.000011649756 0.00071631  0.00000792  0.0010424 0.0000
  9   -668.2166107005  -0.000022682381 0.00027299  0.00000515  0.0002711 0.0000
 10   -668.2166123803  -0.000001679795 0.00020797  0.00000174  0.0000728 0.0000
 11   -668.2166124528  -0.000000072487 0.00009730  0.00000096  0.0000890 0.0000
 12   -668.2166125680  -0.000000115159 0.00003063  0.00000031  0.0000210 0.0000
 13   -668.2166125787  -0.000000010711 0.00001793  0.00000016  0.0000110 0.0000
 14   -668.2166125868  -0.000000008163 0.00000762  0.00000007  0.0000043 0.0000
 15   -668.2166125878  -0.000000000967 0.00000498  0.00000005  0.0000045 0.0000
                            ***DIIS convergence achieved***

               *****************************************************
               *                     SUCCESS                       *
               *           SCF CONVERGED AFTER  16 CYCLES          *
               *****************************************************

Old exchange energy                            =    -17.869210777 Eh
New exchange energy                            =    -17.869267905 Eh
Exchange energy change after final integration =     -0.000057128 Eh
Total energy after final integration           =   -668.216669715 Eh
Final COS-X integration done in                =     2.207 sec

----------------
TOTAL SCF ENERGY
----------------

Total Energy       :         -668.21666972 Eh          -18183.09999 eV

Components:
Nuclear Repulsion  :          921.71627552 Eh           25081.17496 eV
Electronic Energy  :        -1589.93294523 Eh          -43264.27495 eV
One Electron Energy:        -2737.38678609 Eh          -74488.08135 eV
Two Electron Energy:         1147.45384086 Eh           31223.80640 eV
Max COSX asymmetry :            0.00000181 Eh               0.00005 eV

Virial components:
Potential Energy   :        -1332.04817913 Eh          -36246.87371 eV
Kinetic Energy     :          663.83150942 Eh           18063.77372 eV
Virial Ratio       :            2.00660583


DFT components:
N(Alpha)           :       54.999991429983 electrons
N(Beta)            :       53.999977042817 electrons
N(Total)           :      108.999968472800 electrons
E(X)               :      -70.970105777081 Eh       
E(C)               :       -4.315215999291 Eh       
E(XC)              :      -75.285321776372 Eh       
DFET-embed. en.    :        0.000000000000 Eh       

---------------
SCF CONVERGENCE
---------------

  Last Energy change         ...    8.6868e-10  Tolerance :   1.0000e-08
  Last MAX-Density change    ...    0.0000e+00  Tolerance :   1.0000e-07
  Last RMS-Density change    ...    0.0000e+00  Tolerance :   5.0000e-09
  Last DIIS Error            ...    8.0639e-07  Tolerance :   5.0000e-07

             **** THE GBW FILE WAS UPDATED (opt.gbw) ****
             **** DENSITY opt.scfp WAS UPDATED ****
             **** ENERGY FILE WAS UPDATED (opt.en.tmp) ****
----------------------
UHF SPIN CONTAMINATION
----------------------

Warning: in a DFT calculation there is little theoretical justification to 
         calculate <S**2> as in Hartree-Fock theory. We will do it anyways
         but you should keep in mind that the values have only limited relevance

Expectation value of <S**2>     :     0.753963
Ideal value S*(S+1) for S=0.5   :     0.750000
Deviation                       :     0.003963

             **** THE GBW FILE WAS UPDATED (opt.gbw) ****
             **** DENSITY opt.scfp WAS UPDATED ****
----------------
ORBITAL ENERGIES
----------------
                 SPIN UP ORBITALS
  NO   OCC          E(Eh)            E(eV) 
   0   1.0000     -19.122957      -520.3621 
   1   1.0000     -19.098847      -519.7061 
   2   1.0000     -14.367325      -390.9548 
   3   1.0000     -14.347377      -390.4120 
   4   1.0000     -14.307383      -389.3237 
   5   1.0000     -10.300313      -280.2858 
   6   1.0000     -10.283841      -279.8375 
   7   1.0000     -10.239514      -278.6313 
   8   1.0000     -10.224135      -278.2129 
   9   1.0000     -10.206859      -277.7427 
  10   1.0000     -10.201225      -277.5895 
  11   1.0000     -10.189733      -277.2767 
  12   1.0000     -10.184896      -277.1451 
  13   1.0000     -10.182491      -277.0797 
  14   1.0000      -1.054780       -28.7020 
  15   1.0000      -1.030272       -28.0351 
  16   1.0000      -0.934309       -25.4238 
  17   1.0000      -0.919453       -25.0196 
  18   1.0000      -0.877667       -23.8825 
  19   1.0000      -0.802134       -21.8272 
  20   1.0000      -0.762518       -20.7492 
  21   1.0000      -0.726943       -19.7811 
  22   1.0000      -0.708803       -19.2875 
  23   1.0000      -0.671181       -18.2638 
  24   1.0000      -0.612841       -16.6763 
  25   1.0000      -0.596149       -16.2221 
  26   1.0000      -0.587315       -15.9816 
  27   1.0000      -0.555748       -15.1227 
  28   1.0000      -0.535498       -14.5716 
  29   1.0000      -0.494368       -13.4524 
  30   1.0000      -0.487650       -13.2696 
  31   1.0000      -0.476166       -12.9571 
  32   1.0000      -0.469518       -12.7762 
  33   1.0000      -0.459551       -12.5050 
  34   1.0000      -0.453982       -12.3535 
  35   1.0000      -0.448317       -12.1993 
  36   1.0000      -0.434807       -11.8317 
  37   1.0000      -0.430100       -11.7036 
  38   1.0000      -0.416838       -11.3427 
  39   1.0000      -0.402959       -10.9651 
  40   1.0000      -0.400422       -10.8960 
  41   1.0000      -0.392772       -10.6879 
  42   1.0000      -0.390381       -10.6228 
  43   1.0000      -0.383379       -10.4323 
  44   1.0000      -0.366047        -9.9606 
  45   1.0000      -0.355662        -9.6780 
  46   1.0000      -0.349313        -9.5053 
  47   1.0000      -0.334457        -9.1010 
  48   1.0000      -0.332111        -9.0372 
  49   1.0000      -0.280603        -7.6356 
  50   1.0000      -0.270152        -7.3512 
  51   1.0000      -0.252466        -6.8700 
  52   1.0000      -0.248176        -6.7532 
  53   1.0000      -0.235680        -6.4132 
  54   1.0000      -0.198555        -5.4030 
  55   0.0000       0.006603         0.1797 
  56   0.0000       0.014771         0.4019 
  57   0.0000       0.021795         0.5931 
  58   0.0000       0.028460         0.7744 
  59   0.0000       0.032985         0.8976 
  60   0.0000       0.039064         1.0630 
  61   0.0000       0.052297         1.4231 
  62   0.0000       0.055607         1.5131 
  63   0.0000       0.070485         1.9180 
  64   0.0000       0.075572         2.0564 
  65   0.0000       0.095472         2.5979 
  66   0.0000       0.097160         2.6438 
  67   0.0000       0.114767         3.1230 
  68   0.0000       0.126665         3.4467 
  69   0.0000       0.151409         4.1201 
  70   0.0000       0.158641         4.3168 
  71   0.0000       0.164596         4.4789 
  72   0.0000       0.169682         4.6173 
  73   0.0000       0.176465         4.8019 
  74   0.0000       0.181292         4.9332 
  75   0.0000       0.189535         5.1575 
  76   0.0000       0.192210         5.2303 
  77   0.0000       0.196077         5.3355 
  78   0.0000       0.206400         5.6164 
  79   0.0000       0.207582         5.6486 
  80   0.0000       0.211902         5.7661 
  81   0.0000       0.217140         5.9087 
  82   0.0000       0.225417         6.1339 
  83   0.0000       0.231022         6.2864 
  84   0.0000       0.238694         6.4952 
  85   0.0000       0.241035         6.5589 
  86   0.0000       0.245427         6.6784 
  87   0.0000       0.249610         6.7922 
  88   0.0000       0.255247         6.9456 
  89   0.0000       0.264572         7.1994 
  90   0.0000       0.272234         7.4079 
  91   0.0000       0.276611         7.5270 
  92   0.0000       0.284877         7.7519 
  93   0.0000       0.285950         7.7811 
  94   0.0000       0.292592         7.9618 
  95   0.0000       0.299188         8.1413 
  96   0.0000       0.305034         8.3004 
  97   0.0000       0.311782         8.4840 
  98   0.0000       0.314679         8.5628 
  99   0.0000       0.316681         8.6173 
 100   0.0000       0.324038         8.8175 
 101   0.0000       0.332967         9.0605 
 102   0.0000       0.334318         9.0973 
 103   0.0000       0.346404         9.4261 
 104   0.0000       0.360015         9.7965 
 105   0.0000       0.374423        10.1886 
 106   0.0000       0.381645        10.3851 
 107   0.0000       0.391227        10.6458 
 108   0.0000       0.401956        10.9378 
 109   0.0000       0.407648        11.0927 
 110   0.0000       0.425533        11.5794 
 111   0.0000       0.428692        11.6653 
 112   0.0000       0.441269        12.0075 
 113   0.0000       0.453616        12.3435 
 114   0.0000       0.461200        12.5499 
 115   0.0000       0.464163        12.6305 
 116   0.0000       0.468382        12.7453 
 117   0.0000       0.484108        13.1732 
 118   0.0000       0.492029        13.3888 
 119   0.0000       0.501951        13.6588 
 120   0.0000       0.504188        13.7196 
 121   0.0000       0.531309        14.4577 
 122   0.0000       0.542019        14.7491 
 123   0.0000       0.544421        14.8144 
 124   0.0000       0.568780        15.4773 
 125   0.0000       0.574230        15.6256 
 126   0.0000       0.600311        16.3353 
 127   0.0000       0.613382        16.6910 
 128   0.0000       0.618573        16.8322 
 129   0.0000       0.633996        17.2519 
 130   0.0000       0.645506        17.5651 
 131   0.0000       0.668089        18.1796 
 132   0.0000       0.672284        18.2938 
 133   0.0000       0.701803        19.0970 
 134   0.0000       0.722186        19.6517 
 135   0.0000       0.732191        19.9239 
 136   0.0000       0.764903        20.8141 
 137   0.0000       0.767373        20.8813 
 138   0.0000       0.780321        21.2336 
 139   0.0000       0.785073        21.3629 
 140   0.0000       0.807782        21.9809 
 141   0.0000       0.816833        22.2272 
 142   0.0000       0.819114        22.2892 
 143   0.0000       0.823693        22.4138 
 144   0.0000       0.834554        22.7094 
 145   0.0000       0.841921        22.9098 
 146   0.0000       0.861250        23.4358 
 147   0.0000       0.868430        23.6312 
 148   0.0000       0.875672        23.8282 
 149   0.0000       0.886113        24.1124 
 150   0.0000       0.890334        24.2272 
 151   0.0000       0.904284        24.6068 
 152   0.0000       0.905775        24.6474 
 153   0.0000       0.912579        24.8325 
 154   0.0000       0.919805        25.0292 
 155   0.0000       0.920698        25.0535 
 156   0.0000       0.924743        25.1635 
 157   0.0000       0.926796        25.2194 
 158   0.0000       0.930835        25.3293 
 159   0.0000       0.951191        25.8832 
 160   0.0000       0.956741        26.0342 
 161   0.0000       0.963726        26.2243 
 162   0.0000       0.980530        26.6816 
 163   0.0000       0.984624        26.7930 
 164   0.0000       1.002349        27.2753 
 165   0.0000       1.016260        27.6539 
 166   0.0000       1.023212        27.8430 
 167   0.0000       1.027912        27.9709 
 168   0.0000       1.041695        28.3460 
 169   0.0000       1.047686        28.5090 
 170   0.0000       1.055969        28.7344 
 171   0.0000       1.067372        29.0447 
 172   0.0000       1.084104        29.5000 
 173   0.0000       1.100096        29.9351 
 174   0.0000       1.132629        30.8204 
 175   0.0000       1.155909        31.4539 
 176   0.0000       1.160389        31.5758 
 177   0.0000       1.169118        31.8133 
 178   0.0000       1.175946        31.9991 
 179   0.0000       1.194042        32.4915 
 180   0.0000       1.196319        32.5535 
 181   0.0000       1.199116        32.6296 
 182   0.0000       1.214304        33.0429 
 183   0.0000       1.245782        33.8994 
 184   0.0000       1.291434        35.1417 
 185   0.0000       1.316998        35.8373 
 186   0.0000       1.323750        36.0211 
 187   0.0000       1.340549        36.4782 
 188   0.0000       1.343809        36.5669 
 189   0.0000       1.358790        36.9746 
 190   0.0000       1.375344        37.4250 
 191   0.0000       1.385295        37.6958 
 192   0.0000       1.401359        38.1329 
 193   0.0000       1.411475        38.4082 
 194   0.0000       1.415826        38.5266 
 195   0.0000       1.433367        39.0039 
 196   0.0000       1.449529        39.4437 
 197   0.0000       1.465233        39.8710 
 198   0.0000       1.479489        40.2590 
 199   0.0000       1.484590        40.3978 
 200   0.0000       1.492878        40.6233 
 201   0.0000       1.508600        41.0511 
 202   0.0000       1.521707        41.4077 
 203   0.0000       1.534132        41.7459 
 204   0.0000       1.547802        42.1178 
 205   0.0000       1.551449        42.2171 
 206   0.0000       1.569179        42.6995 
 207   0.0000       1.575957        42.8840 
 208   0.0000       1.579391        42.9774 
 209   0.0000       1.594272        43.3824 
 210   0.0000       1.610532        43.8248 
 211   0.0000       1.624322        44.2001 
 212   0.0000       1.631846        44.4048 
 213   0.0000       1.637698        44.5640 
 214   0.0000       1.651799        44.9477 
 215   0.0000       1.658632        45.1337 
 216   0.0000       1.665841        45.3298 
 217   0.0000       1.683456        45.8092 
 218   0.0000       1.688658        45.9507 
 219   0.0000       1.693330        46.0779 
 220   0.0000       1.710171        46.5361 
 221   0.0000       1.717989        46.7489 
 222   0.0000       1.735355        47.2214 
 223   0.0000       1.747005        47.5384 
 224   0.0000       1.751139        47.6509 
 225   0.0000       1.757589        47.8264 
 226   0.0000       1.767071        48.0845 
 227   0.0000       1.773824        48.2682 
 228   0.0000       1.809130        49.2289 
 229   0.0000       1.810022        49.2532 
 230   0.0000       1.822045        49.5804 
 231   0.0000       1.842968        50.1497 
 232   0.0000       1.851569        50.3837 
 233   0.0000       1.856087        50.5067 
 234   0.0000       1.868890        50.8551 
 235   0.0000       1.884541        51.2810 
 236   0.0000       1.913238        52.0618 
 237   0.0000       1.922345        52.3097 
 238   0.0000       1.949399        53.0458 
 239   0.0000       1.960169        53.3389 
 240   0.0000       1.977966        53.8232 
 241   0.0000       2.009977        54.6942 
 242   0.0000       2.022418        55.0328 
 243   0.0000       2.051165        55.8150 
 244   0.0000       2.065619        56.2084 
 245   0.0000       2.069666        56.3185 
 246   0.0000       2.079975        56.5990 
 247   0.0000       2.096124        57.0384 
 248   0.0000       2.130540        57.9749 
 249   0.0000       2.140711        58.2517 
 250   0.0000       2.160147        58.7806 
 251   0.0000       2.176470        59.2248 
 252   0.0000       2.200077        59.8671 
 253   0.0000       2.208203        60.0883 
 254   0.0000       2.218980        60.3815 
 255   0.0000       2.258257        61.4503 
 256   0.0000       2.267759        61.7089 
 257   0.0000       2.284872        62.1745 
 258   0.0000       2.297207        62.5102 
 259   0.0000       2.313020        62.9405 
 260   0.0000       2.324353        63.2489 
 261   0.0000       2.343461        63.7688 
 262   0.0000       2.351233        63.9803 
 263   0.0000       2.379045        64.7371 
 264   0.0000       2.382703        64.8367 
 265   0.0000       2.388300        64.9889 
 266   0.0000       2.398109        65.2559 
 267   0.0000       2.420589        65.8676 
 268   0.0000       2.423044        65.9344 
 269   0.0000       2.444904        66.5292 
 270   0.0000       2.458659        66.9035 
 271   0.0000       2.464270        67.0562 
 272   0.0000       2.476448        67.3876 
 273   0.0000       2.485458        67.6327 
 274   0.0000       2.490947        67.7821 
 275   0.0000       2.498832        67.9967 
 276   0.0000       2.519938        68.5710 
 277   0.0000       2.543513        69.2125 
 278   0.0000       2.582268        70.2671 
 279   0.0000       2.598422        70.7067 
 280   0.0000       2.614172        71.1352 
 281   0.0000       2.635765        71.7228 
 282   0.0000       2.678199        72.8775 
 283   0.0000       2.694742        73.3277 
 284   0.0000       2.702612        73.5418 
 285   0.0000       2.736030        74.4512 
 286   0.0000       2.741793        74.6080 
 287   0.0000       2.758643        75.0665 
 288   0.0000       2.782660        75.7200 
 289   0.0000       2.802377        76.2566 
 290   0.0000       2.843679        77.3804 
 291   0.0000       2.913142        79.2706 
 292   0.0000       2.990519        81.3762 
 293   0.0000       3.047012        82.9134 
 294   0.0000       3.099117        84.3313 
 295   0.0000       3.127692        85.1088 
 296   0.0000       3.379461        91.9598 
 297   0.0000       3.441990        93.6613 
 298   0.0000       3.455037        94.0163 
 299   0.0000       3.466730        94.3345 
 300   0.0000       4.925830       134.0386 
 301   0.0000       4.977884       135.4551 
 302   0.0000       4.987695       135.7221 
 303   0.0000       4.988925       135.7556 
 304   0.0000       5.007511       136.2613 
 305   0.0000       5.015114       136.4682 
 306   0.0000       5.028878       136.8427 
 307   0.0000       5.034525       136.9964 
 308   0.0000       5.077235       138.1586 
 309   0.0000       5.112256       139.1116 
 310   0.0000       5.134595       139.7194 
 311   0.0000       5.156375       140.3121 
 312   0.0000       5.185390       141.1016 
 313   0.0000       5.216253       141.9415 
 314   0.0000       5.240167       142.5922 
 315   0.0000       5.253995       142.9685 
 316   0.0000       5.278639       143.6391 
 317   0.0000       5.304152       144.3333 
 318   0.0000       5.315818       144.6508 
 319   0.0000       5.354047       145.6910 
 320   0.0000       5.380180       146.4021 
 321   0.0000       5.446738       148.2133 
 322   0.0000       5.599753       152.3770 
 323   0.0000       5.653180       153.8308 
 324   0.0000       5.698828       155.0730 
 325   0.0000       5.741570       156.2361 
 326   0.0000       5.857939       159.4026 
 327   0.0000       7.221073       196.4954 
 328   0.0000       7.307325       198.8424 
 329   0.0000       7.336760       199.6434 
 330   0.0000       9.088981       247.3237 
 331   0.0000       9.112388       247.9607 
 332   0.0000      29.591380       805.2224 
 333   0.0000      29.629942       806.2717 
 334   0.0000      29.741379       809.3041 
 335   0.0000      29.877808       813.0165 
 336   0.0000      29.917447       814.0951 
 337   0.0000      30.063268       818.0631 
 338   0.0000      30.076068       818.4114 
 339   0.0000      30.150848       820.4463 
 340   0.0000      30.258534       823.3766 
 341   0.0000      36.540286       994.3117 
 342   0.0000      36.606346       996.1093 
 343   0.0000      36.607841       996.1500 
 344   0.0000      36.611862       996.2594 
 345   0.0000      36.630966       996.7793 
 346   0.0000      36.637084       996.9457 
 347   0.0000      36.649888       997.2942 
 348   0.0000      36.698206       998.6089 
 349   0.0000      36.705454       998.8062 
 350   0.0000      36.720193       999.2073 
 351   0.0000      36.734349       999.5924 
 352   0.0000      36.780876      1000.8585 
 353   0.0000      36.825991      1002.0862 
 354   0.0000      36.840646      1002.4849 
 355   0.0000      36.882621      1003.6271 
 356   0.0000      36.890667      1003.8461 
 357   0.0000      36.915634      1004.5255 
 358   0.0000      36.942612      1005.2596 
 359   0.0000      41.163448      1120.1144 
 360   0.0000      41.251481      1122.5099 
 361   0.0000      41.275448      1123.1620 
 362   0.0000      53.627501      1459.2785 
 363   0.0000      53.650716      1459.9102 

                 SPIN DOWN ORBITALS
  NO   OCC          E(Eh)            E(eV) 
   0   1.0000     -19.122664      -520.3541 
   1   1.0000     -19.098475      -519.6959 
   2   1.0000     -14.366901      -390.9433 
   3   1.0000     -14.346399      -390.3854 
   4   1.0000     -14.307361      -389.3231 
   5   1.0000     -10.299600      -280.2664 
   6   1.0000     -10.283835      -279.8374 
   7   1.0000     -10.240298      -278.6527 
   8   1.0000     -10.224150      -278.2133 
   9   1.0000     -10.206832      -277.7420 
  10   1.0000     -10.190522      -277.2982 
  11   1.0000     -10.187724      -277.2221 
  12   1.0000     -10.184805      -277.1426 
  13   1.0000     -10.182202      -277.0718 
  14   1.0000      -1.054014       -28.6812 
  15   1.0000      -1.029561       -28.0158 
  16   1.0000      -0.933340       -25.3975 
  17   1.0000      -0.917215       -24.9587 
  18   1.0000      -0.877566       -23.8798 
  19   1.0000      -0.791945       -21.5499 
  20   1.0000      -0.761261       -20.7150 
  21   1.0000      -0.726180       -19.7604 
  22   1.0000      -0.701898       -19.0996 
  23   1.0000      -0.669324       -18.2132 
  24   1.0000      -0.604319       -16.4444 
  25   1.0000      -0.594774       -16.1846 
  26   1.0000      -0.585863       -15.9421 
  27   1.0000      -0.546761       -14.8781 
  28   1.0000      -0.531688       -14.4680 
  29   1.0000      -0.492609       -13.4046 
  30   1.0000      -0.486520       -13.2389 
  31   1.0000      -0.475550       -12.9404 
  32   1.0000      -0.467051       -12.7091 
  33   1.0000      -0.458754       -12.4833 
  34   1.0000      -0.452892       -12.3238 
  35   1.0000      -0.446943       -12.1619 
  36   1.0000      -0.432368       -11.7653 
  37   1.0000      -0.428276       -11.6540 
  38   1.0000      -0.412105       -11.2139 
  39   1.0000      -0.402269       -10.9463 
  40   1.0000      -0.398144       -10.8340 
  41   1.0000      -0.390486       -10.6257 
  42   1.0000      -0.389636       -10.6025 
  43   1.0000      -0.381857       -10.3908 
  44   1.0000      -0.362975        -9.8771 
  45   1.0000      -0.354799        -9.6546 
  46   1.0000      -0.346006        -9.4153 
  47   1.0000      -0.332716        -9.0537 
  48   1.0000      -0.329286        -8.9603 
  49   1.0000      -0.274548        -7.4708 
  50   1.0000      -0.269150        -7.3239 
  51   1.0000      -0.250106        -6.8057 
  52   1.0000      -0.245138        -6.6706 
  53   1.0000      -0.235106        -6.3976 
  54   0.0000      -0.063516        -1.7284 
  55   0.0000       0.007474         0.2034 
  56   0.0000       0.015998         0.4353 
  57   0.0000       0.022687         0.6173 
  58   0.0000       0.028695         0.7808 
  59   0.0000       0.033879         0.9219 
  60   0.0000       0.040866         1.1120 
  61   0.0000       0.053316         1.4508 
  62   0.0000       0.055916         1.5215 
  63   0.0000       0.072039         1.9603 
  64   0.0000       0.077303         2.1035 
  65   0.0000       0.096411         2.6235 
  66   0.0000       0.098809         2.6887 
  67   0.0000       0.115759         3.1500 
  68   0.0000       0.127297         3.4639 
  69   0.0000       0.152544         4.1509 
  70   0.0000       0.159250         4.3334 
  71   0.0000       0.165481         4.5030 
  72   0.0000       0.170437         4.6378 
  73   0.0000       0.177832         4.8391 
  74   0.0000       0.183981         5.0064 
  75   0.0000       0.190640         5.1876 
  76   0.0000       0.193498         5.2653 
  77   0.0000       0.197561         5.3759 
  78   0.0000       0.207478         5.6458 
  79   0.0000       0.208741         5.6801 
  80   0.0000       0.215812         5.8725 
  81   0.0000       0.219141         5.9631 
  82   0.0000       0.226894         6.1741 
  83   0.0000       0.232735         6.3330 
  84   0.0000       0.239066         6.5053 
  85   0.0000       0.243083         6.6146 
  86   0.0000       0.246182         6.6989 
  87   0.0000       0.251981         6.8567 
  88   0.0000       0.256088         6.9685 
  89   0.0000       0.267358         7.2752 
  90   0.0000       0.273436         7.4406 
  91   0.0000       0.282633         7.6908 
  92   0.0000       0.285881         7.7792 
  93   0.0000       0.288605         7.8533 
  94   0.0000       0.294152         8.0043 
  95   0.0000       0.300557         8.1786 
  96   0.0000       0.307337         8.3631 
  97   0.0000       0.312256         8.4969 
  98   0.0000       0.315889         8.5958 
  99   0.0000       0.318904         8.6778 
 100   0.0000       0.325075         8.8457 
 101   0.0000       0.333860         9.0848 
 102   0.0000       0.335136         9.1195 
 103   0.0000       0.349337         9.5059 
 104   0.0000       0.361341         9.8326 
 105   0.0000       0.377151        10.2628 
 106   0.0000       0.386289        10.5115 
 107   0.0000       0.392682        10.6854 
 108   0.0000       0.403697        10.9852 
 109   0.0000       0.411062        11.1856 
 110   0.0000       0.429006        11.6738 
 111   0.0000       0.431629        11.7452 
 112   0.0000       0.443654        12.0724 
 113   0.0000       0.455379        12.3915 
 114   0.0000       0.463484        12.6120 
 115   0.0000       0.465129        12.6568 
 116   0.0000       0.473990        12.8979 
 117   0.0000       0.484555        13.1854 
 118   0.0000       0.498006        13.5514 
 119   0.0000       0.505099        13.7445 
 120   0.0000       0.519165        14.1272 
 121   0.0000       0.534438        14.5428 
 122   0.0000       0.543783        14.7971 
 123   0.0000       0.548405        14.9229 
 124   0.0000       0.570702        15.5296 
 125   0.0000       0.576097        15.6764 
 126   0.0000       0.601513        16.3680 
 127   0.0000       0.613952        16.7065 
 128   0.0000       0.620999        16.8983 
 129   0.0000       0.636698        17.3254 
 130   0.0000       0.648409        17.6441 
 131   0.0000       0.668757        18.1978 
 132   0.0000       0.673735        18.3333 
 133   0.0000       0.704113        19.1599 
 134   0.0000       0.724038        19.7021 
 135   0.0000       0.736717        20.0471 
 136   0.0000       0.766342        20.8532 
 137   0.0000       0.769539        20.9402 
 138   0.0000       0.782926        21.3045 
 139   0.0000       0.785958        21.3870 
 140   0.0000       0.808761        22.0075 
 141   0.0000       0.818304        22.2672 
 142   0.0000       0.820835        22.3361 
 143   0.0000       0.824398        22.4330 
 144   0.0000       0.835446        22.7336 
 145   0.0000       0.842426        22.9236 
 146   0.0000       0.861917        23.4540 
 147   0.0000       0.869627        23.6638 
 148   0.0000       0.877304        23.8727 
 149   0.0000       0.888373        24.1739 
 150   0.0000       0.893219        24.3057 
 151   0.0000       0.904918        24.6241 
 152   0.0000       0.907367        24.6907 
 153   0.0000       0.913569        24.8595 
 154   0.0000       0.920673        25.0528 
 155   0.0000       0.922255        25.0958 
 156   0.0000       0.925157        25.1748 
 157   0.0000       0.927549        25.2399 
 158   0.0000       0.932235        25.3674 
 159   0.0000       0.952834        25.9279 
 160   0.0000       0.957650        26.0590 
 161   0.0000       0.966200        26.2916 
 162   0.0000       0.982449        26.7338 
 163   0.0000       0.987447        26.8698 
 164   0.0000       1.002885        27.2899 
 165   0.0000       1.019214        27.7342 
 166   0.0000       1.028819        27.9956 
 167   0.0000       1.031497        28.0685 
 168   0.0000       1.044408        28.4198 
 169   0.0000       1.051657        28.6170 
 170   0.0000       1.057398        28.7733 
 171   0.0000       1.069200        29.0944 
 172   0.0000       1.087292        29.5867 
 173   0.0000       1.102086        29.9893 
 174   0.0000       1.137317        30.9480 
 175   0.0000       1.156826        31.4788 
 176   0.0000       1.161855        31.6157 
 177   0.0000       1.171380        31.8749 
 178   0.0000       1.176859        32.0239 
 179   0.0000       1.194569        32.5059 
 180   0.0000       1.197990        32.5990 
 181   0.0000       1.200374        32.6638 
 182   0.0000       1.217013        33.1166 
 183   0.0000       1.247453        33.9449 
 184   0.0000       1.294488        35.2248 
 185   0.0000       1.319085        35.8941 
 186   0.0000       1.329241        36.1705 
 187   0.0000       1.344243        36.5787 
 188   0.0000       1.348543        36.6957 
 189   0.0000       1.366708        37.1900 
 190   0.0000       1.378964        37.5235 
 191   0.0000       1.388349        37.7789 
 192   0.0000       1.403496        38.1911 
 193   0.0000       1.411779        38.4165 
 194   0.0000       1.416329        38.5403 
 195   0.0000       1.439824        39.1796 
 196   0.0000       1.454223        39.5714 
 197   0.0000       1.468552        39.9613 
 198   0.0000       1.480540        40.2875 
 199   0.0000       1.485155        40.4131 
 200   0.0000       1.494149        40.6578 
 201   0.0000       1.510081        41.0914 
 202   0.0000       1.523370        41.4530 
 203   0.0000       1.537918        41.8489 
 204   0.0000       1.549655        42.1683 
 205   0.0000       1.553276        42.2668 
 206   0.0000       1.571810        42.7711 
 207   0.0000       1.577660        42.9303 
 208   0.0000       1.581642        43.0387 
 209   0.0000       1.595542        43.4169 
 210   0.0000       1.612924        43.8899 
 211   0.0000       1.625498        44.2320 
 212   0.0000       1.633426        44.4478 
 213   0.0000       1.640902        44.6512 
 214   0.0000       1.654431        45.0194 
 215   0.0000       1.660408        45.1820 
 216   0.0000       1.668924        45.4137 
 217   0.0000       1.684755        45.8445 
 218   0.0000       1.690806        46.0092 
 219   0.0000       1.696360        46.1603 
 220   0.0000       1.712758        46.6065 
 221   0.0000       1.720884        46.8276 
 222   0.0000       1.737420        47.2776 
 223   0.0000       1.748273        47.5729 
 224   0.0000       1.754388        47.7393 
 225   0.0000       1.760137        47.8958 
 226   0.0000       1.771906        48.2160 
 227   0.0000       1.775935        48.3256 
 228   0.0000       1.810584        49.2685 
 229   0.0000       1.814056        49.3630 
 230   0.0000       1.827107        49.7181 
 231   0.0000       1.844402        50.1887 
 232   0.0000       1.856583        50.5202 
 233   0.0000       1.859028        50.5867 
 234   0.0000       1.871592        50.9286 
[...]
  6 C s       :     2.884717  s :     2.884717
      pz      :     1.016554  p :     3.032940
      px      :     0.990723
      py      :     1.025663
      dz2     :     0.019294  d :     0.166834
      dxz     :     0.046417
      dyz     :     0.038295
      dx2y2   :     0.042833
      dxy     :     0.019995
  7 C s       :     2.872806  s :     2.872806
      pz      :     1.009923  p :     2.970641
      px      :     0.930543
      py      :     1.030175
      dz2     :     0.022339  d :     0.218428
      dxz     :     0.056881
      dyz     :     0.048169
      dx2y2   :     0.055618
      dxy     :     0.035421
  8 N s       :     3.176680  s :     3.176680
      pz      :     1.217137  p :     3.865823
      px      :     1.110296
      py      :     1.538391
      dz2     :     0.004164  d :     0.052972
      dxz     :     0.019931
      dyz     :     0.009580
      dx2y2   :     0.011465
      dxy     :     0.007832
  9 H s       :     0.866419  s :     0.866419
      pz      :     0.031605  p :     0.079365
      px      :     0.017032
      py      :     0.030728
 10 H s       :     0.857922  s :     0.857922
      pz      :     0.024026  p :     0.080532
      px      :     0.016299
      py      :     0.040207
 11 H s       :     0.877284  s :     0.877284
      pz      :     0.033295  p :     0.079431
      px      :     0.016820
      py      :     0.029315
 12 H s       :     0.871847  s :     0.871847
      pz      :     0.022776  p :     0.080434
      px      :     0.015804
      py      :     0.041853
 13 H s       :     0.883900  s :     0.883900
      pz      :     0.031829  p :     0.077481
      px      :     0.015150
      py      :     0.030503
 14 H s       :     0.896547  s :     0.896547
      pz      :     0.022687  p :     0.079099
      px      :     0.014676
      py      :     0.041737
 15 H s       :     0.809973  s :     0.809973
      pz      :     0.048548  p :     0.140661
      px      :     0.049844
      py      :     0.042269
 16 H s       :     0.807757  s :     0.807757
      pz      :     0.050868  p :     0.140813
      px      :     0.025192
      py      :     0.064753
 17 H s       :     0.754943  s :     0.754943
      pz      :     0.059400  p :     0.155381
      px      :     0.051633
      py      :     0.044348
 18 C s       :     2.843742  s :     2.843742
      pz      :     0.988033  p :     2.771977
      px      :     0.826768
      py      :     0.957177
      dz2     :     0.126555  d :     0.486942
      dxz     :     0.071515
      dyz     :     0.125847
      dx2y2   :     0.083047
      dxy     :     0.079978
 19 N s       :     3.064484  s :     3.064484
      pz      :     1.288205  p :     3.810039
      px      :     1.378159
      py      :     1.143674
      dz2     :     0.011116  d :     0.081269
      dxz     :     0.008500
      dyz     :     0.025668
      dx2y2   :     0.018513
      dxy     :     0.017472
 20 H s       :     0.766437  s :     0.766437
      pz      :     0.059282  p :     0.149475
      px      :     0.060775
      py      :     0.029418
 21 O s       :     3.583754  s :     3.583754
      pz      :     1.478902  p :     4.571266
      px      :     1.455909
      py      :     1.636456
      dz2     :     0.009375  d :     0.031972
      dxz     :     0.005918
      dyz     :     0.011636
      dx2y2   :     0.002431
      dxy     :     0.002612
 22 C s       :     2.872200  s :     2.872200
      pz      :     1.000339  p :     3.065017
      px      :     1.036012
      py      :     1.028666
      dz2     :     0.021289  d :     0.105652
      dxz     :     0.020012
      dyz     :     0.033002
      dx2y2   :     0.009082
      dxy     :     0.022267
 23 H s       :     0.864162  s :     0.864162
      pz      :     0.018531  p :     0.081573
      px      :     0.039403
      py      :     0.023639
 24 H s       :     0.884689  s :     0.884689
      pz      :     0.035590  p :     0.081512
      px      :     0.018331
      py      :     0.027590
 25 H s       :     0.864778  s :     0.864778
      pz      :     0.018342  p :     0.081553
      px      :     0.029019
      py      :     0.034192
 26 C s       :     2.856417  s :     2.856417
      pz      :     1.044203  p :     2.971967
      px      :     1.059180
      py      :     0.868584
      dz2     :     0.021708  d :     0.160111
      dxz     :     0.017936
      dyz     :     0.039740
      dx2y2   :     0.046432
      dxy     :     0.034295
 27 H s       :     0.870415  s :     0.870415
      pz      :     0.021780  p :     0.081442
      px      :     0.046126
      py      :     0.013536
 28 H s       :     0.887895  s :     0.887895
      pz      :     0.040356  p :     0.078772
      px      :     0.018104
      py      :     0.020312
 29 H s       :     0.886601  s :     0.886601
      pz      :     0.031167  p :     0.079151
      px      :     0.031444
      py      :     0.016540
 30 H s       :     0.844971  s :     0.844971
      pz      :     0.036005  p :     0.081127
      px      :     0.028001
      py      :     0.017121
 31 H s       :     0.863724  s :     0.863724
      pz      :     0.043708  p :     0.091107
      px      :     0.016093
      py      :     0.031306

SPIN
  0 N s       :     0.005051  s :     0.005051
      pz      :     0.008525  p :     0.023426
      px      :     0.009944
      py      :     0.004956
      dz2     :    -0.000119  d :    -0.000236
      dxz     :     0.000126
      dyz     :    -0.000131
      dx2y2   :    -0.000096
      dxy     :    -0.000016
  1 C s       :    -0.002484  s :    -0.002484
      pz      :    -0.001297  p :    -0.017246
      px      :    -0.012300
      py      :    -0.003649
      dz2     :     0.004250  d :     0.034300
      dxz     :     0.003227
      dyz     :     0.006832
      dx2y2   :     0.003194
      dxy     :     0.016797
  2 C s       :     0.007385  s :     0.007385
      pz      :     0.002226  p :     0.018061
      px      :     0.002490
      py      :     0.013345
      dz2     :    -0.000062  d :    -0.000393
      dxz     :     0.000362
      dyz     :    -0.000017
      dx2y2   :    -0.000093
      dxy     :    -0.000584
  3 O s       :     0.000907  s :     0.000907
      pz      :    -0.000679  p :     0.009256
      px      :    -0.001105
      py      :     0.011039
      dz2     :     0.000019  d :     0.000128
      dxz     :     0.000003
      dyz     :     0.000069
      dx2y2   :     0.000007
      dxy     :     0.000030
  4 C s       :     0.030057  s :     0.030057
      pz      :     0.098794  p :     0.770219
      px      :     0.032094
      py      :     0.639331
      dz2     :    -0.000649  d :    -0.002394
      dxz     :    -0.001213
      dyz     :     0.000925
      dx2y2   :    -0.001354
      dxy     :    -0.000103
  5 C s       :    -0.002777  s :    -0.002777
      pz      :    -0.008073  p :    -0.021101
      px      :    -0.008982
      py      :    -0.004046
      dz2     :     0.001465  d :     0.031984
      dxz     :     0.002482
      dyz     :     0.015861
      dx2y2   :     0.002939
      dxy     :     0.009236
  6 C s       :     0.003218  s :     0.003218
      pz      :     0.001697  p :     0.009755
      px      :     0.007633
      py      :     0.000424
      dz2     :    -0.000122  d :    -0.000355
      dxz     :     0.000043
      dyz     :     0.000185
      dx2y2   :    -0.000317
      dxy     :    -0.000144
  7 C s       :    -0.000058  s :    -0.000058
      pz      :     0.000459  p :     0.001599
      px      :     0.000361
      py      :     0.000779
      dz2     :     0.000086  d :     0.000071
      dxz     :    -0.000033
      dyz     :     0.000042
      dx2y2   :    -0.000004
      dxy     :    -0.000021
  8 N s       :     0.000152  s :     0.000152
      pz      :     0.000104  p :     0.000445
      px      :     0.000004
      py      :     0.000337
      dz2     :     0.000001  d :     0.000049
      dxz     :     0.000016
      dyz     :     0.000007
      dx2y2   :     0.000020
      dxy     :     0.000005
  9 H s       :     0.011649  s :     0.011649
      pz      :    -0.000456  p :    -0.000667
      px      :    -0.000220
      py      :     0.000009
 10 H s       :     0.043594  s :     0.043594
      pz      :    -0.000223  p :    -0.000925
      px      :    -0.000031
      py      :    -0.000671
 11 H s       :    -0.000238  s :    -0.000238
      pz      :     0.000026  p :     0.000330
      px      :     0.000275
      py      :     0.000029
 12 H s       :    -0.000670  s :    -0.000670
      pz      :     0.000251  p :     0.000404
      px      :     0.000001
      py      :     0.000152
 13 H s       :     0.000118  s :     0.000118
      pz      :     0.000016  p :     0.000025
      px      :     0.000002
      py      :     0.000007
 14 H s       :     0.000367  s :     0.000367
      pz      :    -0.000013  p :     0.000160
      px      :     0.000135
      py      :     0.000038
 15 H s       :     0.000221  s :     0.000221
      pz      :    -0.000003  p :     0.000001
      px      :    -0.000001
      py      :     0.000005
 16 H s       :    -0.000002  s :    -0.000002
      pz      :    -0.000003  p :     0.000016
      px      :    -0.000003
      py      :     0.000022
 17 H s       :     0.000216  s :     0.000216
      pz      :     0.000149  p :     0.001234
      px      :     0.000338
      py      :     0.000748
 18 C s       :    -0.000149  s :    -0.000149
      pz      :     0.000119  p :     0.000613
      px      :     0.000842
      py      :    -0.000347
      dz2     :     0.000309  d :     0.001929
      dxz     :    -0.000055
      dyz     :     0.001354
      dx2y2   :     0.000010
      dxy     :     0.000312
 19 N s       :     0.001516  s :     0.001516
      pz      :     0.001995  p :     0.012127
      px      :     0.009461
      py      :     0.000671
      dz2     :     0.000004  d :     0.000293
      dxz     :     0.000051
      dyz     :     0.000105
      dx2y2   :     0.000027
      dxy     :     0.000107
 20 H s       :     0.002297  s :     0.002297
      pz      :     0.000836  p :     0.004909
      px      :     0.000921
      py      :     0.003152
 21 O s       :     0.000925  s :     0.000925
      pz      :     0.003691  p :     0.006285
      px      :    -0.001035
      py      :     0.003629
      dz2     :     0.000008  d :     0.000015
      dxz     :     0.000012
      dyz     :    -0.000005
      dx2y2   :    -0.000001
      dxy     :    -0.000000
 22 C s       :     0.000761  s :     0.000761
      pz      :     0.000865  p :     0.001895
      px      :     0.000251
      py      :     0.000779
      dz2     :    -0.000017  d :     0.000087
      dxz     :     0.000004
      dyz     :     0.000002
      dx2y2   :     0.000090
      dxy     :     0.000009
 23 H s       :    -0.000110  s :    -0.000110
      pz      :     0.000010  p :     0.000056
      px      :     0.000010
      py      :     0.000037
 24 H s       :    -0.000029  s :    -0.000029
      pz      :     0.000044  p :     0.000037
      px      :     0.000001
      py      :    -0.000009
 25 H s       :     0.000393  s :     0.000393
      pz      :     0.000034  p :     0.000090
      px      :     0.000012
      py      :     0.000044
 26 C s       :    -0.000034  s :    -0.000034
      pz      :     0.000009  p :    -0.000585
      px      :    -0.000177
      py      :    -0.000418
      dz2     :     0.000011  d :     0.000843
      dxz     :     0.000120
      dyz     :     0.000073
      dx2y2   :     0.000117
      dxy     :     0.000522
 27 H s       :     0.000912  s :     0.000912
      pz      :     0.000008  p :     0.000014
      px      :     0.000002
      py      :     0.000004
 28 H s       :     0.000046  s :     0.000046
      pz      :    -0.000009  p :    -0.000028
      px      :    -0.000008
      py      :    -0.000011
 29 H s       :     0.000080  s :     0.000080
      pz      :    -0.000003  p :    -0.000024
      px      :    -0.000007
      py      :    -0.000014
 30 H s       :     0.001116  s :     0.001116
      pz      :    -0.000165  p :    -0.000811
      px      :    -0.000370
      py      :    -0.000275
 31 H s       :    -0.016611  s :    -0.016611
      pz      :     0.006552  p :     0.026289
      px      :     0.000774
      py      :     0.018963


                      *****************************
                      * MAYER POPULATION ANALYSIS *
                      *****************************

  NA   - Mulliken gross atomic population
  ZA   - Total nuclear charge
  QA   - Mulliken gross atomic charge
  VA   - Mayer's total valence
  BVA  - Mayer's bonded valence
  FA   - Mayer's free valence

  ATOM       NA         ZA         QA         VA         BVA        FA
  0 N      7.1305     7.0000    -0.1305     3.2730     3.2721     0.0009
  1 C      6.1145     6.0000    -0.1145     4.0784     4.0769     0.0015
  2 C      5.9367     6.0000     0.0633     3.9979     3.9973     0.0006
  3 O      8.3354     8.0000    -0.3354     2.1064     2.1063     0.0001
  4 C      6.1362     6.0000    -0.1362     3.8774     3.1426     0.7348
  5 C      6.2217     6.0000    -0.2217     3.9461     3.9438     0.0023
  6 C      6.2854     6.0000    -0.2854     3.9402     3.9400     0.0002
  7 C      6.2906     6.0000    -0.2906     3.9163     3.9162     0.0000
  8 N      7.4562     7.0000    -0.4562     2.9685     2.9685     0.0000
  9 H      0.8516     1.0000     0.1484     0.9695     0.9693     0.0002
 10 H      0.8448     1.0000     0.1552     0.9653     0.9624     0.0029
 11 H      0.8556     1.0000     0.1444     0.9693     0.9693     0.0000
 12 H      0.8396     1.0000     0.1604     0.9666     0.9666     0.0000
 13 H      0.8430     1.0000     0.1570     0.9543     0.9543     0.0000
 14 H      0.8650     1.0000     0.1350     0.9476     0.9476     0.0000
 15 H      0.7892     1.0000     0.2108     0.9587     0.9587     0.0000
 16 H      0.7895     1.0000     0.2105     0.9596     0.9596     0.0000
 17 H      0.7505     1.0000     0.2495     0.9737     0.9737     0.0000
 18 C      5.8219     6.0000     0.1781     3.9593     3.9593    -0.0000
 19 N      7.0879     7.0000    -0.0879     3.1907     3.1903     0.0004
 20 H      0.7611     1.0000     0.2389     0.9642     0.9642     0.0000
 21 O      8.3191     8.0000    -0.3191     2.1268     2.1266     0.0002
 22 C      6.5517     6.0000    -0.5517     3.8595     3.8595     0.0000
 23 H      0.8144     1.0000     0.1856     0.9592     0.9592     0.0000
 24 H      0.8503     1.0000     0.1497     0.9710     0.9710     0.0000
 25 H      0.8166     1.0000     0.1834     0.9598     0.9598     0.0000
 26 C      6.4431     6.0000    -0.4431     3.9240     3.9240     0.0000
 27 H      0.8085     1.0000     0.1915     0.9563     0.9563     0.0000
 28 H      0.8494     1.0000     0.1506     0.9644     0.9644     0.0000
 29 H      0.8289     1.0000     0.1711     0.9526     0.9526     0.0000
 30 H      0.8260     1.0000     0.1740     0.9442     0.9441     0.0000
 31 H      0.8848     1.0000     0.1152     0.9722     0.9692     0.0030

  Mayer bond orders larger than 0.100000
B(  0-N ,  1-C ) :   1.0305 B(  0-N , 17-H ) :   0.8878 B(  0-N , 18-C ) :   1.2048 
B(  1-C ,  2-C ) :   0.8732 B(  1-C ,  4-C ) :   0.9814 B(  1-C , 21-O ) :   0.1160 
B(  1-C , 30-H ) :   0.9584 B(  2-C ,  3-O ) :   1.8361 B(  2-C , 19-N ) :   1.2076 
B(  4-C ,  5-C ) :   1.0127 B(  4-C , 31-H ) :   0.9821 B(  5-C ,  6-C ) :   0.9603 
B(  5-C ,  9-H ) :   0.9625 B(  5-C , 10-H ) :   0.9429 B(  6-C ,  7-C ) :   0.9639 
B(  6-C , 11-H ) :   0.9761 B(  6-C , 12-H ) :   0.9681 B(  7-C ,  8-N ) :   1.0229 
B(  7-C , 13-H ) :   0.9590 B(  7-C , 14-H ) :   0.9410 B(  8-N , 15-H ) :   0.9440 
B(  8-N , 16-H ) :   0.9470 B( 18-C , 21-O ) :   1.8646 B( 18-C , 22-C ) :   0.8882 
B( 19-N , 20-H ) :   0.9174 B( 19-N , 26-C ) :   0.9608 B( 22-C , 23-H ) :   0.9592 
B( 22-C , 24-H ) :   0.9762 B( 22-C , 25-H ) :   0.9603 B( 26-C , 27-H ) :   0.9509 
B( 26-C , 28-H ) :   0.9668 B( 26-C , 29-H ) :   0.9529 

-------
TIMINGS
-------

Total SCF time: 0 days 0 hours 0 min 13 sec 

Total time                  ....      13.964 sec
Sum of individual times     ....      13.222 sec  ( 94.7%)

Fock matrix formation       ....      11.308 sec  ( 81.0%)
  Split-RI-J                ....       0.944 sec  (  8.3% of F)
  Chain of spheres X        ....       8.002 sec  ( 70.8% of F)
  XC integration            ....       2.162 sec  ( 19.1% of F)
    Basis function eval.    ....       0.224 sec  ( 10.4% of XC)
    Density eval.           ....       0.316 sec  ( 14.6% of XC)
    XC-Functional eval.     ....       0.051 sec  (  2.4% of XC)
    XC-Potential eval.      ....       0.231 sec  ( 10.7% of XC)
Diagonalization             ....       0.353 sec  (  2.5%)
Density matrix formation    ....       0.018 sec  (  0.1%)
Population analysis         ....       0.066 sec  (  0.5%)
Initial guess               ....       0.056 sec  (  0.4%)
Orbital Transformation      ....       0.000 sec  (  0.0%)
Orbital Orthonormalization  ....       0.040 sec  (  0.3%)
DIIS solution               ....       0.162 sec  (  1.2%)
Grid generation             ....       1.258 sec  (  9.0%)

Maximum memory used throughout the entire SCF-calculation: 83.8 MB

-------------------------   --------------------
FINAL SINGLE POINT ENERGY      -668.218283525464
-------------------------   --------------------

                                *** OPTIMIZATION RUN DONE ***

                            ***************************************
                            *     ORCA property calculations      *
                            ***************************************

                                    ---------------------
                                    Active property flags
                                    ---------------------
   (+) Dipole Moment


------------------------------------------------------------------------------
                       ORCA ELECTRIC PROPERTIES CALCULATION
------------------------------------------------------------------------------

Dipole Moment Calculation                       ... on
Quadrupole Moment Calculation                   ... off
Polarizability Calculation                      ... off
GBWName                                         ... opt.gbw
Electron density                                ... opt.scfp
The origin for moment calculation is the CENTER OF MASS  = (-0.768698, -0.217504  0.255959)

-------------
DIPOLE MOMENT
-------------
                                X             Y             Z
Electronic contribution:    -11.23524       1.70040      -1.16878
Nuclear contribution   :     11.98288      -2.40357       1.25510
                        -----------------------------------------
Total Dipole Moment    :      0.74764      -0.70317       0.08632
                        -----------------------------------------
Magnitude (a.u.)       :      1.02998
Magnitude (Debye)      :      2.61801



--------------------
Rotational spectrum 
--------------------
 
Rotational constants in cm-1:     0.020475     0.013215     0.008907 
Rotational constants in MHz :   613.815919   396.187610   267.033479 

 Dipole components along the rotational axes: 
x,y,z [a.u.] :    -0.859631    -0.497123     0.273433 
x,y,z [Debye]:    -2.185009    -1.263585     0.695012 

 

Timings for individual modules:

Sum of individual times         ...      307.673 sec (=   5.128 min)
GTO integral calculation        ...       27.308 sec (=   0.455 min)   8.9 %
SCF iterations                  ...      205.994 sec (=   3.433 min)  67.0 %
SCF Gradient evaluation         ...       73.949 sec (=   1.232 min)  24.0 %
Geometry relaxation             ...        0.422 sec (=   0.007 min)   0.1 %
                             ****ORCA TERMINATED NORMALLY****
TOTAL RUN TIME: 0 days 0 hours 5 minutes 30 seconds 750 msec
