
                                 *****************
                                 * O   R   C   A *
                                 *****************

                                            #,                                       
                                            ###                                      
                                            ####                                     
                                            #####                                    
                                            ######                                   
                                           ########,                                 
                                     ,,################,,,,,                         
                               ,,#################################,,                 
                          ,,##########################################,,             
                       ,#########################################, ''#####,          
                    ,#############################################,,   '####,        
                  ,##################################################,,,,####,       
                ,###########''''           ''''###############################       
              ,#####''   ,,,,##########,,,,          '''####'''          '####       
            ,##' ,,,,###########################,,,                        '##       
           ' ,,###''''                  '''############,,,                           
         ,,##''                                '''############,,,,        ,,,,,,###''
      ,#''                                            '''#######################'''  
     '                                                          ''''####''''         
             ,#######,   #######,   ,#######,      ##                                
            ,#'     '#,  ##    ##  ,#'     '#,    #''#        ######   ,####,        
            ##       ##  ##   ,#'  ##            #'  '#       #        #'  '#        
            ##       ##  #######   ##           ,######,      #####,   #    #        
            '#,     ,#'  ##    ##  '#,     ,#' ,#      #,         ##   #,  ,#        
             '#######'   ##     ##  '#######'  #'      '#     #####' # '####'        



                  #######################################################
                  #                        -***-                        #
                  #          Department of theory and spectroscopy      #
                  #    Directorship and core code : Frank Neese         #
                  #        Max Planck Institute fuer Kohlenforschung    #
                  #                Kaiser Wilhelm Platz 1               #
                  #                 D-45470 Muelheim/Ruhr               #
                  #                      Germany                        #
                  #                                                     #
                  #                  All rights reserved                #
                  #                        -***-                        #
                  #######################################################


                         Program Version 5.0.4 -  RELEASE  -


 With contributions from (in alphabetic order):
   Daniel Aravena         : Magnetic Suceptibility
   Michael Atanasov       : Ab Initio Ligand Field Theory (pilot matlab implementation)
   Alexander A. Auer      : GIAO ZORA, VPT2 properties, NMR spectrum
   Ute Becker             : Parallelization
   Giovanni Bistoni       : ED, misc. LED, open-shell LED, HFLD
   Martin Brehm           : Molecular dynamics
   Dmytro Bykov           : SCF Hessian
   Vijay G. Chilkuri      : MRCI spin determinant printing, contributions to CSF-ICE
   Dipayan Datta          : RHF DLPNO-CCSD density
   Achintya Kumar Dutta   : EOM-CC, STEOM-CC
   Dmitry Ganyushin       : Spin-Orbit,Spin-Spin,Magnetic field MRCI
   Miquel Garcia          : C-PCM and meta-GGA Hessian, CC/C-PCM, Gaussian charge scheme
   Yang Guo               : DLPNO-NEVPT2, F12-NEVPT2, CIM, IAO-localization
   Andreas Hansen         : Spin unrestricted coupled pair/coupled cluster methods
   Benjamin Helmich-Paris : MC-RPA, TRAH-SCF, COSX integrals
   Lee Huntington         : MR-EOM, pCC
   Robert Izsak           : Overlap fitted RIJCOSX, COSX-SCS-MP3, EOM
   Marcus Kettner         : VPT2
   Christian Kollmar      : KDIIS, OOCD, Brueckner-CCSD(T), CCSD density, CASPT2, CASPT2-K
   Simone Kossmann        : Meta GGA functionals, TD-DFT gradient, OOMP2, MP2 Hessian
   Martin Krupicka        : Initial AUTO-CI
   Lucas Lang             : DCDCAS
   Marvin Lechner         : AUTO-CI (C++ implementation), FIC-MRCC
   Dagmar Lenk            : GEPOL surface, SMD
   Dimitrios Liakos       : Extrapolation schemes; Compound Job, initial MDCI parallelization
   Dimitrios Manganas     : Further ROCIS development; embedding schemes
   Dimitrios Pantazis     : SARC Basis sets
   Anastasios Papadopoulos: AUTO-CI, single reference methods and gradients
   Taras Petrenko         : DFT Hessian,TD-DFT gradient, ASA, ECA, R-Raman, ABS, FL, XAS/XES, NRVS
   Peter Pinski           : DLPNO-MP2, DLPNO-MP2 Gradient
   Christoph Reimann      : Effective Core Potentials
   Marius Retegan         : Local ZFS, SOC
   Christoph Riplinger    : Optimizer, TS searches, QM/MM, DLPNO-CCSD(T), (RO)-DLPNO pert. Triples
   Tobias Risthaus        : Range-separated hybrids, TD-DFT gradient, RPA, STAB
   Michael Roemelt        : Original ROCIS implementation
   Masaaki Saitow         : Open-shell DLPNO-CCSD energy and density
   Barbara Sandhoefer     : DKH picture change effects
   Avijit Sen             : IP-ROCIS
   Kantharuban Sivalingam : CASSCF convergence, NEVPT2, FIC-MRCI
   Bernardo de Souza      : ESD, SOC TD-DFT
   Georgi Stoychev        : AutoAux, RI-MP2 NMR, DLPNO-MP2 response
   Willem Van den Heuvel  : Paramagnetic NMR
   Boris Wezisla          : Elementary symmetry handling
   Frank Wennmohs         : Technical directorship


 We gratefully acknowledge several colleagues who have allowed us to
 interface, adapt or use parts of their codes:
   Stefan Grimme, W. Hujo, H. Kruse, P. Pracht,  : VdW corrections, initial TS optimization,
                  C. Bannwarth, S. Ehlert          DFT functionals, gCP, sTDA/sTD-DF
   Ed Valeev, F. Pavosevic, A. Kumar             : LibInt (2-el integral package), F12 methods
   Garnet Chan, S. Sharma, J. Yang, R. Olivares  : DMRG
   Ulf Ekstrom                                   : XCFun DFT Library
   Mihaly Kallay                                 : mrcc  (arbitrary order and MRCC methods)
   Jiri Pittner, Ondrej Demel                    : Mk-CCSD
   Frank Weinhold                                : gennbo (NPA and NBO analysis)
   Christopher J. Cramer and Donald G. Truhlar   : smd solvation model
   Lars Goerigk                                  : TD-DFT with DH, B97 family of functionals
   V. Asgeirsson, H. Jonsson                     : NEB implementation
   FAccTs GmbH                                   : IRC, NEB, NEB-TS, DLPNO-Multilevel, CI-OPT
                                                   MM, QMMM, 2- and 3-layer-ONIOM, Crystal-QMMM,
                                                   LR-CPCM, SF, NACMEs, symmetry and pop. for TD-DFT,
                                                   nearIR, NL-DFT gradient (VV10), updates on ESD,
                                                   ML-optimized integration grids
   S Lehtola, MJT Oliveira, MAL Marques          : LibXC Library
   Liviu Ungur et al                             : ANISO software


 Your calculation uses the libint2 library for the computation of 2-el integrals
 For citations please refer to: http://libint.valeyev.net

 Your ORCA version has been built with support for libXC version: 5.1.0
 For citations please refer to: https://tddft.org/programs/libxc/

 This ORCA versions uses:
   CBLAS   interface :  Fast vector & matrix operations
   LAPACKE interface :  Fast linear algebra routines
   SCALAPACK package :  Parallel linear algebra routines
   Shared memory     :  Shared parallel matrices
   BLAS/LAPACK       :  OpenBLAS 0.3.15  USE64BITINT DYNAMIC_ARCH NO_AFFINITY Zen SINGLE_THREADED
        Core in use  :  Zen
   Copyright (c) 2011-2014, The OpenBLAS Project




***************************************
The coordinates will be read from file: opt.xyz
***************************************


================================================================================

----- Orbital basis set information -----
Your calculation utilizes the basis: EPR-II
   V. Barone, in Recent Advances in Density Functional Methods, Part 1 (ed. D. P. Chong), World Scientific, Singapore, 1995, p. 287.

----- AuxJ basis set information -----
Your calculation utilizes the AutoAux generation procedure.
  G. L. Stoychev, A. A. Auer, F. Neese, J. Chem. Theory Comput. 13, 554 (2017)

----- AuxC basis set information -----
Your calculation utilizes the AutoAux generation procedure.
  G. L. Stoychev, A. A. Auer, F. Neese, J. Chem. Theory Comput. 13, 554 (2017)

----- AuxJK basis set information -----
Your calculation utilizes the AutoAux generation procedure.
  G. L. Stoychev, A. A. Auer, F. Neese, J. Chem. Theory Comput. 13, 554 (2017)

================================================================================
                                        WARNINGS
                       Please study these warnings very carefully!
================================================================================


WARNING: your system is open-shell and RHF/RKS was chosen
  ===> : WILL SWITCH to UHF/UKS


INFO   : the flag for use of the SHARK integral package has been found!

================================================================================
                                       INPUT FILE
================================================================================
NAME = epr_info.inp
|  1> ! B3LYP EPR-II AUTOAUX
|  2> %pal nprocs 16 end
|  3> *XYZFile 0 2 opt.xyz
|  4> %EPRNMR
|  5>         GTENSOR   TRUE
|  6>         NUCLEI    = 1,9,10,11,12,13,14,15,16,29,30,31,32 {SHIFT, AISO, ADIP, AORB}
|  7>         ORI       GIAO
|  8> END
|  9> 
| 10>                          ****END OF INPUT****
================================================================================

                       ****************************
                       * Single Point Calculation *
                       ****************************

---------------------------------
CARTESIAN COORDINATES (ANGSTROEM)
---------------------------------
  N     -1.775606    0.710626    0.721610
  C     -1.501247   -0.164784   -0.403937
  C     -1.643328   -1.612529    0.105525
  O     -1.606619   -1.887255    1.307623
  C     -0.100491    0.081293   -1.030473
  C      1.057161   -0.186297   -0.113734
  C      2.457603    0.153953   -0.531047
  C      3.459883    0.164276    0.634630
  N      4.827007    0.407049    0.136695
  H      2.468021    1.134075   -1.033840
  H      2.827442   -0.564632   -1.283790
  H      3.448665   -0.819955    1.118027
  H      3.123753    0.897667    1.386638
  H      5.479647    0.398553    0.916215
  H      4.878086    1.343287   -0.258307
  H     -1.745618    0.273095    1.633200
  C     -2.156619    2.011599    0.558108
  N     -1.785011   -2.562577   -0.859268
  H     -1.817916   -2.274693   -1.824389
  O     -2.255790    2.535063   -0.553724
  C     -2.450462    2.783469    1.840696
  H     -1.770724    3.638401    1.894438
  H     -3.469788    3.174515    1.783252
  H     -2.343819    2.180815    2.746534
  C     -1.869930   -3.984736   -0.536561
  H     -2.720701   -4.180470    0.122022
  H     -1.996520   -4.547374   -1.463272
  H     -0.961338   -4.324385   -0.030712
  H     -2.250282    0.028568   -1.180868
  H     -0.018390   -0.533702   -1.945852
  H     -0.084071    1.121985   -1.380250
  H      0.906306   -0.807998    0.766890

----------------------------
CARTESIAN COORDINATES (A.U.)
----------------------------
  NO LB      ZA    FRAG     MASS         X           Y           Z
   0 N     7.0000    0    14.007   -3.355410    1.342889    1.363646
   1 C     6.0000    0    12.011   -2.836945   -0.311396   -0.763330
   2 C     6.0000    0    12.011   -3.105440   -3.047238    0.199413
   3 O     8.0000    0    15.999   -3.036069   -3.566394    2.471049
   4 C     6.0000    0    12.011   -0.189900    0.153622   -1.947312
   5 C     6.0000    0    12.011    1.997744   -0.352050   -0.214927
   6 C     6.0000    0    12.011    4.644196    0.290930   -1.003533
   7 C     6.0000    0    12.011    6.538231    0.310437    1.199277
   8 N     7.0000    0    14.007    9.121721    0.769210    0.258317
   9 H     1.0000    0     1.008    4.663884    2.143091   -1.953674
  10 H     1.0000    0     1.008    5.343090   -1.067000   -2.426012
  11 H     1.0000    0     1.008    6.517033   -1.549491    2.112764
  12 H     1.0000    0     1.008    5.903038    1.696346    2.620366
  13 H     1.0000    0     1.008   10.355033    0.753155    1.731395
  14 H     1.0000    0     1.008    9.218247    2.538445   -0.488129
  15 H     1.0000    0     1.008   -3.298739    0.516075    3.086301
  16 C     6.0000    0    12.011   -4.075420    3.801372    1.054670
  17 N     7.0000    0    14.007   -3.373181   -4.842568   -1.623781
  18 H     1.0000    0     1.008   -3.435364   -4.298547   -3.447595
  19 O     8.0000    0    15.999   -4.262825    4.790574   -1.046386
  20 C     6.0000    0    12.011   -4.630703    5.259995    3.478412
  21 H     1.0000    0     1.008   -3.346184    6.875581    3.579970
  22 H     1.0000    0     1.008   -6.556949    5.998964    3.369857
  23 H     1.0000    0     1.008   -4.429176    4.121142    5.190198
  24 C     6.0000    0    12.011   -3.533655   -7.530060   -1.013954
  25 H     1.0000    0     1.008   -5.141380   -7.899944    0.230587
  26 H     1.0000    0     1.008   -3.772876   -8.593292   -2.765183
  27 H     1.0000    0     1.008   -1.816666   -8.171903   -0.058038
  28 H     1.0000    0     1.008   -4.252417    0.053987   -2.231517
  29 H     1.0000    0     1.008   -0.034752   -1.008551   -3.677128
  30 H     1.0000    0     1.008   -0.158872    2.120244   -2.608295
  31 H     1.0000    0     1.008    1.712670   -1.526895    1.449213

--------------------------------
INTERNAL COORDINATES (ANGSTROEM)
--------------------------------
 N      0   0   0     0.000000000000     0.00000000     0.00000000
 C      1   0   0     1.452057898902     0.00000000     0.00000000
 C      2   1   0     1.541331878807   107.01628322     0.00000000
 O      3   2   1     1.233637722744   121.90509072   341.56605055
 C      2   1   3     1.554097655377   112.78914208   237.13325307
 C      5   2   1     1.500723557884   114.88373273    62.72693640
 C      6   5   2     1.500385796862   120.64194276   186.88228803
 C      7   6   5     1.537359628191   113.52514655   164.85336530
 N      8   7   6     1.475095195935   110.44965797   175.82379732
 H      7   6   5     1.101611181871   109.72702489    41.96453156
 H      7   6   5     1.104431186131   110.76783523   286.07368414
 H      8   7   6     1.096589914024   108.75650643    57.69059807
 H      8   7   6     1.102887870582   108.83072068   301.40136779
 H      9   8   7     1.016691860622   109.55724350   180.76422480
 H      9   8   7     1.017437169813   109.20974114    65.25109474
 H      1   2   3     1.011597231186   115.60434801    16.25614491
 C      1   2   3     1.365442956457   122.29751903   201.42471571
 N      3   2   1     1.361429377593   115.51944154   162.78592025
 H     18   3   2     1.007679464108   118.86626525   358.13313263
 O     17   1   2     1.232889834847   122.34164826   357.94665470
 C     17   1   2     1.525503421324   115.79548268   178.09072458
 H     21  17   1     1.093544448714   108.49128842   120.04662930
 H     21  17   1     1.093271207246   108.44507093   236.64770825
 H     21  17   1     1.093210136478   113.51191647   358.40983857
 C     18   3   2     1.460783100615   121.92963083   177.18612991
 H     25  18   3     1.093551558876   110.64195724    59.14212896
 H     25  18   3     1.091503249730   108.72484292   179.05689670
 H     25  18   3     1.093975953459   110.86274574   299.10969648
 H      2   1   3     1.096385681087   108.29334226   118.18021749
 H      5   2   1     1.105838417014   108.21445549   186.63752118
 H      5   2   1     1.098022048802   106.97629413   299.54056720
 H      6   5   2     1.088470906886   119.28485902    19.17025298

---------------------------
INTERNAL COORDINATES (A.U.)
---------------------------
 N      0   0   0     0.000000000000     0.00000000     0.00000000
 C      1   0   0     2.743991759521     0.00000000     0.00000000
 C      2   1   0     2.912695132428   107.01628322     0.00000000
 O      3   2   1     2.331237444460   121.90509072   341.56605055
 C      2   1   3     2.936818954032   112.78914208   237.13325307
 C      5   2   1     2.835956527125   114.88373273    62.72693640
 C      6   5   2     2.835318251294   120.64194276   186.88228803
 C      7   6   5     2.905188666628   113.52514655   164.85336530
 N      8   7   6     2.787525941780   110.44965797   175.82379732
 H      7   6   5     2.081743439801   109.72702489    41.96453156
 H      7   6   5     2.087072475549   110.76783523   286.07368414
 H      8   7   6     2.072254618725   108.75650643    57.69059807
 H      8   7   6     2.084156031824   108.83072068   301.40136779
 H      9   8   7     1.921269179163   109.55724350   180.76422480
 H      9   8   7     1.922677609418   109.20974114    65.25109474
 H      1   2   3     1.911641724775   115.60434801    16.25614491
 C      1   2   3     2.580313239195   122.29751903   201.42471571
 N      3   2   1     2.572728674326   115.51944154   162.78592025
 H     18   3   2     1.904238217940   118.86626525   358.13313263
 O     17   1   2     2.329824141156   122.34164826   357.94665470
 C     17   1   2     2.882783682661   115.79548268   178.09072458
 H     21  17   1     2.066499523339   108.49128842   120.04662930
 H     21  17   1     2.065983171797   108.44507093   236.64770825
 H     21  17   1     2.065867764770   113.51191647   358.40983857
 C     18   3   2     2.760480001222   121.92963083   177.18612991
 H     25  18   3     2.066512959599   110.64195724    59.14212896
 H     25  18   3     2.062642216275   108.72484292   179.05689670
 H     25  18   3     2.067314949133   110.86274574   299.10969648
 H      2   1   3     2.071868674408   108.29334226   118.18021749
 H      5   2   1     2.089731756525   108.21445549   186.63752118
 H      5   2   1     2.074960961242   106.97629413   299.54056720
 H      6   5   2     2.056911918755   119.28485902    19.17025298

---------------------
BASIS SET INFORMATION
---------------------
There are 4 groups of distinct atoms

 Group   1 Type N   : 10s5p1d contracted to 6s2p1d pattern {511111/41/1}
 Group   2 Type C   : 10s5p1d contracted to 6s2p1d pattern {511111/41/1}
 Group   3 Type O   : 10s5p1d contracted to 6s2p1d pattern {511111/41/1}
 Group   4 Type H   : 6s1p contracted to 4s1p pattern {3111/1}

Atom   0N    basis set group =>   1
Atom   1C    basis set group =>   2
Atom   2C    basis set group =>   2
Atom   3O    basis set group =>   3
Atom   4C    basis set group =>   2
Atom   5C    basis set group =>   2
Atom   6C    basis set group =>   2
Atom   7C    basis set group =>   2
Atom   8N    basis set group =>   1
Atom   9H    basis set group =>   4
Atom  10H    basis set group =>   4
Atom  11H    basis set group =>   4
Atom  12H    basis set group =>   4
Atom  13H    basis set group =>   4
Atom  14H    basis set group =>   4
Atom  15H    basis set group =>   4
Atom  16C    basis set group =>   2
Atom  17N    basis set group =>   1
Atom  18H    basis set group =>   4
Atom  19O    basis set group =>   3
Atom  20C    basis set group =>   2
Atom  21H    basis set group =>   4
Atom  22H    basis set group =>   4
Atom  23H    basis set group =>   4
Atom  24C    basis set group =>   2
Atom  25H    basis set group =>   4
Atom  26H    basis set group =>   4
Atom  27H    basis set group =>   4
Atom  28H    basis set group =>   4
Atom  29H    basis set group =>   4
Atom  30H    basis set group =>   4
Atom  31H    basis set group =>   4
---------------------------------
AUXILIARY/J BASIS SET INFORMATION
---------------------------------
There are 4 groups of distinct atoms

 Group   1 Type N   : 17s13p12d2f contracted to 17s13p12d2f pattern {11111111111111111/1111111111111/111111111111/11}
 Group   2 Type C   : 17s13p12d2f contracted to 17s13p12d2f pattern {11111111111111111/1111111111111/111111111111/11}
 Group   3 Type O   : 17s13p12d2f contracted to 17s13p12d2f pattern {11111111111111111/1111111111111/111111111111/11}
 Group   4 Type H   : 15s6p1d contracted to 15s6p1d pattern {111111111111111/111111/1}

Atom   0N    basis set group =>   1
Atom   1C    basis set group =>   2
Atom   2C    basis set group =>   2
Atom   3O    basis set group =>   3
Atom   4C    basis set group =>   2
Atom   5C    basis set group =>   2
Atom   6C    basis set group =>   2
Atom   7C    basis set group =>   2
Atom   8N    basis set group =>   1
Atom   9H    basis set group =>   4
Atom  10H    basis set group =>   4
Atom  11H    basis set group =>   4
Atom  12H    basis set group =>   4
Atom  13H    basis set group =>   4
Atom  14H    basis set group =>   4
Atom  15H    basis set group =>   4
Atom  16C    basis set group =>   2
Atom  17N    basis set group =>   1
Atom  18H    basis set group =>   4
Atom  19O    basis set group =>   3
Atom  20C    basis set group =>   2
Atom  21H    basis set group =>   4
Atom  22H    basis set group =>   4
Atom  23H    basis set group =>   4
Atom  24C    basis set group =>   2
Atom  25H    basis set group =>   4
Atom  26H    basis set group =>   4
Atom  27H    basis set group =>   4
Atom  28H    basis set group =>   4
Atom  29H    basis set group =>   4
Atom  30H    basis set group =>   4
Atom  31H    basis set group =>   4
---------------------------------
AUXILIARY/C BASIS SET INFORMATION
---------------------------------
There are 4 groups of distinct atoms

 Group   1 Type N   : 17s13p12d2f contracted to 17s13p12d2f pattern {11111111111111111/1111111111111/111111111111/11}
 Group   2 Type C   : 17s13p12d2f contracted to 17s13p12d2f pattern {11111111111111111/1111111111111/111111111111/11}
 Group   3 Type O   : 17s13p12d2f contracted to 17s13p12d2f pattern {11111111111111111/1111111111111/111111111111/11}
 Group   4 Type H   : 15s6p1d contracted to 15s6p1d pattern {111111111111111/111111/1}

Atom   0N    basis set group =>   1
Atom   1C    basis set group =>   2
Atom   2C    basis set group =>   2
Atom   3O    basis set group =>   3
Atom   4C    basis set group =>   2
Atom   5C    basis set group =>   2
Atom   6C    basis set group =>   2
Atom   7C    basis set group =>   2
Atom   8N    basis set group =>   1
Atom   9H    basis set group =>   4
Atom  10H    basis set group =>   4
Atom  11H    basis set group =>   4
Atom  12H    basis set group =>   4
Atom  13H    basis set group =>   4
Atom  14H    basis set group =>   4
Atom  15H    basis set group =>   4
Atom  16C    basis set group =>   2
Atom  17N    basis set group =>   1
Atom  18H    basis set group =>   4
Atom  19O    basis set group =>   3
Atom  20C    basis set group =>   2
Atom  21H    basis set group =>   4
Atom  22H    basis set group =>   4
Atom  23H    basis set group =>   4
Atom  24C    basis set group =>   2
Atom  25H    basis set group =>   4
Atom  26H    basis set group =>   4
Atom  27H    basis set group =>   4
Atom  28H    basis set group =>   4
Atom  29H    basis set group =>   4
Atom  30H    basis set group =>   4
Atom  31H    basis set group =>   4
----------------------------------
AUXILIARY/JK BASIS SET INFORMATION
----------------------------------
There are 4 groups of distinct atoms

 Group   1 Type N   : 17s13p12d2f contracted to 17s13p12d2f pattern {11111111111111111/1111111111111/111111111111/11}
 Group   2 Type C   : 17s13p12d2f contracted to 17s13p12d2f pattern {11111111111111111/1111111111111/111111111111/11}
 Group   3 Type O   : 17s13p12d2f contracted to 17s13p12d2f pattern {11111111111111111/1111111111111/111111111111/11}
 Group   4 Type H   : 15s6p1d contracted to 15s6p1d pattern {111111111111111/111111/1}

Atom   0N    basis set group =>   1
Atom   1C    basis set group =>   2
Atom   2C    basis set group =>   2
Atom   3O    basis set group =>   3
Atom   4C    basis set group =>   2
Atom   5C    basis set group =>   2
Atom   6C    basis set group =>   2
Atom   7C    basis set group =>   2
Atom   8N    basis set group =>   1
Atom   9H    basis set group =>   4
Atom  10H    basis set group =>   4
Atom  11H    basis set group =>   4
Atom  12H    basis set group =>   4
Atom  13H    basis set group =>   4
Atom  14H    basis set group =>   4
Atom  15H    basis set group =>   4
Atom  16C    basis set group =>   2
Atom  17N    basis set group =>   1
Atom  18H    basis set group =>   4
Atom  19O    basis set group =>   3
Atom  20C    basis set group =>   2
Atom  21H    basis set group =>   4
Atom  22H    basis set group =>   4
Atom  23H    basis set group =>   4
Atom  24C    basis set group =>   2
Atom  25H    basis set group =>   4
Atom  26H    basis set group =>   4
Atom  27H    basis set group =>   4
Atom  28H    basis set group =>   4
Atom  29H    basis set group =>   4
Atom  30H    basis set group =>   4
Atom  31H    basis set group =>   4


           ************************************************************
           *        Program running with 16 parallel MPI-processes    *
           *              working on a common directory               *
           ************************************************************
------------------------------------------------------------------------------
                           ORCA GTO INTEGRAL CALCULATION
                           -- RI-GTO INTEGRALS CHOSEN --
------------------------------------------------------------------------------
------------------------------------------------------------------------------
                   ___                                                        
                  /   \      - P O W E R E D   B Y -                         
                 /     \                                                     
                 |  |  |   _    _      __       _____    __    __             
                 |  |  |  | |  | |    /  \     |  _  \  |  |  /  |          
                  \  \/   | |  | |   /    \    | | | |  |  | /  /          
                 / \  \   | |__| |  /  /\  \   | |_| |  |  |/  /          
                |  |  |   |  __  | /  /__\  \  |    /   |      \           
                |  |  |   | |  | | |   __   |  |    \   |  |\   \          
                \     /   | |  | | |  |  |  |  | |\  \  |  | \   \       
                 \___/    |_|  |_| |__|  |__|  |_| \__\ |__|  \__/        
                                                                              
                      - O R C A' S   B I G   F R I E N D -                    
                                      &                                       
                       - I N T E G R A L  F E E D E R -                       
                                                                              
 v1 FN, 2020, v2 2021                                                         
------------------------------------------------------------------------------


Reading SHARK input file epr_info.SHARKINP.tmp ... ok
----------------------
SHARK INTEGRAL PACKAGE
----------------------

Number of atoms                             ...     32
Number of basis functions                   ...    364
Number of shells                            ...    216
Maximum angular momentum                    ...      2
Integral batch strategy                     ... SHARK/LIBINT Hybrid
RI-J (if used) integral strategy            ... SPLIT-RIJ (Revised 2003 algorithm where possible)
Printlevel                                  ...      1
Contraction scheme used                     ... SEGMENTED contraction
Coulomb Range Separation                    ... NOT USED
Exchange Range Separation                   ... NOT USED
Finite Nucleus Model                        ... NOT USED
Auxiliary Coulomb fitting basis             ... AVAILABLE
   # of basis functions in Aux-J            ...   2504
   # of shells in Aux-J                     ...   1012
   Maximum angular momentum in Aux-J        ...      3
Auxiliary J/K fitting basis                 ... AVAILABLE
   # of basis functions in Aux-JK           ...   2504
   # of shells in Aux-JK                    ...   1012
   Maximum angular momentum in Aux-JK       ...      3
Auxiliary Correlation fitting basis         ... AVAILABLE
   # of basis functions in Aux-C            ...   2504
   # of shells in Aux-C                     ...   1012
   Maximum angular momentum in Aux-C        ...      3
Auxiliary 'external' fitting basis          ... NOT available
Integral threshold                          ...     1.000000e-10
Primitive cut-off                           ...     1.000000e-11
Primitive pair pre-selection threshold      ...     1.000000e-11

Calculating pre-screening integrals         ... done (  0.0 sec) Dimension = 216
Organizing shell pair data                  ... done (  0.0 sec)
Shell pair information
Total number of shell pairs                 ...     23436
Shell pairs after pre-screening             ...     14900
Total number of primitive shell pairs       ...     61703
Primitive shell pairs kept                  ...     28425
          la=0 lb=0:   6988 shell pairs
          la=1 lb=0:   5090 shell pairs
          la=1 lb=1:    873 shell pairs
          la=2 lb=0:   1371 shell pairs
          la=2 lb=1:    499 shell pairs
          la=2 lb=2:     79 shell pairs

Calculating one electron integrals          ... done (  0.0 sec)
Calculating RI/J V-Matrix + Cholesky decomp.... done (  0.3 sec)
Calculating RI/JK V-Matrix + Cholesky decomp... done (  0.3 sec)
Calculating RI/C V-Matrix + Cholesky decomp.... done (  0.3 sec)
Calculating Nuclear repulsion               ... done (  0.0 sec) ENN=    914.636324623055 Eh

SHARK setup successfully completed in   1.1 seconds

Maximum memory used throughout the entire GTOINT-calculation: 27.9 MB


           ************************************************************
           *        Program running with 16 parallel MPI-processes    *
           *              working on a common directory               *
           ************************************************************
-------------------------------------------------------------------------------
                                 ORCA SCF
-------------------------------------------------------------------------------

------------
SCF SETTINGS
------------
Hamiltonian:
 Density Functional     Method          .... DFT(GTOs)
 Exchange Functional    Exchange        .... B88
   X-Alpha parameter    XAlpha          ....  0.666667
   Becke's b parameter  XBeta           ....  0.004200
 Correlation Functional Correlation     .... LYP
 LDA part of GGA corr.  LDAOpt          .... VWN-5
 Gradients option       PostSCFGGA      .... off
 Hybrid DFT is turned on
   Fraction HF Exchange ScalHFX         ....  0.200000
   Scaling of DF-GGA-X  ScalDFX         ....  0.720000
   Scaling of DF-GGA-C  ScalDFC         ....  0.810000
   Scaling of DF-LDA-C  ScalLDAC        ....  1.000000
   Perturbative correction              ....  0.000000
   Density functional embedding theory  .... OFF
   NL short-range parameter             ....  4.800000
 RI-approximation to the Coulomb term is turned on
   Number of AuxJ basis functions       .... 2504
   RIJ-COSX (HFX calculated with COS-X)).... on


General Settings:
 Integral files         IntName         .... epr_info
 Hartree-Fock type      HFTyp           .... UHF
 Total Charge           Charge          ....    0
 Multiplicity           Mult            ....    2
 Number of Electrons    NEL             ....  109
 Basis Dimension        Dim             ....  364
 Nuclear Repulsion      ENuc            ....    914.6363246231 Eh

Convergence Acceleration:
 DIIS                   CNVDIIS         .... on
   Start iteration      DIISMaxIt       ....    12
   Startup error        DIISStart       ....  0.200000
   # of expansion vecs  DIISMaxEq       ....     5
   Bias factor          DIISBfac        ....   1.050
   Max. coefficient     DIISMaxC        ....  10.000
 Trust-Rad. Augm. Hess. CNVTRAH         .... auto
   Auto Start mean grad. ratio tolernc. ....  1.125000
   Auto Start start iteration           ....    20
   Auto Start num. interpolation iter.  ....    10
   Max. Number of Micro iterations      ....    16
   Max. Number of Macro iterations      .... Maxiter - #DIIS iter
   Number of Davidson start vectors     ....     2
   Converg. threshold I  (grad. norm)   ....   5.000e-05
   Converg. threshold II (energy diff.) ....   1.000e-06
   Grad. Scal. Fac. for Micro threshold ....   0.100
   Minimum threshold for Micro iter.    ....   0.010
   NR start threshold (gradient norm)   ....   0.001
   Initial trust radius                 ....   0.400
   Minimum AH scaling param. (alpha)    ....   1.000
   Maximum AH scaling param. (alpha)    .... 1000.000
   Orbital update algorithm             .... Taylor
   White noise on init. David. guess    .... on
   Maximum white noise                  ....   0.010
   Quad. conv. algorithm                .... NR
 SOSCF                  CNVSOSCF        .... off
 Level Shifting         CNVShift        .... on
   Level shift para.    LevelShift      ....    0.2500
   Turn off err/grad.   ShiftErr        ....    0.0010
 Zerner damping         CNVZerner       .... off
 Static damping         CNVDamp         .... on
   Fraction old density DampFac         ....    0.7000
   Max. Damping (<1)    DampMax         ....    0.9800
   Min. Damping (>=0)   DampMin         ....    0.0000
   Turn off err/grad.   DampErr         ....    0.1000
 Fernandez-Rico         CNVRico         .... off

SCF Procedure:
 Maximum # iterations   MaxIter         ....   125
 SCF integral mode      SCFMode         .... Direct
   Integral package                     .... SHARK and LIBINT hybrid scheme
 Reset frequency        DirectResetFreq ....    20
 Integral Threshold     Thresh          ....  1.000e-10 Eh
 Primitive CutOff       TCut            ....  1.000e-11 Eh

Convergence Tolerance:
 Convergence Check Mode ConvCheckMode   .... Total+1el-Energy
 Convergence forced     ConvForced      .... 0
 Energy Change          TolE            ....  1.000e-06 Eh
 1-El. energy change                    ....  1.000e-03 Eh
 DIIS Error             TolErr          ....  1.000e-06


Diagonalization of the overlap matrix:
Smallest eigenvalue                        ... 9.725e-04
Time for diagonalization                   ...    0.013 sec
Threshold for overlap eigenvalues          ... 1.000e-08
Number of eigenvalues below threshold      ... 0
Time for construction of square roots      ...    0.010 sec
Total time needed                          ...    0.025 sec

Time for model grid setup =    0.105 sec

------------------------------
INITIAL GUESS: MODEL POTENTIAL
------------------------------
Loading Hartree-Fock densities                     ... done
Calculating cut-offs                               ... done
Initializing the effective Hamiltonian             ... done
Setting up the integral package (SHARK)            ... done
Starting the Coulomb interaction                   ... done (   0.0 sec)
Reading the grid                                   ... done
Mapping shells                                     ... done
Starting the XC term evaluation                    ... done (   0.0 sec)
  promolecular density results
     # of electrons  =    108.987677418
     EX              =    -87.712669421
     EC              =     -3.656086710
     EX+EC           =    -91.368756131
Transforming the Hamiltonian                       ... done (   0.0 sec)
Diagonalizing the Hamiltonian                      ... done (   0.0 sec)
Back transforming the eigenvectors                 ... done (   0.0 sec)
Now organizing SCF variables                       ... done
                      ------------------
                      INITIAL GUESS DONE (   0.3 sec)
                      ------------------
-------------------
DFT GRID GENERATION
-------------------

General Integration Accuracy     IntAcc      ... 4.388
Radial Grid Type                 RadialGrid  ... OptM3 with GC (2021)
Angular Grid (max. ang.)         AngularGrid ... 4 (Lebedev-302)
Angular grid pruning method      GridPruning ... 4 (adaptive)
Weight generation scheme         WeightScheme... Becke
Basis function cutoff            BFCut       ... 1.0000e-10
Integration weight cutoff        WCut        ... 1.0000e-14
Angular grids for H and He will be reduced by one unit
Partially contracted basis set               ... off
Rotationally invariant grid construction     ... off

Total number of grid points                  ...   141762
Total number of batches                      ...     2232
Average number of points per batch           ...       63
Average number of grid points per atom       ...     4430
Time for grid setup =    0.586 sec

--------------------
COSX GRID GENERATION
--------------------

GRIDX 1
-------
General Integration Accuracy     IntAcc      ... 3.816
Radial Grid Type                 RadialGrid  ... OptM3 with GC (2021)
Angular Grid (max. ang.)         AngularGrid ... 1 (Lebedev-50)
Angular grid pruning method      GridPruning ... 4 (adaptive)
Weight generation scheme         WeightScheme... Becke
Basis function cutoff            BFCut       ... 1.0000e-10
Integration weight cutoff        WCut        ... 1.0000e-14
Angular grids for H and He will be reduced by one unit
Partially contracted basis set               ... on
Rotationally invariant grid construction     ... off

Total number of grid points                  ...    18096
Total number of batches                      ...      304
Average number of points per batch           ...       59
Average number of grid points per atom       ...      566
UseSFitting                                  ... on

GRIDX 2
-------
General Integration Accuracy     IntAcc      ... 4.020
Radial Grid Type                 RadialGrid  ... OptM3 with GC (2021)
Angular Grid (max. ang.)         AngularGrid ... 2 (Lebedev-110)
Angular grid pruning method      GridPruning ... 4 (adaptive)
Weight generation scheme         WeightScheme... Becke
Basis function cutoff            BFCut       ... 1.0000e-10
Integration weight cutoff        WCut        ... 1.0000e-14
Angular grids for H and He will be reduced by one unit
Partially contracted basis set               ... on
Rotationally invariant grid construction     ... off

Total number of grid points                  ...    38380
Total number of batches                      ...      617
Average number of points per batch           ...       62
Average number of grid points per atom       ...     1199
UseSFitting                                  ... on

GRIDX 3
-------
General Integration Accuracy     IntAcc      ... 4.338
Radial Grid Type                 RadialGrid  ... OptM3 with GC (2021)
Angular Grid (max. ang.)         AngularGrid ... 3 (Lebedev-194)
Angular grid pruning method      GridPruning ... 4 (adaptive)
Weight generation scheme         WeightScheme... Becke
Basis function cutoff            BFCut       ... 1.0000e-10
Integration weight cutoff        WCut        ... 1.0000e-14
Angular grids for H and He will be reduced by one unit
Partially contracted basis set               ... on
Rotationally invariant grid construction     ... off

Total number of grid points                  ...    83628
Total number of batches                      ...     1323
Average number of points per batch           ...       63
Average number of grid points per atom       ...     2613
UseSFitting                                  ... on

Time for X-Grid setup             =    0.644 sec

--------------
SCF ITERATIONS
--------------
ITER       Energy         Delta-E        Max-DP      RMS-DP      [F,P]     Damp
               ***  Starting incremental Fock matrix formation  ***
  0   -667.6909324918   0.000000000000 0.06371503  0.00099285  0.1311910 0.7000
  1   -667.9437025283  -0.252770036423 0.05699838  0.00071849  0.0540238 0.7000
                               ***Turning on DIIS***
  2   -668.0342486502  -0.090546121953 0.08877407  0.00110769  0.0181733 0.0000
  3   -668.1824971316  -0.148248481383 0.05097453  0.00053847  0.0320925 0.0000
  4   -668.2152842458  -0.032787114257 0.01951900  0.00018929  0.0082983 0.0000
  5   -668.2171998295  -0.001915583656 0.00881751  0.00007541  0.0053497 0.0000
  6   -668.2175699773  -0.000370147832 0.00548867  0.00004763  0.0007181 0.0000
               *** Restarting incremental Fock matrix formation ***
                                   *** Resetting DIIS ***
  7   -668.2175837308  -0.000013753478 0.00173158  0.00002084  0.0006917 0.0000
  8   -668.2175706838   0.000013047013 0.00078049  0.00000780  0.0010391 0.0000
  9   -668.2175934202  -0.000022736401 0.00032085  0.00000498  0.0002744 0.0000
 10   -668.2175950918  -0.000001671632 0.00012531  0.00000147  0.0000784 0.0000
                 **** Energy Check signals convergence ****

               *****************************************************
               *                     SUCCESS                       *
               *           SCF CONVERGED AFTER  11 CYCLES          *
               *****************************************************

Old exchange energy                            =    -17.858469293 Eh
New exchange energy                            =    -17.858528322 Eh
Exchange energy change after final integration =     -0.000059029 Eh
Total energy after final integration           =   -668.217654230 Eh
Final COS-X integration done in                =     2.089 sec

----------------
TOTAL SCF ENERGY
----------------

Total Energy       :         -668.21765423 Eh          -18183.12678 eV

Components:
Nuclear Repulsion  :          914.63632462 Eh           24888.51970 eV
Electronic Energy  :        -1582.85397885 Eh          -43071.64648 eV
One Electron Energy:        -2723.31915977 Eh          -74105.28178 eV
Two Electron Energy:         1140.46518092 Eh           31033.63529 eV
Max COSX asymmetry :            0.00000147 Eh               0.00004 eV

Virial components:
Potential Energy   :        -1331.81760437 Eh          -36240.59945 eV
Kinetic Energy     :          663.59995014 Eh           18057.47267 eV
Virial Ratio       :            2.00695857


DFT components:
N(Alpha)           :       55.000043465829 electrons
N(Beta)            :       54.000063749936 electrons
N(Total)           :      109.000107215765 electrons
E(X)               :      -70.932519043522 Eh       
E(C)               :       -4.311508336933 Eh       
E(XC)              :      -75.244027380455 Eh       
DFET-embed. en.    :        0.000000000000 Eh       

---------------
SCF CONVERGENCE
---------------

  Last Energy change         ...   -1.0877e-07  Tolerance :   1.0000e-06
  Last MAX-Density change    ...    0.0000e+00  Tolerance :   1.0000e-05
  Last RMS-Density change    ...    0.0000e+00  Tolerance :   1.0000e-06
  Last DIIS Error            ...    8.9628e-05  Tolerance :   1.0000e-06

             **** THE GBW FILE WAS UPDATED (epr_info.gbw) ****
             **** DENSITY epr_info.scfp WAS UPDATED ****
             **** ENERGY FILE WAS UPDATED (epr_info.en.tmp) ****
----------------------
UHF SPIN CONTAMINATION
----------------------

Warning: in a DFT calculation there is little theoretical justification to 
         calculate <S**2> as in Hartree-Fock theory. We will do it anyways
         but you should keep in mind that the values have only limited relevance

Expectation value of <S**2>     :     0.754023
Ideal value S*(S+1) for S=0.5   :     0.750000
Deviation                       :     0.004023

             **** THE GBW FILE WAS UPDATED (epr_info.gbw) ****
             **** DENSITY epr_info.scfp WAS UPDATED ****
----------------
ORBITAL ENERGIES
----------------
                 SPIN UP ORBITALS
  NO   OCC          E(Eh)            E(eV) 
   0   1.0000     -19.122490      -520.3494 
   1   1.0000     -19.098733      -519.7030 
   2   1.0000     -14.372543      -391.0968 
   3   1.0000     -14.349599      -390.4724 
   4   1.0000     -14.307545      -389.3281 
   5   1.0000     -10.302717      -280.3512 
   6   1.0000     -10.287346      -279.9329 
   7   1.0000     -10.240549      -278.6595 
   8   1.0000     -10.227057      -278.2924 
   9   1.0000     -10.205454      -277.7045 
  10   1.0000     -10.195595      -277.4363 
  11   1.0000     -10.191232      -277.3175 
  12   1.0000     -10.185105      -277.1508 
  13   1.0000     -10.183367      -277.1035 
  14   1.0000      -1.045345       -28.4453 
  15   1.0000      -1.021040       -27.7839 
  16   1.0000      -0.931366       -25.3438 
  17   1.0000      -0.916613       -24.9423 
  18   1.0000      -0.875249       -23.8167 
  19   1.0000      -0.800485       -21.7823 
  20   1.0000      -0.760464       -20.6933 
  21   1.0000      -0.727126       -19.7861 
  22   1.0000      -0.714628       -19.4460 
  23   1.0000      -0.667292       -18.1579 
  24   1.0000      -0.615887       -16.7591 
  25   1.0000      -0.598709       -16.2917 
  26   1.0000      -0.584396       -15.9022 
  27   1.0000      -0.559449       -15.2234 
  28   1.0000      -0.537245       -14.6192 
  29   1.0000      -0.487556       -13.2671 
  30   1.0000      -0.478008       -13.0073 
  31   1.0000      -0.471320       -12.8253 
  32   1.0000      -0.470007       -12.7895 
  33   1.0000      -0.457607       -12.4521 
  34   1.0000      -0.455970       -12.4076 
  35   1.0000      -0.446144       -12.1402 
  36   1.0000      -0.430785       -11.7223 
  37   1.0000      -0.424925       -11.5628 
  38   1.0000      -0.422147       -11.4872 
  39   1.0000      -0.407781       -11.0963 
  40   1.0000      -0.400843       -10.9075 
  41   1.0000      -0.392173       -10.6716 
  42   1.0000      -0.387672       -10.5491 
  43   1.0000      -0.374882       -10.2011 
  44   1.0000      -0.370826       -10.0907 
  45   1.0000      -0.360778        -9.8173 
  46   1.0000      -0.357163        -9.7189 
  47   1.0000      -0.341375        -9.2893 
  48   1.0000      -0.329707        -8.9718 
  49   1.0000      -0.271291        -7.3822 
  50   1.0000      -0.269461        -7.3324 
  51   1.0000      -0.249228        -6.7818 
  52   1.0000      -0.245429        -6.6785 
  53   1.0000      -0.237433        -6.4609 
  54   1.0000      -0.185927        -5.0593 
  55   0.0000       0.004932         0.1342 
  56   0.0000       0.010994         0.2992 
  57   0.0000       0.024129         0.6566 
  58   0.0000       0.027648         0.7523 
  59   0.0000       0.032568         0.8862 
  60   0.0000       0.034905         0.9498 
  61   0.0000       0.044762         1.2180 
  62   0.0000       0.058698         1.5973 
  63   0.0000       0.064666         1.7596 
  64   0.0000       0.077444         2.1074 
  65   0.0000       0.090833         2.4717 
  66   0.0000       0.101129         2.7519 
  67   0.0000       0.116952         3.1824 
  68   0.0000       0.121154         3.2968 
  69   0.0000       0.145983         3.9724 
  70   0.0000       0.152794         4.1577 
  71   0.0000       0.160180         4.3587 
  72   0.0000       0.167692         4.5631 
  73   0.0000       0.173935         4.7330 
  74   0.0000       0.179161         4.8752 
  75   0.0000       0.185374         5.0443 
  76   0.0000       0.193245         5.2585 
  77   0.0000       0.195674         5.3246 
  78   0.0000       0.203093         5.5265 
  79   0.0000       0.208660         5.6779 
  80   0.0000       0.213689         5.8148 
  81   0.0000       0.217232         5.9112 
  82   0.0000       0.224781         6.1166 
  83   0.0000       0.227827         6.1995 
  84   0.0000       0.240566         6.5461 
  85   0.0000       0.242200         6.5906 
  86   0.0000       0.247011         6.7215 
  87   0.0000       0.251974         6.8566 
  88   0.0000       0.255881         6.9629 
  89   0.0000       0.258382         7.0309 
  90   0.0000       0.265483         7.2242 
  91   0.0000       0.271666         7.3924 
  92   0.0000       0.280648         7.6368 
  93   0.0000       0.281866         7.6700 
  94   0.0000       0.287713         7.8291 
  95   0.0000       0.290922         7.9164 
  96   0.0000       0.303685         8.2637 
  97   0.0000       0.308290         8.3890 
  98   0.0000       0.312868         8.5136 
  99   0.0000       0.314777         8.5655 
 100   0.0000       0.326098         8.8736 
 101   0.0000       0.330602         8.9961 
 102   0.0000       0.334575         9.1043 
 103   0.0000       0.347933         9.4677 
 104   0.0000       0.365899         9.9566 
 105   0.0000       0.369145        10.0449 
 106   0.0000       0.377634        10.2759 
 107   0.0000       0.385567        10.4918 
 108   0.0000       0.392584        10.6828 
 109   0.0000       0.395241        10.7550 
 110   0.0000       0.408513        11.1162 
 111   0.0000       0.418237        11.3808 
 112   0.0000       0.429402        11.6846 
 113   0.0000       0.446767        12.1571 
 114   0.0000       0.448612        12.2074 
 115   0.0000       0.466055        12.6820 
 116   0.0000       0.473947        12.8967 
 117   0.0000       0.492706        13.4072 
 118   0.0000       0.497822        13.5464 
 119   0.0000       0.507554        13.8112 
 120   0.0000       0.513545        13.9743 
 121   0.0000       0.527908        14.3651 
 122   0.0000       0.546147        14.8614 
 123   0.0000       0.551482        15.0066 
 124   0.0000       0.558566        15.1993 
 125   0.0000       0.569574        15.4989 
 126   0.0000       0.584404        15.9024 
 127   0.0000       0.608644        16.5620 
 128   0.0000       0.619914        16.8687 
 129   0.0000       0.625726        17.0269 
 130   0.0000       0.665839        18.1184 
 131   0.0000       0.669519        18.2185 
 132   0.0000       0.673769        18.3342 
 133   0.0000       0.694287        18.8925 
 134   0.0000       0.706743        19.2315 
 135   0.0000       0.741858        20.1870 
 136   0.0000       0.747683        20.3455 
 137   0.0000       0.763120        20.7655 
 138   0.0000       0.783098        21.3092 
 139   0.0000       0.794972        21.6323 
 140   0.0000       0.803070        21.8526 
 141   0.0000       0.813066        22.1247 
 142   0.0000       0.816960        22.2306 
 143   0.0000       0.825719        22.4690 
 144   0.0000       0.833457        22.6795 
 145   0.0000       0.843113        22.9423 
 146   0.0000       0.851345        23.1663 
 147   0.0000       0.861391        23.4396 
 148   0.0000       0.869667        23.6648 
 149   0.0000       0.877321        23.8731 
 150   0.0000       0.882965        24.0267 
 151   0.0000       0.894396        24.3377 
 152   0.0000       0.901091        24.5199 
 153   0.0000       0.913868        24.8676 
 154   0.0000       0.919051        25.0086 
 155   0.0000       0.923656        25.1339 
 156   0.0000       0.928633        25.2694 
 157   0.0000       0.930942        25.3322 
 158   0.0000       0.935474        25.4555 
 159   0.0000       0.945273        25.7222 
 160   0.0000       0.949266        25.8308 
 161   0.0000       0.951375        25.8882 
 162   0.0000       0.971571        26.4378 
 163   0.0000       0.982694        26.7405 
 164   0.0000       0.994075        27.0502 
 165   0.0000       1.002954        27.2918 
 166   0.0000       1.007697        27.4208 
 167   0.0000       1.031256        28.0619 
 168   0.0000       1.039305        28.2809 
 169   0.0000       1.051846        28.6222 
 170   0.0000       1.065835        29.0028 
 171   0.0000       1.073082        29.2001 
 172   0.0000       1.095877        29.8203 
 173   0.0000       1.135014        30.8853 
 174   0.0000       1.141372        31.0583 
 175   0.0000       1.149278        31.2734 
 176   0.0000       1.157429        31.4952 
 177   0.0000       1.171671        31.8828 
 178   0.0000       1.178142        32.0589 
 179   0.0000       1.191366        32.4187 
 180   0.0000       1.201515        32.6949 
 181   0.0000       1.213638        33.0248 
 182   0.0000       1.228307        33.4239 
 183   0.0000       1.244392        33.8616 
 184   0.0000       1.268697        34.5230 
 185   0.0000       1.294527        35.2259 
 186   0.0000       1.305479        35.5239 
 187   0.0000       1.331012        36.2187 
 188   0.0000       1.343627        36.5620 
 189   0.0000       1.351997        36.7897 
 190   0.0000       1.364154        37.1205 
 191   0.0000       1.382344        37.6155 
 192   0.0000       1.398624        38.0585 
 193   0.0000       1.401533        38.1377 
 194   0.0000       1.405149        38.2360 
 195   0.0000       1.413835        38.4724 
 196   0.0000       1.437602        39.1191 
 197   0.0000       1.466648        39.9095 
 198   0.0000       1.478446        40.2306 
 199   0.0000       1.488314        40.4991 
 200   0.0000       1.494197        40.6592 
 201   0.0000       1.503249        40.9055 
 202   0.0000       1.505860        40.9765 
 203   0.0000       1.529051        41.6076 
 204   0.0000       1.537066        41.8257 
 205   0.0000       1.556230        42.3472 
 206   0.0000       1.559994        42.4496 
 207   0.0000       1.571777        42.7702 
 208   0.0000       1.582343        43.0577 
 209   0.0000       1.589912        43.2637 
 210   0.0000       1.614887        43.9433 
 211   0.0000       1.619990        44.0822 
 212   0.0000       1.626187        44.2508 
 213   0.0000       1.627761        44.2936 
 214   0.0000       1.639916        44.6244 
 215   0.0000       1.656190        45.0672 
 216   0.0000       1.670909        45.4677 
 217   0.0000       1.679334        45.6970 
 218   0.0000       1.687071        45.9075 
 219   0.0000       1.693143        46.0728 
 220   0.0000       1.702890        46.3380 
 221   0.0000       1.719339        46.7856 
 222   0.0000       1.727451        47.0063 
 223   0.0000       1.732057        47.1317 
 224   0.0000       1.743982        47.4562 
 225   0.0000       1.748184        47.5705 
 226   0.0000       1.766854        48.0785 
 227   0.0000       1.777697        48.3736 
 228   0.0000       1.790350        48.7179 
 229   0.0000       1.807130        49.1745 
 230   0.0000       1.828175        49.7472 
 231   0.0000       1.839255        50.0487 
 232   0.0000       1.850288        50.3489 
 233   0.0000       1.866435        50.7883 
 234   0.0000       1.879880        51.1541 
 235   0.0000       1.899110        51.6774 
 236   0.0000       1.907006        51.8923 
 237   0.0000       1.924909        52.3794 
 238   0.0000       1.959966        53.3334 
 239   0.0000       1.978262        53.8312 
 240   0.0000       1.990305        54.1589 
 241   0.0000       2.008329        54.6494 
 242   0.0000       2.024652        55.0936 
 243   0.0000       2.050082        55.7856 
 244   0.0000       2.056569        55.9621 
 245   0.0000       2.074092        56.4389 
 246   0.0000       2.093722        56.9731 
 247   0.0000       2.104879        57.2767 
 248   0.0000       2.121623        57.7323 
 249   0.0000       2.134532        58.0836 
 250   0.0000       2.149958        58.5033 
 251   0.0000       2.159631        58.7665 
 252   0.0000       2.171104        59.0787 
 253   0.0000       2.190631        59.6101 
 254   0.0000       2.205090        60.0036 
 255   0.0000       2.230612        60.6981 
 256   0.0000       2.259529        61.4849 
 257   0.0000       2.268029        61.7162 
 258   0.0000       2.294004        62.4230 
 259   0.0000       2.311190        62.8907 
 260   0.0000       2.325895        63.2908 
 261   0.0000       2.334835        63.5341 
 262   0.0000       2.363256        64.3075 
 263   0.0000       2.386526        64.9407 
 264   0.0000       2.397071        65.2276 
 265   0.0000       2.402121        65.3650 
 266   0.0000       2.406430        65.4823 
 267   0.0000       2.414305        65.6966 
 268   0.0000       2.422931        65.9313 
 269   0.0000       2.430457        66.1361 
 270   0.0000       2.439513        66.3825 
 271   0.0000       2.455895        66.8283 
 272   0.0000       2.482919        67.5636 
 273   0.0000       2.486818        67.6698 
 274   0.0000       2.493100        67.8407 
 275   0.0000       2.498769        67.9950 
 276   0.0000       2.531902        68.8965 
 277   0.0000       2.548835        69.3573 
 278   0.0000       2.556793        69.5739 
 279   0.0000       2.598807        70.7171 
 280   0.0000       2.616595        71.2012 
 281   0.0000       2.629965        71.5650 
 282   0.0000       2.662036        72.4377 
 283   0.0000       2.687191        73.1222 
 284   0.0000       2.714629        73.8688 
 285   0.0000       2.733826        74.3912 
 286   0.0000       2.749890        74.8283 
 287   0.0000       2.751582        74.8744 
 288   0.0000       2.768534        75.3356 
 289   0.0000       2.776123        75.5421 
 290   0.0000       2.819824        76.7313 
 291   0.0000       2.904675        79.0402 
 292   0.0000       2.985088        81.2284 
 293   0.0000       3.028412        82.4073 
 294   0.0000       3.091237        84.1168 
 295   0.0000       3.112896        84.7062 
 296   0.0000       3.366000        91.5935 
 297   0.0000       3.419654        93.0535 
 298   0.0000       3.435687        93.4898 
 299   0.0000       3.442474        93.6745 
 300   0.0000       4.925716       134.0355 
 301   0.0000       4.972395       135.3057 
 302   0.0000       4.989235       135.7640 
 303   0.0000       4.990437       135.7967 
 304   0.0000       5.005408       136.2041 
 305   0.0000       5.017131       136.5231 
 306   0.0000       5.021715       136.6478 
 307   0.0000       5.036130       137.0401 
 308   0.0000       5.053207       137.5048 
 309   0.0000       5.080219       138.2398 
 310   0.0000       5.127665       139.5309 
 311   0.0000       5.151114       140.1689 
 312   0.0000       5.189423       141.2114 
 313   0.0000       5.193727       141.3285 
 314   0.0000       5.252366       142.9242 
 315   0.0000       5.269426       143.3884 
 316   0.0000       5.293750       144.0503 
 317   0.0000       5.307913       144.4357 
 318   0.0000       5.337851       145.2503 
 319   0.0000       5.355970       145.7434 
 320   0.0000       5.373064       146.2085 
 321   0.0000       5.474141       148.9590 
 322   0.0000       5.575246       151.7101 
 323   0.0000       5.641629       153.5165 
 324   0.0000       5.713281       155.4663 
 325   0.0000       5.740034       156.1943 
 326   0.0000       5.856086       159.3522 
 327   0.0000       7.208270       196.1470 
 328   0.0000       7.308612       198.8774 
 329   0.0000       7.332846       199.5369 
 330   0.0000       9.085023       247.2161 
 331   0.0000       9.109153       247.8727 
 332   0.0000      29.588050       805.1318 
 333   0.0000      29.631080       806.3027 
 334   0.0000      29.757733       809.7491 
 335   0.0000      29.894289       813.4650 
 336   0.0000      29.911238       813.9262 
 337   0.0000      30.049945       817.7006 
 338   0.0000      30.084624       818.6442 
 339   0.0000      30.154253       820.5389 
 340   0.0000      30.262629       823.4880 
 341   0.0000      36.544030       994.4136 
 342   0.0000      36.605562       996.0880 
 343   0.0000      36.611134       996.2396 
 344   0.0000      36.611862       996.2594 
 345   0.0000      36.625917       996.6419 
 346   0.0000      36.640303       997.0333 
 347   0.0000      36.643553       997.1218 
 348   0.0000      36.665467       997.7181 
 349   0.0000      36.696915       998.5738 
 350   0.0000      36.715459       999.0784 
 351   0.0000      36.733404       999.5667 
 352   0.0000      36.790318      1001.1155 
 353   0.0000      36.805047      1001.5163 
 354   0.0000      36.854501      1002.8620 
 355   0.0000      36.891380      1003.8655 
 356   0.0000      36.897571      1004.0340 
 357   0.0000      36.924962      1004.7793 
 358   0.0000      36.928763      1004.8827 
 359   0.0000      41.152257      1119.8098 
 360   0.0000      41.246725      1122.3804 
 361   0.0000      41.275148      1123.1539 
 362   0.0000      53.621400      1459.1125 
 363   0.0000      53.642893      1459.6973 

                 SPIN DOWN ORBITALS
  NO   OCC          E(Eh)            E(eV) 
   0   1.0000     -19.122446      -520.3482 
   1   1.0000     -19.098681      -519.7015 
   2   1.0000     -14.372523      -391.0962 
   3   1.0000     -14.349524      -390.4704 
   4   1.0000     -14.307489      -389.3266 
   5   1.0000     -10.302733      -280.3516 
   6   1.0000     -10.287353      -279.9331 
   7   1.0000     -10.240464      -278.6572 
   8   1.0000     -10.227056      -278.2923 
   9   1.0000     -10.205232      -277.6985 
  10   1.0000     -10.196495      -277.4607 
  11   1.0000     -10.185105      -277.1508 
  12   1.0000     -10.184224      -277.1268 
  13   1.0000     -10.177448      -276.9424 
  14   1.0000      -1.045277       -28.4434 
  15   1.0000      -1.020955       -27.7816 
  16   1.0000      -0.931315       -25.3424 
  17   1.0000      -0.916352       -24.9352 
  18   1.0000      -0.874806       -23.8047 
  19   1.0000      -0.792278       -21.5590 
  20   1.0000      -0.754469       -20.5301 
  21   1.0000      -0.727068       -19.7845 
  22   1.0000      -0.713547       -19.4166 
  23   1.0000      -0.663078       -18.0433 
  24   1.0000      -0.611037       -16.6272 
  25   1.0000      -0.598642       -16.2899 
  26   1.0000      -0.580319       -15.7913 
  27   1.0000      -0.548953       -14.9378 
  28   1.0000      -0.536244       -14.5920 
  29   1.0000      -0.486494       -13.2382 
  30   1.0000      -0.476411       -12.9638 
  31   1.0000      -0.470617       -12.8061 
  32   1.0000      -0.467445       -12.7198 
  33   1.0000      -0.455892       -12.4054 
  34   1.0000      -0.454785       -12.3753 
  35   1.0000      -0.445111       -12.1121 
  36   1.0000      -0.428348       -11.6559 
  37   1.0000      -0.423254       -11.5173 
  38   1.0000      -0.417195       -11.3524 
  39   1.0000      -0.407340       -11.0843 
  40   1.0000      -0.399469       -10.8701 
  41   1.0000      -0.390642       -10.6299 
  42   1.0000      -0.384783       -10.4705 
  43   1.0000      -0.372926       -10.1478 
  44   1.0000      -0.367436        -9.9985 
  45   1.0000      -0.357722        -9.7341 
  46   1.0000      -0.351462        -9.5638 
  47   1.0000      -0.339262        -9.2318 
  48   1.0000      -0.327448        -8.9103 
  49   1.0000      -0.271005        -7.3744 
  50   1.0000      -0.269195        -7.3252 
  51   1.0000      -0.248746        -6.7687 
  52   1.0000      -0.245163        -6.6712 
  53   1.0000      -0.236934        -6.4473 
  54   0.0000      -0.044064        -1.1990 
  55   0.0000       0.005322         0.1448 
  56   0.0000       0.011350         0.3088 
  57   0.0000       0.024352         0.6627 
  58   0.0000       0.029007         0.7893 
  59   0.0000       0.032798         0.8925 
  60   0.0000       0.035111         0.9554 
  61   0.0000       0.045327         1.2334 
  62   0.0000       0.060134         1.6363 
  63   0.0000       0.065007         1.7689 
  64   0.0000       0.077877         2.1191 
  65   0.0000       0.091421         2.4877 
  66   0.0000       0.101657         2.7662 
  67   0.0000       0.118434         3.2228 
  68   0.0000       0.123294         3.3550 
  69   0.0000       0.147920         4.0251 
  70   0.0000       0.153345         4.1727 
  71   0.0000       0.160624         4.3708 
  72   0.0000       0.168589         4.5875 
  73   0.0000       0.175364         4.7719 
  74   0.0000       0.179912         4.8956 
  75   0.0000       0.187597         5.1048 
  76   0.0000       0.194022         5.2796 
  77   0.0000       0.195984         5.3330 
  78   0.0000       0.203399         5.5348 
  79   0.0000       0.211142         5.7455 
  80   0.0000       0.217422         5.9163 
  81   0.0000       0.218103         5.9349 
  82   0.0000       0.226966         6.1760 
  83   0.0000       0.230018         6.2591 
  84   0.0000       0.241270         6.5653 
  85   0.0000       0.244604         6.6560 
  86   0.0000       0.248171         6.7531 
  87   0.0000       0.253884         6.9085 
  88   0.0000       0.257349         7.0028 
  89   0.0000       0.262610         7.1460 
  90   0.0000       0.268762         7.3134 
  91   0.0000       0.273108         7.4317 
  92   0.0000       0.281415         7.6577 
  93   0.0000       0.284943         7.7537 
  94   0.0000       0.289742         7.8843 
  95   0.0000       0.293784         7.9943 
  96   0.0000       0.304401         8.2832 
  97   0.0000       0.309344         8.4177 
  98   0.0000       0.316420         8.6102 
  99   0.0000       0.316538         8.6134 
 100   0.0000       0.328173         8.9300 
 101   0.0000       0.332865         9.0577 
 102   0.0000       0.336470         9.1558 
 103   0.0000       0.350120         9.5273 
 104   0.0000       0.368126        10.0172 
 105   0.0000       0.371447        10.1076 
 106   0.0000       0.381008        10.3677 
 107   0.0000       0.393182        10.6990 
 108   0.0000       0.394160        10.7256 
 109   0.0000       0.400576        10.9002 
 110   0.0000       0.410874        11.1805 
 111   0.0000       0.419567        11.4170 
 112   0.0000       0.431350        11.7376 
 113   0.0000       0.447856        12.1868 
 114   0.0000       0.448886        12.2148 
 115   0.0000       0.467190        12.7129 
 116   0.0000       0.478804        13.0289 
 117   0.0000       0.493818        13.4375 
 118   0.0000       0.501166        13.6374 
 119   0.0000       0.508977        13.8500 
 120   0.0000       0.521317        14.1858 
 121   0.0000       0.530178        14.4269 
 122   0.0000       0.547869        14.9083 
 123   0.0000       0.556748        15.1499 
 124   0.0000       0.563314        15.3286 
 125   0.0000       0.577178        15.7058 
 126   0.0000       0.585734        15.9386 
 127   0.0000       0.609818        16.5940 
 128   0.0000       0.621599        16.9146 
 129   0.0000       0.627548        17.0764 
 130   0.0000       0.666788        18.1442 
 131   0.0000       0.670407        18.2427 
 132   0.0000       0.674982        18.3672 
 133   0.0000       0.695249        18.9187 
 134   0.0000       0.710283        19.3278 
 135   0.0000       0.744570        20.2608 
 136   0.0000       0.748519        20.3682 
 137   0.0000       0.765404        20.8277 
 138   0.0000       0.784469        21.3465 
 139   0.0000       0.797882        21.7115 
 140   0.0000       0.807132        21.9632 
 141   0.0000       0.813336        22.1320 
 142   0.0000       0.818374        22.2691 
 143   0.0000       0.826590        22.4927 
 144   0.0000       0.834218        22.7002 
 145   0.0000       0.844576        22.9821 
 146   0.0000       0.854424        23.2501 
 147   0.0000       0.862876        23.4801 
 148   0.0000       0.870007        23.6741 
 149   0.0000       0.879382        23.9292 
 150   0.0000       0.885908        24.1068 
 151   0.0000       0.896908        24.4061 
 152   0.0000       0.904383        24.6095 
 153   0.0000       0.916096        24.9282 
 154   0.0000       0.919715        25.0267 
 155   0.0000       0.924270        25.1507 
 156   0.0000       0.929342        25.2887 
 157   0.0000       0.934039        25.4165 
 158   0.0000       0.938555        25.5394 
 159   0.0000       0.947614        25.7859 
 160   0.0000       0.952774        25.9263 
 161   0.0000       0.953454        25.9448 
 162   0.0000       0.973614        26.4934 
 163   0.0000       0.984548        26.7909 
 164   0.0000       0.996413        27.1138 
 165   0.0000       1.005486        27.3607 
 166   0.0000       1.009538        27.4709 
 167   0.0000       1.033225        28.1155 
 168   0.0000       1.040671        28.3181 
 169   0.0000       1.055611        28.7246 
 170   0.0000       1.068597        29.0780 
 171   0.0000       1.074830        29.2476 
 172   0.0000       1.097423        29.8624 
 173   0.0000       1.138785        30.9879 
 174   0.0000       1.144080        31.1320 
 175   0.0000       1.151618        31.3371 
 176   0.0000       1.160115        31.5683 
 177   0.0000       1.172465        31.9044 
 178   0.0000       1.179511        32.0961 
 179   0.0000       1.192987        32.4628 
 180   0.0000       1.202318        32.7167 
 181   0.0000       1.216275        33.0965 
 182   0.0000       1.230865        33.4935 
 183   0.0000       1.248376        33.9700 
 184   0.0000       1.273267        34.6474 
 185   0.0000       1.297781        35.3144 
 186   0.0000       1.317255        35.8443 
 187   0.0000       1.334083        36.3022 
 188   0.0000       1.345200        36.6048 
 189   0.0000       1.353293        36.8250 
 190   0.0000       1.366512        37.1847 
 191   0.0000       1.384070        37.6625 
 192   0.0000       1.401020        38.1237 
 193   0.0000       1.406082        38.2614 
 194   0.0000       1.410465        38.3807 
 195   0.0000       1.413848        38.4728 
 196   0.0000       1.441844        39.2346 
 197   0.0000       1.469846        39.9965 
 198   0.0000       1.483630        40.3716 
 199   0.0000       1.489170        40.5224 
 200   0.0000       1.494789        40.6753 
 201   0.0000       1.504171        40.9306 
 202   0.0000       1.508405        41.0458 
 203   0.0000       1.530370        41.6435 
 204   0.0000       1.538083        41.8534 
 205   0.0000       1.557668        42.3863 
 206   0.0000       1.561789        42.4984 
 207   0.0000       1.573159        42.8078 
 208   0.0000       1.583398        43.0865 
 209   0.0000       1.594402        43.3859 
 210   0.0000       1.619186        44.0603 
 211   0.0000       1.622999        44.1641 
 212   0.0000       1.627503        44.2866 
 213   0.0000       1.631762        44.4025 
 214   0.0000       1.642149        44.6851 
 215   0.0000       1.660008        45.1711 
 216   0.0000       1.672044        45.4986 
 217   0.0000       1.682180        45.7745 
 218   0.0000       1.690090        45.9897 
 219   0.0000       1.695562        46.1386 
 220   0.0000       1.705565        46.4108 
 221   0.0000       1.721441        46.8428 
 222   0.0000       1.729264        47.0557 
 223   0.0000       1.733104        47.1602 
 224   0.0000       1.747222        47.5443 
 225   0.0000       1.748942        47.5911 
 226   0.0000       1.770354        48.1738 
 227   0.0000       1.781354        48.4731 
 228   0.0000       1.792908        48.7875 
 229   0.0000       1.818195        49.4756 
 230   0.0000       1.829358        49.7794 
 231   0.0000       1.841983        50.1229 
 232   0.0000       1.855540        50.4918 
 233   0.0000       1.871414        50.9238 
 234   0.0000       1.882419        51.2232 
 235   0.0000       1.900473        51.7145 
 236   0.0000       1.909098        51.9492 
 237   0.0000       1.925815        52.4041 
 238   0.0000       1.961432        53.3733 
 239   0.0000       1.978897        53.8485 
 240   0.0000       1.991829        54.2004 
 241   0.0000       2.010353        54.7045 
 242   0.0000       2.027383        55.1679 
 243   0.0000       2.052655        55.8556 
 244   0.0000       2.057195        55.9791 
 245   0.0000       2.074766        56.4573 
 246   0.0000       2.095121        57.0111 
 247   0.0000       2.106791        57.3287 
 248   0.0000       2.123930        57.7951 
 249   0.0000       2.139872        58.2289 
 250   0.0000       2.150810        58.5265 
 251   0.0000       2.163940        58.8838 
 252   0.0000       2.175531        59.1992 
 253   0.0000       2.193965        59.7008 
 254   0.0000       2.207443        60.0676 
 255   0.0000       2.231838        60.7314 
 256   0.0000       2.260079        61.4999 
 257   0.0000       2.271811        61.8191 
 258   0.0000       2.295095        62.4527 
 259   0.0000       2.313930        62.9652 
 260   0.0000       2.329038        63.3763 
 261   0.0000       2.336254        63.5727 
 262   0.0000       2.366997        64.4093 
 263   0.0000       2.387824        64.9760 
 264   0.0000       2.397285        65.2334 
 265   0.0000       2.402856        65.3850 
 266   0.0000       2.407262        65.5049 
 267   0.0000       2.414599        65.7046 
 268   0.0000       2.423543        65.9480 
 269   0.0000       2.431942        66.1765 
 270   0.0000       2.441276        66.4305 
 271   0.0000       2.459357        66.9225 
 272   0.0000       2.486095        67.6501 
 273   0.0000       2.487922        67.6998 
 274   0.0000       2.495448        67.9046 
 275   0.0000       2.499203        68.0068 
 276   0.0000       2.533886        68.9506 
 277   0.0000       2.552011        69.4437 
 278   0.0000       2.558222        69.6128 
 279   0.0000       2.600869        70.7732 
 280   0.0000       2.616896        71.2094 
 281   0.0000       2.631097        71.5958 
 282   0.0000       2.663189        72.4691 
 283   0.0000       2.687879        73.1409 
 284   0.0000       2.715183        73.8839 
 285   0.0000       2.735424        74.4347 
 286   0.0000       2.750286        74.8391 
 287   0.0000       2.752037        74.8867 
 288   0.0000       2.769730        75.3682 
 289   0.0000       2.776299        75.5469 
 290   0.0000       2.820064        76.7378 
 291   0.0000       2.905140        79.0529 
 292   0.0000       2.985267        81.2332 
 293   0.0000       3.028499        82.4097 
 294   0.0000       3.091386        84.1209 
 295   0.0000       3.113021        84.7096 
 296   0.0000       3.366045        91.5947 
 297   0.0000       3.419702        93.0548 
 298   0.0000       3.435763        93.4919 
 299   0.0000       3.442536        93.6762 
 300   0.0000       4.925961       134.0422 
 301   0.0000       4.973073       135.3242 
 302   0.0000       4.989400       135.7685 
 303   0.0000       4.990539       135.7995 
 304   0.0000       5.012675       136.4018 
 305   0.0000       5.017631       136.5367 
 306   0.0000       5.024132       136.7136 
 307   0.0000       5.037754       137.0843 
 308   0.0000       5.061687       137.7355 
 309   0.0000       5.083349       138.3250 
 310   0.0000       5.128593       139.5561 
 311   0.0000       5.151737       140.1859 
 312   0.0000       5.193482       141.3218 
 313   0.0000       5.194855       141.3592 
 314   0.0000       5.252513       142.9281 
 315   0.0000       5.270564       143.4193 
 316   0.0000       5.295617       144.1011 
 317   0.0000       5.314901       144.6258 
 318   0.0000       5.342642       145.3807 
 319   0.0000       5.356436       145.7560 
 320   0.0000       5.378075       146.3449 
 321   0.0000       5.478045       149.0652 
 322   0.0000       5.577724       151.7776 
 323   0.0000       5.643301       153.5620 
 324   0.0000       5.713209       155.4643 
 325   0.0000       5.740369       156.2034 
 326   0.0000       5.863760       159.5610 
 327   0.0000       7.208438       196.1516 
 328   0.0000       7.308724       198.8805 
 329   0.0000       7.332948       199.5397 
 330   0.0000       9.085131       247.2190 
 331   0.0000       9.109249       247.8753 
 332   0.0000      29.591677       805.2305 
 333   0.0000      29.631594       806.3167 
 334   0.0000      29.763207       809.8980 
 335   0.0000      29.894533       813.4716 
 336   0.0000      29.915399       814.0394 
 337   0.0000      30.050697       817.7210 
 338   0.0000      30.084782       818.6485 
 339   0.0000      30.154244       820.5387 
 340   0.0000      30.266286       823.5875 
 341   0.0000      36.544166       994.4173 
 342   0.0000      36.605742       996.0929 
 343   0.0000      36.611204       996.2415 
 344   0.0000      36.611929       996.2612 
 345   0.0000      36.639659       997.0158 
 346   0.0000      36.640618       997.0419 
 347   0.0000      36.645781       997.1824 
 348   0.0000      36.675239       997.9840 
 349   0.0000      36.700220       998.6638 
 350   0.0000      36.716309       999.1016 
 351   0.0000      36.734035       999.5839 
 352   0.0000      36.785824      1000.9932 
 353   0.0000      36.806383      1001.5526 
 354   0.0000      36.856906      1002.9274 
 355   0.0000      36.894786      1003.9582 
 356   0.0000      36.905708      1004.2554 
 357   0.0000      36.925779      1004.8015 
 358   0.0000      36.937489      1005.1202 
 359   0.0000      41.152329      1119.8118 
 360   0.0000      41.246798      1122.3824 
 361   0.0000      41.275190      1123.1550 
 362   0.0000      53.621460      1459.1141 
 363   0.0000      53.642944      1459.6987 

                    ********************************
                    * MULLIKEN POPULATION ANALYSIS *
                    ********************************

--------------------------------------------
MULLIKEN ATOMIC CHARGES AND SPIN POPULATIONS
--------------------------------------------
   0 N :   -0.095850    0.004145
   1 C :   -0.151749    0.004433
   2 C :    0.103154    0.000806
   3 O :   -0.329735    0.001531
   4 C :   -0.273903   -0.060812
   5 C :   -0.082403    1.005666
   6 C :   -0.309143   -0.065126
   7 C :   -0.293078    0.010484
   8 N :   -0.458860    0.002078
   9 H :    0.143406    0.021060
  10 H :    0.170016    0.052269
  11 H :    0.157514   -0.000622
  12 H :    0.146729   -0.000848
  13 H :    0.209533   -0.000234
  14 H :    0.210273   -0.000016
  15 H :    0.250948    0.000125
  16 C :    0.172136   -0.001717
  17 N :   -0.110965    0.000419
  18 H :    0.235764    0.000548
  19 O :   -0.330582    0.001734
  20 C :   -0.554649    0.000407
  21 H :    0.184883    0.000020
  22 H :    0.186268   -0.000011
  23 H :    0.148918    0.000041
  24 C :   -0.439627    0.000013
  25 H :    0.184042   -0.000003
  26 H :    0.143387    0.000021
  27 H :    0.181889    0.000115
  28 H :    0.158243   -0.001480
  29 H :    0.126684    0.049762
  30 H :    0.185590    0.025971
  31 H :    0.131168   -0.050781
Sum of atomic charges         :    0.0000000
Sum of atomic spin populations:    1.0000000

-----------------------------------------------------
MULLIKEN REDUCED ORBITAL CHARGES AND SPIN POPULATIONS
-----------------------------------------------------
CHARGE
  0 N s       :     3.354199  s :     3.354199
      pz      :     1.092425  p :     3.707937
      px      :     1.587770
      py      :     1.027742
      dz2     :     0.009558  d :     0.033715
      dxz     :     0.002589
      dyz     :     0.011692
      dx2y2   :     0.005243
      dxy     :     0.004633
  1 C s       :     3.186830  s :     3.186830
      pz      :     0.975850  p :     2.859970
      px      :     1.003405
      py      :     0.880716
      dz2     :     0.014911  d :     0.104949
      dxz     :     0.030753
      dyz     :     0.022348
      dx2y2   :     0.023889
      dxy     :     0.013049
  2 C s       :     3.093195  s :     3.093195
      pz      :     0.852991  p :     2.610418
      px      :     0.811560
      py      :     0.945867
      dz2     :     0.042360  d :     0.193232
      dxz     :     0.046931
      dyz     :     0.076895
      dx2y2   :     0.013190
      dxy     :     0.013856
  3 O s       :     3.897097  s :     3.897097
      pz      :     1.233066  p :     4.414404
      px      :     1.443245
[...]
                -0.1276              -3.9350               0.1775
                 1.2080               0.1777              -3.5689

 A(FC)          -2.2604              -2.2604              -2.2604
 A(SD)           3.3009              -1.4451              -1.8558
 A(ORB+DIA)      0.0014               0.0003              -0.0006    A(PC) =   0.0004
 A(ORB)          0.0011               0.0001              -0.0009    A(PC) =   0.0001
 A(DIA)          0.0003               0.0002               0.0003    A(PC) =   0.0003
             ----------           ----------           ----------
 A(Tot)          1.0419              -3.7053              -4.1168    A(iso)=   -2.2601
 Orientation: 
  X           0.9673182           -0.1793997           -0.1791964
  Y          -0.0159286            0.6623181           -0.7490534
  Z           0.2530649            0.7274273            0.6378148

Notes:  (1) The A matrix conforms to the "SAI" spin Hamiltonian convention.
        (2) Tensor is right-handed.

 -----------------------------------------------------------
 Nucleus  29H : A:ISTP=    1 I=  0.5 P=533.5514 MHz/au**3
                Q:ISTP=    2 I=  1.0 Q=  0.0029 barn     
 -----------------------------------------------------------
 Solving for nuclear perturbation:
Forming RHS of the CP-SCF equations         ... 
Calc. nucleus orbit integrals (SHARK)       ... done

------------------------------------------------------------------------------
                           ORCA CP-SCF CALCULATION
------------------------------------------------------------------------------

Input orbitals are from        ... epr_info.gbw
Input Perturbation             ... epr_info.pin.tmp
Wavefunction output            ... epr_info.pout.tmp
Perturbation mode              ... Imaginary perturbation
Solver                         ... POPLE
Max. number of iterations      ... 64
Convergence tolerance          ... 1.000e-03
Integral handling              ... Direct
DFT GridXC                     ... 1
COSX GridX                     ... 1
COSX IntAccX                   ... 3.067
COSX Algorithm                 ... Auto
Number of perturbations        ... 3
Number of operators            ... 2
Orbital ranges used for CP-SCF:
 Operator 0:  Orbitals   0... 54  to  55...363
 Operator 1:  Orbitals   0... 53  to  54...363
Variables per perturbation     ... 33735
DFT calculation                         ... on
XC functional terms                     ... off
Hybrid DFT                              ... on
   Exchange mixing (SCF)                ...  0.200
   Exchange mixing (CP-SCF)             ...  0.200
   GGA exch. scaling(SCF)               ...  0.720
   GGA exch. scaling (CP-SCF)           ...  0.720
   GGA corr. scaling (SCF)              ...  0.810
   GGA corr. scaling (CP-SCF)           ...  0.810

CP-SCF GRID
-----------

General Integration Accuracy     IntAcc      ... 3.467
Radial Grid Type                 RadialGrid  ... OptM3 with GC (2021)
Angular Grid (max. ang.)         AngularGrid ... 1 (Lebedev-50)
Angular grid pruning method      GridPruning ... 4 (adaptive)
Weight generation scheme         WeightScheme... Becke
Basis function cutoff            BFCut       ... 1.0000e-10
Integration weight cutoff        WCut        ... 1.0000e-14
Angular grids for H and He will be reduced by one unit
Partially contracted basis set               ... off
Rotationally invariant grid construction     ... off

Total number of grid points                  ...    20001
Total number of batches                      ...      330
Average number of points per batch           ...       60
Average number of grid points per atom       ...      625

CP-SCF GRIDX
------------

General Integration Accuracy     IntAcc      ... 3.067
Radial Grid Type                 RadialGrid  ... OptM3 with GC (2021)
Angular Grid (max. ang.)         AngularGrid ... 1 (Lebedev-50)
Angular grid pruning method      GridPruning ... 4 (adaptive)
Weight generation scheme         WeightScheme... Becke
Basis function cutoff            BFCut       ... 1.0000e-10
Integration weight cutoff        WCut        ... 1.0000e-14
Angular grids for H and He will be reduced by one unit
Partially contracted basis set               ... on
Rotationally invariant grid construction     ... off

Total number of grid points                  ...     9438
Total number of batches                      ...      169
Average number of points per batch           ...       55
Average number of grid points per atom       ...      295

Memory available               ... 922.0 MB
Memory needed per perturbation ...   8.0 MB
Perturbations treated per batch... 3
Number of batches              ... 1
     CP-SCF ITERATION   0:   4.1460e-02 (   0.5 sec   0/  3 done)
     CP-SCF ITERATION   1:   1.0565e-03 (   0.5 sec   2/  3 done)
     CP-SCF ITERATION   2:   1.0240e-04 (   0.3 sec   3/  3 done)
                    *** THE CP-SCF HAS CONVERGED ***

Forming final perturbed densities           ... done
Transforming perturbed density to AO basis  ... done

 Raw HFC matrix (all values in MHz): 
 -----------------------------------
               117.1030              -0.1152               5.4529
                -0.1154             111.7138               0.7920
                 5.4537               0.7952             120.9820

 A(FC)         116.5983             116.5983             116.5983
 A(SD)          -5.0842              -3.1711               8.2553
 A(ORB+DIA)     -0.0006               0.0017               0.0026    A(PC) =   0.0013
 A(ORB)         -0.0009               0.0010               0.0019    A(PC) =   0.0007
 A(DIA)          0.0003               0.0007               0.0007    A(PC) =   0.0006
             ----------           ----------           ----------
 A(Tot)        111.5135             113.4290             124.8563    A(iso)=  116.5996
 Orientation: 
  X          -0.2222730            0.7878946            0.5742969
  Y          -0.9526035           -0.3009815            0.0442343
  Z           0.2077047           -0.5372451            0.8174512

Notes:  (1) The A matrix conforms to the "SAI" spin Hamiltonian convention.
        (2) Tensor is right-handed.

 -----------------------------------------------------------
 Nucleus  30H : A:ISTP=    1 I=  0.5 P=533.5514 MHz/au**3
                Q:ISTP=    2 I=  1.0 Q=  0.0029 barn     
 -----------------------------------------------------------
 Solving for nuclear perturbation:
Forming RHS of the CP-SCF equations         ... 
Calc. nucleus orbit integrals (SHARK)       ... done

------------------------------------------------------------------------------
                           ORCA CP-SCF CALCULATION
------------------------------------------------------------------------------

Input orbitals are from        ... epr_info.gbw
Input Perturbation             ... epr_info.pin.tmp
Wavefunction output            ... epr_info.pout.tmp
Perturbation mode              ... Imaginary perturbation
Solver                         ... POPLE
Max. number of iterations      ... 64
Convergence tolerance          ... 1.000e-03
Integral handling              ... Direct
DFT GridXC                     ... 1
COSX GridX                     ... 1
COSX IntAccX                   ... 3.067
COSX Algorithm                 ... Auto
Number of perturbations        ... 3
Number of operators            ... 2
Orbital ranges used for CP-SCF:
 Operator 0:  Orbitals   0... 54  to  55...363
 Operator 1:  Orbitals   0... 53  to  54...363
Variables per perturbation     ... 33735
DFT calculation                         ... on
XC functional terms                     ... off
Hybrid DFT                              ... on
   Exchange mixing (SCF)                ...  0.200
   Exchange mixing (CP-SCF)             ...  0.200
   GGA exch. scaling(SCF)               ...  0.720
   GGA exch. scaling (CP-SCF)           ...  0.720
   GGA corr. scaling (SCF)              ...  0.810
   GGA corr. scaling (CP-SCF)           ...  0.810

CP-SCF GRID
-----------

General Integration Accuracy     IntAcc      ... 3.467
Radial Grid Type                 RadialGrid  ... OptM3 with GC (2021)
Angular Grid (max. ang.)         AngularGrid ... 1 (Lebedev-50)
Angular grid pruning method      GridPruning ... 4 (adaptive)
Weight generation scheme         WeightScheme... Becke
Basis function cutoff            BFCut       ... 1.0000e-10
Integration weight cutoff        WCut        ... 1.0000e-14
Angular grids for H and He will be reduced by one unit
Partially contracted basis set               ... off
Rotationally invariant grid construction     ... off

Total number of grid points                  ...    20001
Total number of batches                      ...      330
Average number of points per batch           ...       60
Average number of grid points per atom       ...      625

CP-SCF GRIDX
------------

General Integration Accuracy     IntAcc      ... 3.067
Radial Grid Type                 RadialGrid  ... OptM3 with GC (2021)
Angular Grid (max. ang.)         AngularGrid ... 1 (Lebedev-50)
Angular grid pruning method      GridPruning ... 4 (adaptive)
Weight generation scheme         WeightScheme... Becke
Basis function cutoff            BFCut       ... 1.0000e-10
Integration weight cutoff        WCut        ... 1.0000e-14
Angular grids for H and He will be reduced by one unit
Partially contracted basis set               ... on
Rotationally invariant grid construction     ... off

Total number of grid points                  ...     9438
Total number of batches                      ...      169
Average number of points per batch           ...       55
Average number of grid points per atom       ...      295

Memory available               ... 921.6 MB
Memory needed per perturbation ...   8.0 MB
Perturbations treated per batch... 3
Number of batches              ... 1
     CP-SCF ITERATION   0:   4.1852e-02 (   0.5 sec   0/  3 done)
     CP-SCF ITERATION   1:   1.2303e-03 (   0.5 sec   1/  3 done)
     CP-SCF ITERATION   2:   1.0004e-04 (   0.4 sec   3/  3 done)
                    *** THE CP-SCF HAS CONVERGED ***

Forming final perturbed densities           ... done
Transforming perturbed density to AO basis  ... done

 Raw HFC matrix (all values in MHz): 
 -----------------------------------
                69.1080              -3.9804               4.8385
                -3.9818              68.3662              -4.7403
                 4.8408              -4.7422              70.5992

 A(FC)          69.3563              69.3563              69.3563
 A(SD)          -4.7717              -4.3917               9.1634
 A(ORB+DIA)      0.0003               0.0004               0.0039    A(PC) =   0.0015
 A(ORB)          0.0000              -0.0002               0.0030    A(PC) =   0.0009
 A(DIA)          0.0002               0.0007               0.0009    A(PC) =   0.0006
             ----------           ----------           ----------
 A(Tot)         64.5848              64.9650              78.5236    A(iso)=   69.3578
 Orientation: 
  X           0.2234597           -0.8019451            0.5540305
  Y           0.8448236           -0.1241448           -0.5204432
  Z           0.4861468            0.5843562            0.6497608

Notes:  (1) The A matrix conforms to the "SAI" spin Hamiltonian convention.
        (2) Tensor is right-handed.

 -----------------------------------------------------------
 Nucleus  31H : A:ISTP=    1 I=  0.5 P=533.5514 MHz/au**3
                Q:ISTP=    2 I=  1.0 Q=  0.0029 barn     
 -----------------------------------------------------------
 Solving for nuclear perturbation:
Forming RHS of the CP-SCF equations         ... 
Calc. nucleus orbit integrals (SHARK)       ... done

------------------------------------------------------------------------------
                           ORCA CP-SCF CALCULATION
------------------------------------------------------------------------------

Input orbitals are from        ... epr_info.gbw
Input Perturbation             ... epr_info.pin.tmp
Wavefunction output            ... epr_info.pout.tmp
Perturbation mode              ... Imaginary perturbation
Solver                         ... POPLE
Max. number of iterations      ... 64
Convergence tolerance          ... 1.000e-03
Integral handling              ... Direct
DFT GridXC                     ... 1
COSX GridX                     ... 1
COSX IntAccX                   ... 3.067
COSX Algorithm                 ... Auto
Number of perturbations        ... 3
Number of operators            ... 2
Orbital ranges used for CP-SCF:
 Operator 0:  Orbitals   0... 54  to  55...363
 Operator 1:  Orbitals   0... 53  to  54...363
Variables per perturbation     ... 33735
DFT calculation                         ... on
XC functional terms                     ... off
Hybrid DFT                              ... on
   Exchange mixing (SCF)                ...  0.200
   Exchange mixing (CP-SCF)             ...  0.200
   GGA exch. scaling(SCF)               ...  0.720
   GGA exch. scaling (CP-SCF)           ...  0.720
   GGA corr. scaling (SCF)              ...  0.810
   GGA corr. scaling (CP-SCF)           ...  0.810

CP-SCF GRID
-----------

General Integration Accuracy     IntAcc      ... 3.467
Radial Grid Type                 RadialGrid  ... OptM3 with GC (2021)
Angular Grid (max. ang.)         AngularGrid ... 1 (Lebedev-50)
Angular grid pruning method      GridPruning ... 4 (adaptive)
Weight generation scheme         WeightScheme... Becke
Basis function cutoff            BFCut       ... 1.0000e-10
Integration weight cutoff        WCut        ... 1.0000e-14
Angular grids for H and He will be reduced by one unit
Partially contracted basis set               ... off
Rotationally invariant grid construction     ... off

Total number of grid points                  ...    20001
Total number of batches                      ...      330
Average number of points per batch           ...       60
Average number of grid points per atom       ...      625

CP-SCF GRIDX
------------

General Integration Accuracy     IntAcc      ... 3.067
Radial Grid Type                 RadialGrid  ... OptM3 with GC (2021)
Angular Grid (max. ang.)         AngularGrid ... 1 (Lebedev-50)
Angular grid pruning method      GridPruning ... 4 (adaptive)
Weight generation scheme         WeightScheme... Becke
Basis function cutoff            BFCut       ... 1.0000e-10
Integration weight cutoff        WCut        ... 1.0000e-14
Angular grids for H and He will be reduced by one unit
Partially contracted basis set               ... on
Rotationally invariant grid construction     ... off

Total number of grid points                  ...     9438
Total number of batches                      ...      169
Average number of points per batch           ...       55
Average number of grid points per atom       ...      295

Memory available               ... 921.3 MB
Memory needed per perturbation ...   8.0 MB
Perturbations treated per batch... 3
Number of batches              ... 1
     CP-SCF ITERATION   0:   6.2413e-02 (   0.4 sec   0/  3 done)
     CP-SCF ITERATION   1:   2.1883e-03 (   0.5 sec   0/  3 done)
     CP-SCF ITERATION   2:   1.4034e-04 (   0.5 sec   3/  3 done)
                    *** THE CP-SCF HAS CONVERGED ***

Forming final perturbed densities           ... done
Transforming perturbed density to AO basis  ... done

 Raw HFC matrix (all values in MHz): 
 -----------------------------------
               -98.3102               1.8679             -11.1567
                 1.8661             -48.9488             -18.6245
               -11.1554             -18.6268             -38.8893

 A(FC)         -62.0632             -62.0632             -62.0632
 A(SD)          38.7686              -0.4169             -38.3516
 A(ORB+DIA)      0.0118              -0.0014               0.0308    A(PC) =   0.0137
 A(ORB)          0.0067               0.0007               0.0297    A(PC) =   0.0123
 A(DIA)          0.0051              -0.0020               0.0011    A(PC) =   0.0014
             ----------           ----------           ----------
 A(Tot)        -23.2828             -62.4815            -100.3840    A(iso)=  -62.0494
 Orientation: 
  X          -0.1332397           -0.1364041           -0.9816522
  Y          -0.5884217            0.8079050           -0.0323948
  Z           0.7975005            0.5733092           -0.1879081

Notes:  (1) The A matrix conforms to the "SAI" spin Hamiltonian convention.
        (2) Tensor is right-handed.


--------------------------------------------------------------------------------
----------------------------------------------------------------------------
                           ORCA EULER ANGLE PROGRAM
----------------------------------------------------------------------------

Only g-tensor available        -->  using g-tensor as reference tensor

Reference tensor               ...  g

g-tensor ordering              ...  |g_min> --> |gx>
                                    |g_mid> --> |gy>
                                    |g_max> --> |gz>

A- and EFG-tensor ordering     ...  the axes |Ax>, |Qx>, |Ay>, etc. are assigned
                                    such that the Euler rotation is minimal. You
                                    can find the respective eigenvalues as Ax,
                                    EFGx, Ay, etc. in the tables below.
                                    The relation of |Ax>, |Ay>,  etc. to Amin, Amid, etc.
                                    (as printed in the ORCA EPR/NMR CALCULATION Output)
                                    is obtained in the detailed printout.

Euler rotation around          ...  z - y - z
   First rotation              -->  by alpha around z
   Second rotation             -->  by beta around y'
   Third rotation              -->  by gamma around z''
   Positive / Negative angle   -->  clockwise / counterclockwise rotation

Plot EFG-tensors                    (-)
Plot HFC-tensors                    (-)
Detailed Printout                   (-)

-------------------------------------------------------------------------
          Euler rotation of hyperfine tensor to g-tensor
-------------------------------------------------------------------------

-------------------------------------------------------------------
 Atom  |   Alpha    Beta    Gamma   |   Ax       Ay       Az 
       |          [degrees]         |           [MHz]         
-------------------------------------------------------------------
  0N      -31.2     21.6     24.8      -3.70     6.55    -5.99
  8N      -86.8     17.3     46.1      -5.57   -12.91   -14.99
  9H      121.0     45.0   -141.1      44.03    57.89    44.81
 10H       58.2     22.6    -29.8     127.97   138.92   125.69
 11H     -106.3     39.2    115.8      -4.48     3.64    -4.71
 12H      -43.8     33.8      7.9      -4.21     4.62    -5.58
 13H      -32.2     39.7     16.5      -1.15     1.13    -1.52
 14H       25.9     20.7    -37.8      -0.66     2.59    -0.37
 15H       48.8     29.0    -21.6      -1.03     4.89    -0.70
 28H      -48.1     25.3     44.3      -3.71     1.04    -4.12
 29H      159.0     42.3   -125.4     111.51   113.43   124.86
 30H       87.1     29.4    -68.8      64.58    64.97    78.52
 31H      -70.6     14.7     68.6     -62.48  -100.38   -23.28
-------------------------------------------------------------------


Maximum memory used throughout the entire EPRNMR-calculation: 136.3 MB

Timings for individual modules:

Sum of individual times         ...      399.345 sec (=   6.656 min)
GTO integral calculation        ...        3.617 sec (=   0.060 min)   0.9 %
Spin-Orbit-Coupling Matrices    ...        4.793 sec (=   0.080 min)   1.2 %
SCF iterations                  ...       23.758 sec (=   0.396 min)   5.9 %
EPR/NMR calculation             ...      367.176 sec (=   6.120 min)  91.9 %
                             ****ORCA TERMINATED NORMALLY****
TOTAL RUN TIME: 0 days 0 hours 6 minutes 42 seconds 38 msec
