
                                 *****************
                                 * O   R   C   A *
                                 *****************

                                            #,                                       
                                            ###                                      
                                            ####                                     
                                            #####                                    
                                            ######                                   
                                           ########,                                 
                                     ,,################,,,,,                         
                               ,,#################################,,                 
                          ,,##########################################,,             
                       ,#########################################, ''#####,          
                    ,#############################################,,   '####,        
                  ,##################################################,,,,####,       
                ,###########''''           ''''###############################       
              ,#####''   ,,,,##########,,,,          '''####'''          '####       
            ,##' ,,,,###########################,,,                        '##       
           ' ,,###''''                  '''############,,,                           
         ,,##''                                '''############,,,,        ,,,,,,###''
      ,#''                                            '''#######################'''  
     '                                                          ''''####''''         
             ,#######,   #######,   ,#######,      ##                                
            ,#'     '#,  ##    ##  ,#'     '#,    #''#        ######   ,####,        
            ##       ##  ##   ,#'  ##            #'  '#       #        #'  '#        
            ##       ##  #######   ##           ,######,      #####,   #    #        
            '#,     ,#'  ##    ##  '#,     ,#' ,#      #,         ##   #,  ,#        
             '#######'   ##     ##  '#######'  #'      '#     #####' # '####'        



                  #######################################################
                  #                        -***-                        #
                  #          Department of theory and spectroscopy      #
                  #    Directorship and core code : Frank Neese         #
                  #        Max Planck Institute fuer Kohlenforschung    #
                  #                Kaiser Wilhelm Platz 1               #
                  #                 D-45470 Muelheim/Ruhr               #
                  #                      Germany                        #
                  #                                                     #
                  #                  All rights reserved                #
                  #                        -***-                        #
                  #######################################################


                         Program Version 5.0.4 -  RELEASE  -


 With contributions from (in alphabetic order):
   Daniel Aravena         : Magnetic Suceptibility
   Michael Atanasov       : Ab Initio Ligand Field Theory (pilot matlab implementation)
   Alexander A. Auer      : GIAO ZORA, VPT2 properties, NMR spectrum
   Ute Becker             : Parallelization
   Giovanni Bistoni       : ED, misc. LED, open-shell LED, HFLD
   Martin Brehm           : Molecular dynamics
   Dmytro Bykov           : SCF Hessian
   Vijay G. Chilkuri      : MRCI spin determinant printing, contributions to CSF-ICE
   Dipayan Datta          : RHF DLPNO-CCSD density
   Achintya Kumar Dutta   : EOM-CC, STEOM-CC
   Dmitry Ganyushin       : Spin-Orbit,Spin-Spin,Magnetic field MRCI
   Miquel Garcia          : C-PCM and meta-GGA Hessian, CC/C-PCM, Gaussian charge scheme
   Yang Guo               : DLPNO-NEVPT2, F12-NEVPT2, CIM, IAO-localization
   Andreas Hansen         : Spin unrestricted coupled pair/coupled cluster methods
   Benjamin Helmich-Paris : MC-RPA, TRAH-SCF, COSX integrals
   Lee Huntington         : MR-EOM, pCC
   Robert Izsak           : Overlap fitted RIJCOSX, COSX-SCS-MP3, EOM
   Marcus Kettner         : VPT2
   Christian Kollmar      : KDIIS, OOCD, Brueckner-CCSD(T), CCSD density, CASPT2, CASPT2-K
   Simone Kossmann        : Meta GGA functionals, TD-DFT gradient, OOMP2, MP2 Hessian
   Martin Krupicka        : Initial AUTO-CI
   Lucas Lang             : DCDCAS
   Marvin Lechner         : AUTO-CI (C++ implementation), FIC-MRCC
   Dagmar Lenk            : GEPOL surface, SMD
   Dimitrios Liakos       : Extrapolation schemes; Compound Job, initial MDCI parallelization
   Dimitrios Manganas     : Further ROCIS development; embedding schemes
   Dimitrios Pantazis     : SARC Basis sets
   Anastasios Papadopoulos: AUTO-CI, single reference methods and gradients
   Taras Petrenko         : DFT Hessian,TD-DFT gradient, ASA, ECA, R-Raman, ABS, FL, XAS/XES, NRVS
   Peter Pinski           : DLPNO-MP2, DLPNO-MP2 Gradient
   Christoph Reimann      : Effective Core Potentials
   Marius Retegan         : Local ZFS, SOC
   Christoph Riplinger    : Optimizer, TS searches, QM/MM, DLPNO-CCSD(T), (RO)-DLPNO pert. Triples
   Tobias Risthaus        : Range-separated hybrids, TD-DFT gradient, RPA, STAB
   Michael Roemelt        : Original ROCIS implementation
   Masaaki Saitow         : Open-shell DLPNO-CCSD energy and density
   Barbara Sandhoefer     : DKH picture change effects
   Avijit Sen             : IP-ROCIS
   Kantharuban Sivalingam : CASSCF convergence, NEVPT2, FIC-MRCI
   Bernardo de Souza      : ESD, SOC TD-DFT
   Georgi Stoychev        : AutoAux, RI-MP2 NMR, DLPNO-MP2 response
   Willem Van den Heuvel  : Paramagnetic NMR
   Boris Wezisla          : Elementary symmetry handling
   Frank Wennmohs         : Technical directorship


 We gratefully acknowledge several colleagues who have allowed us to
 interface, adapt or use parts of their codes:
   Stefan Grimme, W. Hujo, H. Kruse, P. Pracht,  : VdW corrections, initial TS optimization,
                  C. Bannwarth, S. Ehlert          DFT functionals, gCP, sTDA/sTD-DF
   Ed Valeev, F. Pavosevic, A. Kumar             : LibInt (2-el integral package), F12 methods
   Garnet Chan, S. Sharma, J. Yang, R. Olivares  : DMRG
   Ulf Ekstrom                                   : XCFun DFT Library
   Mihaly Kallay                                 : mrcc  (arbitrary order and MRCC methods)
   Jiri Pittner, Ondrej Demel                    : Mk-CCSD
   Frank Weinhold                                : gennbo (NPA and NBO analysis)
   Christopher J. Cramer and Donald G. Truhlar   : smd solvation model
   Lars Goerigk                                  : TD-DFT with DH, B97 family of functionals
   V. Asgeirsson, H. Jonsson                     : NEB implementation
   FAccTs GmbH                                   : IRC, NEB, NEB-TS, DLPNO-Multilevel, CI-OPT
                                                   MM, QMMM, 2- and 3-layer-ONIOM, Crystal-QMMM,
                                                   LR-CPCM, SF, NACMEs, symmetry and pop. for TD-DFT,
                                                   nearIR, NL-DFT gradient (VV10), updates on ESD,
                                                   ML-optimized integration grids
   S Lehtola, MJT Oliveira, MAL Marques          : LibXC Library
   Liviu Ungur et al                             : ANISO software


 Your calculation uses the libint2 library for the computation of 2-el integrals
 For citations please refer to: http://libint.valeyev.net

 Your ORCA version has been built with support for libXC version: 5.1.0
 For citations please refer to: https://tddft.org/programs/libxc/

 This ORCA versions uses:
   CBLAS   interface :  Fast vector & matrix operations
   LAPACKE interface :  Fast linear algebra routines
   SCALAPACK package :  Parallel linear algebra routines
   Shared memory     :  Shared parallel matrices
   BLAS/LAPACK       :  OpenBLAS 0.3.15  USE64BITINT DYNAMIC_ARCH NO_AFFINITY Zen SINGLE_THREADED
        Core in use  :  Zen
   Copyright (c) 2011-2014, The OpenBLAS Project




***************************************
The coordinates will be read from file: opt.xyz
***************************************


XCFun DFT library Copyright 2009-2010 Ulf Ekstrom and contributors.
See http://admol.org/xcfun for more information.
This is free software; see the source code for copying conditions.
There is ABSOLUTELY NO WARRANTY; not even for MERCHANTABILITY or FITNESS FOR A PARTICULAR PURPOSE.
For details see the documentation.
Scientific users of this library should cite U. Ekstrom, L. Visscher, R. Bast, A. J. Thorvaldsen and K. Ruud;
J.Chem.Theor.Comp. 2010, DOI: 10.1021/ct100117s
XCFun Version 0.99 

================================================================================

----- Orbital basis set information -----
Your calculation utilizes the basis: def2-TZVP
   F. Weigend and R. Ahlrichs, Phys. Chem. Chem. Phys. 7, 3297 (2005).

----- AuxJ basis set information -----
Your calculation utilizes the auxiliary basis: def2/J
   F. Weigend, Phys. Chem. Chem. Phys. 8, 1057 (2006).

================================================================================
                                        WARNINGS
                       Please study these warnings very carefully!
================================================================================


WARNING: your system is open-shell and RHF/RKS was chosen
  ===> : WILL SWITCH to UHF/UKS


WARNING: Geometry Optimization
  ===> : Switching off AutoStart
         For restart on a previous wavefunction, please use MOREAD

WARNING: Minnesota functionals are quite sensitive to the integration grid.
         see SE Wheeler, KN Houk, JCTC 2010, 6, 395,
             N Mardirossian, M Head-Gordon, JCTC 2016, 12, 4303.
         DEFGRID3 seems to be a minimum grid for reliable results with these functionals!
  ===> : Please increase the integration grid!


INFO   : the flag for use of the SHARK integral package has been found!

================================================================================
                                       INPUT FILE
================================================================================
NAME = freq.inp
|  1> ! M062X def2-TZVP OPT FREQ
|  2> %pal nprocs 16 end
|  3> *XYZFile 0 2 opt.xyz
|  4> 
|  5>                          ****END OF INPUT****
================================================================================

                       *****************************
                       * Geometry Optimization Run *
                       *****************************

Geometry optimization settings:
Update method            Update   .... BFGS
Choice of coordinates    CoordSys .... Z-matrix Internals
Initial Hessian          InHess   .... Almoef's Model

Convergence Tolerances:
Energy Change            TolE     ....  5.0000e-06 Eh
Max. Gradient            TolMAXG  ....  3.0000e-04 Eh/bohr
RMS Gradient             TolRMSG  ....  1.0000e-04 Eh/bohr
Max. Displacement        TolMAXD  ....  4.0000e-03 bohr
RMS Displacement         TolRMSD  ....  2.0000e-03 bohr
Strict Convergence                ....  False
------------------------------------------------------------------------------
                        ORCA OPTIMIZATION COORDINATE SETUP
------------------------------------------------------------------------------

The optimization will be done in new redundant internal coordinates
Making redundant internal coordinates   ...  (new redundants) done
Evaluating the initial hessian          ...  (Almloef) done
Evaluating the coordinates              ...  done
Calculating the B-matrix                .... done
Calculating the G-matrix                .... done
Diagonalizing the G-matrix              .... done
Small eigenvalue found = 5.975e-03
Small eigenvalue found = 6.698e-03
Small eigenvalue found = 1.006e-02
Small eigenvalue found = 2.324e-02
Small eigenvalue found = 2.877e-02
The first mode is                       ....   63
The number of degrees of freedom        ....   90

    -----------------------------------------------------------------
                    Redundant Internal Coordinates


    -----------------------------------------------------------------
         Definition                    Initial Value    Approx d2E/dq
    -----------------------------------------------------------------
      1. B(C   1,N   0)                  1.4521         0.445519   
      2. B(C   2,C   1)                  1.5413         0.358342   
      3. B(O   3,C   2)                  1.2336         0.993897   
      4. B(C   4,C   1)                  1.5541         0.341925   
      5. B(C   5,C   4)                  1.5007         0.415993   
      6. B(C   6,C   5)                  1.5004         0.416510   
      7. B(C   7,C   6)                  1.5374         0.363610   
      8. B(N   8,C   7)                  1.4751         0.409366   
      9. B(H   9,C   6)                  1.1016         0.345063   
     10. B(H  10,C   6)                  1.1044         0.341507   
     11. B(H  11,C   7)                  1.0966         0.351487   
     12. B(H  12,C   7)                  1.1029         0.343448   
     13. B(H  13,N   8)                  1.0167         0.422200   
     14. B(H  14,N   8)                  1.0174         0.421046   
     15. B(H  15,N   0)                  1.0116         0.430176   
     16. B(C  16,N   0)                  1.3654         0.612427   
     17. B(N  17,C   2)                  1.3614         0.621524   
     18. B(H  18,N  17)                  1.0077         0.436413   
     19. B(O  19,C  16)                  1.2329         0.996632   
     20. B(C  20,C  16)                  1.5255         0.379797   
     21. B(H  21,C  20)                  1.0935         0.355442   
     22. B(H  22,C  20)                  1.0933         0.355799   
     23. B(H  23,C  20)                  1.0932         0.355878   
     24. B(C  24,N  17)                  1.4608         0.431465   
     25. B(H  25,C  24)                  1.0936         0.355432   
     26. B(H  26,C  24)                  1.0915         0.358117   
     27. B(H  27,C  24)                  1.0940         0.354879   
     28. B(H  28,C   1)                  1.0964         0.351751   
     29. B(H  29,C   4)                  1.1058         0.339746   
     30. B(H  30,C   4)                  1.0980         0.349643   
     31. B(H  31,C   5)                  1.0885         0.362128   
     32. A(C   1,N   0,C  16)          122.2975         0.403074   
     33. A(C   1,N   0,H  15)          115.6043         0.338901   
     34. A(H  15,N   0,C  16)          121.8887         0.357563   
     35. A(N   0,C   1,H  28)          108.2933         0.330588   
     36. A(C   4,C   1,H  28)          107.5879         0.318429   
     37. A(N   0,C   1,C   2)          107.0163         0.369504   
     38. A(C   2,C   1,C   4)          111.4117         0.355387   
     39. A(C   2,C   1,H  28)          109.6878         0.320878   
     40. A(N   0,C   1,C   4)          112.7891         0.366542   
     41. A(O   3,C   2,N  17)          122.5637         0.466881   
     42. A(C   1,C   2,O   3)          121.9051         0.425366   
     43. A(C   1,C   2,N  17)          115.5194         0.391458   
     44. A(C   1,C   4,H  30)          106.9763         0.318117   
     45. A(C   1,C   4,H  29)          108.2145         0.316633   
     46. A(H  29,C   4,H  30)          105.2066         0.286874   
     47. A(C   5,C   4,H  29)          110.4397         0.326963   
     48. A(C   5,C   4,H  30)          110.6130         0.328514   
     49. A(C   1,C   4,C   5)          114.8837         0.364535   
     50. A(C   4,C   5,H  31)          119.2849         0.330424   
     51. A(C   6,C   5,H  31)          118.9414         0.330492   
     52. A(C   4,C   5,C   6)          120.6419         0.377120   
     53. A(C   5,C   6,C   7)          113.5251         0.368475   
     54. A(H   9,C   6,H  10)          105.3455         0.286516   
     55. A(C   7,C   6,H  10)          107.6281         0.320094   
     56. A(C   5,C   6,H  10)          110.7678         0.327308   
     57. A(C   7,C   6,H   9)          109.5074         0.320636   
     58. A(C   5,C   6,H   9)          109.7270         0.327868   
     59. A(N   8,C   7,H  11)          107.8184         0.325964   
     60. A(C   6,C   7,H  11)          108.7565         0.321605   
     61. A(H  11,C   7,H  12)          107.0465         0.287597   
     62. A(N   8,C   7,H  12)          113.7777         0.324726   
     63. A(C   6,C   7,N   8)          110.4497         0.365092   
     64. A(C   6,C   7,H  12)          108.8307         0.320390   
     65. A(H  13,N   8,H  14)          105.8505         0.300755   
     66. A(C   7,N   8,H  14)          109.2097         0.332972   
     67. A(C   7,N   8,H  13)          109.5572         0.333124   
     68. A(O  19,C  16,C  20)          121.8627         0.430034   
     69. A(N   0,C  16,C  20)          115.7955         0.394444   
     70. A(N   0,C  16,O  19)          122.3416         0.465856   
     71. A(C   2,N  17,H  18)          118.8663         0.359340   
     72. A(H  18,N  17,C  24)          119.1974         0.337904   
     73. A(C   2,N  17,C  24)          121.9296         0.401846   
     74. A(C  16,C  20,H  21)          108.4913         0.324505   
     75. A(H  22,C  20,H  23)          109.3703         0.289755   
     76. A(H  21,C  20,H  23)          109.2460         0.289709   
     77. A(C  16,C  20,H  23)          113.5119         0.324571   
     78. A(H  21,C  20,H  22)          107.6075         0.289699   
     79. A(C  16,C  20,H  22)          108.4451         0.324559   
     80. A(H  26,C  24,H  27)          109.2001         0.289922   
     81. A(H  25,C  24,H  27)          108.1862         0.289580   
     82. A(N  17,C  24,H  27)          110.8627         0.329322   
     83. A(H  25,C  24,H  26)          109.1974         0.289993   
     84. A(N  17,C  24,H  26)          108.7248         0.329817   
     85. A(N  17,C  24,H  25)          110.6420         0.329407   
     86. D(C   4,C   1,N   0,C  16)     78.5580         0.016929   
     87. D(H  28,C   1,N   0,H  15)    134.4364         0.016929   
     88. D(C   4,C   1,N   0,H  15)   -106.6106         0.016929   
     89. D(C   2,C   1,N   0,H  15)     16.2561         0.016929   
     90. D(C   2,C   1,N   0,C  16)   -158.5753         0.016929   
     91. D(H  28,C   1,N   0,C  16)    -40.3951         0.016929   
     92. D(O   3,C   2,C   1,N   0)    -18.4339         0.009663   
     93. D(O   3,C   2,C   1,C   4)    105.2846         0.009663   
     94. D(N  17,C   2,C   1,H  28)     45.5189         0.009663   
     95. D(N  17,C   2,C   1,C   4)    -73.4956         0.009663   
     96. D(O   3,C   2,C   1,H  28)   -135.7010         0.009663   
     97. D(N  17,C   2,C   1,N   0)    162.7859         0.009663   
     98. D(C   5,C   4,C   1,H  28)   -177.9106         0.009457   
     99. D(C   5,C   4,C   1,C   2)    -57.6512         0.009457   
    100. D(H  30,C   4,C   1,C   2)    179.1625         0.009457   
    101. D(H  30,C   4,C   1,N   0)    -60.4594         0.009457   
    102. D(H  29,C   4,C   1,H  28)    -54.0000         0.009457   
    103. D(H  30,C   4,C   1,H  28)     58.9030         0.009457   
    104. D(H  29,C   4,C   1,C   2)     66.2594         0.009457   
    105. D(H  29,C   4,C   1,N   0)   -173.3625         0.009457   
    106. D(C   5,C   4,C   1,N   0)     62.7269         0.009457   
    107. D(H  31,C   5,C   4,H  29)   -103.5529         0.012804   
    108. D(H  31,C   5,C   4,C   1)     19.1703         0.012804   
    109. D(C   6,C   5,C   4,H  30)    -51.8969         0.012804   
    110. D(C   6,C   5,C   4,H  29)     64.1592         0.012804   
    111. D(H  31,C   5,C   4,H  30)    140.3910         0.012804   
    112. D(C   6,C   5,C   4,C   1)   -173.1177         0.012804   
    113. D(H   9,C   6,C   5,C   4)     41.9645         0.012835   
    114. D(C   7,C   6,C   5,H  31)    -27.3930         0.012835   
    115. D(C   7,C   6,C   5,C   4)    164.8534         0.012835   
    116. D(H   9,C   6,C   5,H  31)   -150.2818         0.012835   
    117. D(H  10,C   6,C   5,H  31)     93.8273         0.012835   
    118. D(H  10,C   6,C   5,C   4)    -73.9263         0.012835   
    119. D(H  12,C   7,C   6,H  10)    178.4374         0.010593   
    120. D(H  12,C   7,C   6,H   9)     64.4110         0.010593   
    121. D(H  12,C   7,C   6,C   5)    -58.5986         0.010593   
    122. D(H  11,C   7,C   6,H  10)    -65.2733         0.010593   
    123. D(H  11,C   7,C   6,H   9)   -179.2998         0.010593   
    124. D(H  11,C   7,C   6,C   5)     57.6906         0.010593   
    125. D(N   8,C   7,C   6,H  10)     52.8599         0.010593   
    126. D(N   8,C   7,C   6,H   9)    -61.1666         0.010593   
    127. D(N   8,C   7,C   6,C   5)    175.8238         0.010593   
    128. D(H  14,N   8,C   7,H  12)    -57.4818         0.014297   
    129. D(H  14,N   8,C   7,H  11)   -176.0428         0.014297   
    130. D(H  14,N   8,C   7,C   6)     65.2511         0.014297   
    131. D(H  13,N   8,C   7,H  12)     58.0313         0.014297   
    132. D(H  13,N   8,C   7,H  11)    -60.5297         0.014297   
    133. D(H  13,N   8,C   7,C   6)   -179.2358         0.014297   
    134. D(C  20,C  16,N   0,H  15)      3.5812         0.030314   
    135. D(C  20,C  16,N   0,C   1)    178.0907         0.030314   
    136. D(O  19,C  16,N   0,H  15)   -176.5629         0.030314   
    137. D(O  19,C  16,N   0,C   1)     -2.0533         0.030314   
    138. D(C  24,N  17,C   2,O   3)     -1.5851         0.031292   
    139. D(C  24,N  17,C   2,C   1)    177.1861         0.031292   
    140. D(H  18,N  17,C   2,O   3)    179.3619         0.031292   
    141. D(H  18,N  17,C   2,C   1)     -1.8669         0.031292   
    142. D(H  23,C  20,C  16,O  19)    178.5532         0.010764   
    143. D(H  23,C  20,C  16,N   0)     -1.5902         0.010764   
    144. D(H  22,C  20,C  16,O  19)     56.7910         0.010764   
    145. D(H  22,C  20,C  16,N   0)   -123.3523         0.010764   
    146. D(H  21,C  20,C  16,O  19)    -59.8101         0.010764   
    147. D(H  21,C  20,C  16,N   0)    120.0466         0.010764   
    148. D(H  25,C  24,N  17,C   2)     59.1421         0.015872   
    149. D(H  27,C  24,N  17,H  18)    118.1597         0.015872   
    150. D(H  27,C  24,N  17,C   2)    -60.8903         0.015872   
    151. D(H  26,C  24,N  17,H  18)     -1.8931         0.015872   
    152. D(H  26,C  24,N  17,C   2)    179.0569         0.015872   
    153. D(H  25,C  24,N  17,H  18)   -121.8079         0.015872   
    -----------------------------------------------------------------

Number of atoms                         .... 32
Number of degrees of freedom            .... 153

         *************************************************************
         *                GEOMETRY OPTIMIZATION CYCLE   1            *
         *************************************************************
---------------------------------
CARTESIAN COORDINATES (ANGSTROEM)
---------------------------------
  N     -1.775606    0.710626    0.721610
  C     -1.501247   -0.164784   -0.403937
  C     -1.643328   -1.612529    0.105525
  O     -1.606619   -1.887255    1.307623
  C     -0.100491    0.081293   -1.030473
  C      1.057161   -0.186297   -0.113734
  C      2.457603    0.153953   -0.531047
  C      3.459883    0.164276    0.634630
  N      4.827007    0.407049    0.136695
  H      2.468021    1.134075   -1.033840
  H      2.827442   -0.564632   -1.283790
  H      3.448665   -0.819955    1.118027
  H      3.123753    0.897667    1.386638
  H      5.479647    0.398553    0.916215
  H      4.878086    1.343287   -0.258307
  H     -1.745618    0.273095    1.633200
  C     -2.156619    2.011599    0.558108
  N     -1.785011   -2.562577   -0.859268
  H     -1.817916   -2.274693   -1.824389
  O     -2.255790    2.535063   -0.553724
  C     -2.450462    2.783469    1.840696
  H     -1.770724    3.638401    1.894438
  H     -3.469788    3.174515    1.783252
  H     -2.343819    2.180815    2.746534
  C     -1.869930   -3.984736   -0.536561
  H     -2.720701   -4.180470    0.122022
  H     -1.996520   -4.547374   -1.463272
  H     -0.961338   -4.324385   -0.030712
  H     -2.250282    0.028568   -1.180868
  H     -0.018390   -0.533702   -1.945852
  H     -0.084071    1.121985   -1.380250
  H      0.906306   -0.807998    0.766890

----------------------------
CARTESIAN COORDINATES (A.U.)
----------------------------
  NO LB      ZA    FRAG     MASS         X           Y           Z
   0 N     7.0000    0    14.007   -3.355410    1.342889    1.363646
   1 C     6.0000    0    12.011   -2.836945   -0.311396   -0.763330
   2 C     6.0000    0    12.011   -3.105440   -3.047238    0.199413
   3 O     8.0000    0    15.999   -3.036069   -3.566394    2.471049
   4 C     6.0000    0    12.011   -0.189900    0.153622   -1.947312
   5 C     6.0000    0    12.011    1.997744   -0.352050   -0.214927
   6 C     6.0000    0    12.011    4.644196    0.290930   -1.003533
   7 C     6.0000    0    12.011    6.538231    0.310437    1.199277
   8 N     7.0000    0    14.007    9.121721    0.769210    0.258317
   9 H     1.0000    0     1.008    4.663884    2.143091   -1.953674
  10 H     1.0000    0     1.008    5.343090   -1.067000   -2.426012
  11 H     1.0000    0     1.008    6.517033   -1.549491    2.112764
  12 H     1.0000    0     1.008    5.903038    1.696346    2.620366
  13 H     1.0000    0     1.008   10.355033    0.753155    1.731395
  14 H     1.0000    0     1.008    9.218247    2.538445   -0.488129
  15 H     1.0000    0     1.008   -3.298739    0.516075    3.086301
  16 C     6.0000    0    12.011   -4.075420    3.801372    1.054670
  17 N     7.0000    0    14.007   -3.373181   -4.842568   -1.623781
  18 H     1.0000    0     1.008   -3.435364   -4.298547   -3.447595
  19 O     8.0000    0    15.999   -4.262825    4.790574   -1.046386
  20 C     6.0000    0    12.011   -4.630703    5.259995    3.478412
  21 H     1.0000    0     1.008   -3.346184    6.875581    3.579970
  22 H     1.0000    0     1.008   -6.556949    5.998964    3.369857
  23 H     1.0000    0     1.008   -4.429176    4.121142    5.190198
  24 C     6.0000    0    12.011   -3.533655   -7.530060   -1.013954
  25 H     1.0000    0     1.008   -5.141380   -7.899944    0.230587
  26 H     1.0000    0     1.008   -3.772876   -8.593292   -2.765183
  27 H     1.0000    0     1.008   -1.816666   -8.171903   -0.058038
  28 H     1.0000    0     1.008   -4.252417    0.053987   -2.231517
  29 H     1.0000    0     1.008   -0.034752   -1.008551   -3.677128
  30 H     1.0000    0     1.008   -0.158872    2.120244   -2.608295
  31 H     1.0000    0     1.008    1.712670   -1.526895    1.449213

--------------------------------
INTERNAL COORDINATES (ANGSTROEM)
--------------------------------
 N      0   0   0     0.000000000000     0.00000000     0.00000000
 C      1   0   0     1.452057898902     0.00000000     0.00000000
 C      2   1   0     1.541331878807   107.01628322     0.00000000
 O      3   2   1     1.233637722744   121.90509072   341.56605055
 C      2   1   3     1.554097655377   112.78914208   237.13325307
 C      5   2   1     1.500723557884   114.88373273    62.72693640
 C      6   5   2     1.500385796862   120.64194276   186.88228803
 C      7   6   5     1.537359628191   113.52514655   164.85336530
 N      8   7   6     1.475095195935   110.44965797   175.82379732
 H      7   6   5     1.101611181871   109.72702489    41.96453156
 H      7   6   5     1.104431186131   110.76783523   286.07368414
 H      8   7   6     1.096589914024   108.75650643    57.69059807
 H      8   7   6     1.102887870582   108.83072068   301.40136779
 H      9   8   7     1.016691860622   109.55724350   180.76422480
 H      9   8   7     1.017437169813   109.20974114    65.25109474
 H      1   2   3     1.011597231186   115.60434801    16.25614491
 C      1   2   3     1.365442956457   122.29751903   201.42471571
 N      3   2   1     1.361429377593   115.51944154   162.78592025
 H     18   3   2     1.007679464108   118.86626525   358.13313263
 O     17   1   2     1.232889834847   122.34164826   357.94665470
 C     17   1   2     1.525503421324   115.79548268   178.09072458
 H     21  17   1     1.093544448714   108.49128842   120.04662930
 H     21  17   1     1.093271207246   108.44507093   236.64770825
 H     21  17   1     1.093210136478   113.51191647   358.40983857
 C     18   3   2     1.460783100615   121.92963083   177.18612991
 H     25  18   3     1.093551558876   110.64195724    59.14212896
 H     25  18   3     1.091503249730   108.72484292   179.05689670
 H     25  18   3     1.093975953459   110.86274574   299.10969648
 H      2   1   3     1.096385681087   108.29334226   118.18021749
 H      5   2   1     1.105838417014   108.21445549   186.63752118
 H      5   2   1     1.098022048802   106.97629413   299.54056720
 H      6   5   2     1.088470906886   119.28485902    19.17025298

---------------------------
INTERNAL COORDINATES (A.U.)
---------------------------
 N      0   0   0     0.000000000000     0.00000000     0.00000000
 C      1   0   0     2.743991759521     0.00000000     0.00000000
 C      2   1   0     2.912695132428   107.01628322     0.00000000
 O      3   2   1     2.331237444460   121.90509072   341.56605055
 C      2   1   3     2.936818954032   112.78914208   237.13325307
 C      5   2   1     2.835956527125   114.88373273    62.72693640
 C      6   5   2     2.835318251294   120.64194276   186.88228803
 C      7   6   5     2.905188666628   113.52514655   164.85336530
 N      8   7   6     2.787525941780   110.44965797   175.82379732
 H      7   6   5     2.081743439801   109.72702489    41.96453156
 H      7   6   5     2.087072475549   110.76783523   286.07368414
 H      8   7   6     2.072254618725   108.75650643    57.69059807
 H      8   7   6     2.084156031824   108.83072068   301.40136779
 H      9   8   7     1.921269179163   109.55724350   180.76422480
 H      9   8   7     1.922677609418   109.20974114    65.25109474
 H      1   2   3     1.911641724775   115.60434801    16.25614491
 C      1   2   3     2.580313239195   122.29751903   201.42471571
 N      3   2   1     2.572728674326   115.51944154   162.78592025
 H     18   3   2     1.904238217940   118.86626525   358.13313263
 O     17   1   2     2.329824141156   122.34164826   357.94665470
 C     17   1   2     2.882783682661   115.79548268   178.09072458
 H     21  17   1     2.066499523339   108.49128842   120.04662930
 H     21  17   1     2.065983171797   108.44507093   236.64770825
 H     21  17   1     2.065867764770   113.51191647   358.40983857
 C     18   3   2     2.760480001222   121.92963083   177.18612991
 H     25  18   3     2.066512959599   110.64195724    59.14212896
 H     25  18   3     2.062642216275   108.72484292   179.05689670
 H     25  18   3     2.067314949133   110.86274574   299.10969648
 H      2   1   3     2.071868674408   108.29334226   118.18021749
 H      5   2   1     2.089731756525   108.21445549   186.63752118
 H      5   2   1     2.074960961242   106.97629413   299.54056720
 H      6   5   2     2.056911918755   119.28485902    19.17025298

---------------------
BASIS SET INFORMATION
---------------------
There are 4 groups of distinct atoms

 Group   1 Type N   : 11s6p2d1f contracted to 5s3p2d1f pattern {62111/411/11/1}
 Group   2 Type C   : 11s6p2d1f contracted to 5s3p2d1f pattern {62111/411/11/1}
 Group   3 Type O   : 11s6p2d1f contracted to 5s3p2d1f pattern {62111/411/11/1}
 Group   4 Type H   : 5s1p contracted to 3s1p pattern {311/1}

Atom   0N    basis set group =>   1
Atom   1C    basis set group =>   2
Atom   2C    basis set group =>   2
Atom   3O    basis set group =>   3
Atom   4C    basis set group =>   2
Atom   5C    basis set group =>   2
Atom   6C    basis set group =>   2
Atom   7C    basis set group =>   2
Atom   8N    basis set group =>   1
Atom   9H    basis set group =>   4
Atom  10H    basis set group =>   4
Atom  11H    basis set group =>   4
Atom  12H    basis set group =>   4
Atom  13H    basis set group =>   4
Atom  14H    basis set group =>   4
Atom  15H    basis set group =>   4
Atom  16C    basis set group =>   2
Atom  17N    basis set group =>   1
Atom  18H    basis set group =>   4
Atom  19O    basis set group =>   3
Atom  20C    basis set group =>   2
Atom  21H    basis set group =>   4
Atom  22H    basis set group =>   4
Atom  23H    basis set group =>   4
Atom  24C    basis set group =>   2
Atom  25H    basis set group =>   4
Atom  26H    basis set group =>   4
Atom  27H    basis set group =>   4
Atom  28H    basis set group =>   4
Atom  29H    basis set group =>   4
Atom  30H    basis set group =>   4
Atom  31H    basis set group =>   4
---------------------------------
AUXILIARY/J BASIS SET INFORMATION
---------------------------------
There are 4 groups of distinct atoms

 Group   1 Type N   : 12s5p4d2f1g contracted to 6s4p3d1f1g pattern {711111/2111/211/2/1}
 Group   2 Type C   : 12s5p4d2f1g contracted to 6s4p3d1f1g pattern {711111/2111/211/2/1}
 Group   3 Type O   : 12s5p4d2f1g contracted to 6s4p3d1f1g pattern {711111/2111/211/2/1}
 Group   4 Type H   : 5s2p1d contracted to 3s1p1d pattern {311/2/1}

Atom   0N    basis set group =>   1
Atom   1C    basis set group =>   2
Atom   2C    basis set group =>   2
Atom   3O    basis set group =>   3
Atom   4C    basis set group =>   2
Atom   5C    basis set group =>   2
Atom   6C    basis set group =>   2
Atom   7C    basis set group =>   2
Atom   8N    basis set group =>   1
Atom   9H    basis set group =>   4
Atom  10H    basis set group =>   4
Atom  11H    basis set group =>   4
Atom  12H    basis set group =>   4
Atom  13H    basis set group =>   4
Atom  14H    basis set group =>   4
Atom  15H    basis set group =>   4
Atom  16C    basis set group =>   2
Atom  17N    basis set group =>   1
Atom  18H    basis set group =>   4
Atom  19O    basis set group =>   3
Atom  20C    basis set group =>   2
Atom  21H    basis set group =>   4
Atom  22H    basis set group =>   4
Atom  23H    basis set group =>   4
Atom  24C    basis set group =>   2
Atom  25H    basis set group =>   4
Atom  26H    basis set group =>   4
Atom  27H    basis set group =>   4
Atom  28H    basis set group =>   4
Atom  29H    basis set group =>   4
Atom  30H    basis set group =>   4
Atom  31H    basis set group =>   4


           ************************************************************
           *        Program running with 16 parallel MPI-processes    *
           *              working on a common directory               *
           ************************************************************
------------------------------------------------------------------------------
                           ORCA GTO INTEGRAL CALCULATION
                           -- RI-GTO INTEGRALS CHOSEN --
------------------------------------------------------------------------------
------------------------------------------------------------------------------
                   ___                                                        
                  /   \      - P O W E R E D   B Y -                         
                 /     \                                                     
                 |  |  |   _    _      __       _____    __    __             
                 |  |  |  | |  | |    /  \     |  _  \  |  |  /  |          
                  \  \/   | |  | |   /    \    | | | |  |  | /  /          
                 / \  \   | |__| |  /  /\  \   | |_| |  |  |/  /          
                |  |  |   |  __  | /  /__\  \  |    /   |      \           
                |  |  |   | |  | | |   __   |  |    \   |  |\   \          
                \     /   | |  | | |  |  |  |  | |\  \  |  | \   \       
                 \___/    |_|  |_| |__|  |__|  |_| \__\ |__|  \__/        
                                                                              
                      - O R C A' S   B I G   F R I E N D -                    
                                      &                                       
                       - I N T E G R A L  F E E D E R -                       
                                                                              
 v1 FN, 2020, v2 2021                                                         
------------------------------------------------------------------------------


Reading SHARK input file freq.SHARKINP.tmp ... ok
----------------------
SHARK INTEGRAL PACKAGE
----------------------

Number of atoms                             ...     32
Number of basis functions                   ...    542
Number of shells                            ...    226
Maximum angular momentum                    ...      3
Integral batch strategy                     ... SHARK/LIBINT Hybrid
RI-J (if used) integral strategy            ... SPLIT-RIJ (Revised 2003 algorithm where possible)
Printlevel                                  ...      1
Contraction scheme used                     ... SEGMENTED contraction
Coulomb Range Separation                    ... NOT USED
Exchange Range Separation                   ... NOT USED
Finite Nucleus Model                        ... NOT USED
Auxiliary Coulomb fitting basis             ... AVAILABLE
   # of basis functions in Aux-J            ...    884
   # of shells in Aux-J                     ...    300
   Maximum angular momentum in Aux-J        ...      4
Auxiliary J/K fitting basis                 ... NOT available
Auxiliary Correlation fitting basis         ... NOT available
Auxiliary 'external' fitting basis          ... NOT available
Integral threshold                          ...     2.500000e-11
Primitive cut-off                           ...     2.500000e-12
Primitive pair pre-selection threshold      ...     2.500000e-12

Calculating pre-screening integrals         ... done (  0.0 sec) Dimension = 226
Organizing shell pair data                  ... done (  0.1 sec)
Shell pair information
Total number of shell pairs                 ...     25651
Shell pairs after pre-screening             ...     19204
Total number of primitive shell pairs       ...     75828
Primitive shell pairs kept                  ...     39486
          la=0 lb=0:   5730 shell pairs
          la=1 lb=0:   5693 shell pairs
          la=1 lb=1:   1447 shell pairs
          la=2 lb=0:   2556 shell pairs
          la=2 lb=1:   1289 shell pairs
          la=2 lb=2:    312 shell pairs
          la=3 lb=0:   1217 shell pairs
          la=3 lb=1:    611 shell pairs
          la=3 lb=2:    276 shell pairs
          la=3 lb=3:     73 shell pairs

Calculating one electron integrals          ... done (  0.0 sec)
Calculating RI/J V-Matrix + Cholesky decomp.... done (  0.0 sec)
Calculating Nuclear repulsion               ... done (  0.0 sec) ENN=    914.636324623055 Eh

SHARK setup successfully completed in   0.4 seconds

Maximum memory used throughout the entire GTOINT-calculation: 30.9 MB


           ************************************************************
           *        Program running with 16 parallel MPI-processes    *
           *              working on a common directory               *
           ************************************************************
-------------------------------------------------------------------------------
                                 ORCA SCF
-------------------------------------------------------------------------------

------------
SCF SETTINGS
------------
Hamiltonian:
 Density Functional     Method          .... DFT(GTOs)
 Exchange Functional    Exchange        .... M062X
 Correlation Functional Correlation     .... M062X
 Gradients option       PostSCFGGA      .... off
 Hybrid DFT is turned on
   Fraction HF Exchange ScalHFX         ....  0.540000
   Scaling of DF-GGA-X  ScalDFX         ....  0.460000
   Scaling of DF-GGA-C  ScalDFC         ....  1.000000
   Scaling of DF-LDA-C  ScalLDAC        ....  1.000000
   Perturbative correction              ....  0.000000
   Density functional embedding theory  .... OFF
 RI-approximation to the Coulomb term is turned on
   Number of AuxJ basis functions       .... 884
   RIJ-COSX (HFX calculated with COS-X)).... on


General Settings:
 Integral files         IntName         .... freq
 Hartree-Fock type      HFTyp           .... UHF
 Total Charge           Charge          ....    0
 Multiplicity           Mult            ....    2
 Number of Electrons    NEL             ....  109
 Basis Dimension        Dim             ....  542
 Nuclear Repulsion      ENuc            ....    914.6363246231 Eh

Convergence Acceleration:
 DIIS                   CNVDIIS         .... on
   Start iteration      DIISMaxIt       ....    12
   Startup error        DIISStart       ....  0.200000
   # of expansion vecs  DIISMaxEq       ....     5
   Bias factor          DIISBfac        ....   1.050
   Max. coefficient     DIISMaxC        ....  10.000
 Trust-Rad. Augm. Hess. CNVTRAH         .... auto
   Auto Start mean grad. ratio tolernc. ....  1.125000
   Auto Start start iteration           ....    20
   Auto Start num. interpolation iter.  ....    10
   Max. Number of Micro iterations      ....    16
   Max. Number of Macro iterations      .... Maxiter - #DIIS iter
   Number of Davidson start vectors     ....     2
   Converg. threshold I  (grad. norm)   ....   1.000e-05
   Converg. threshold II (energy diff.) ....   1.000e-08
   Grad. Scal. Fac. for Micro threshold ....   0.100
   Minimum threshold for Micro iter.    ....   0.010
   NR start threshold (gradient norm)   ....   0.001
   Initial trust radius                 ....   0.400
   Minimum AH scaling param. (alpha)    ....   1.000
   Maximum AH scaling param. (alpha)    .... 1000.000
   Orbital update algorithm             .... Taylor
   White noise on init. David. guess    .... on
   Maximum white noise                  ....   0.010
   Quad. conv. algorithm                .... NR
 SOSCF                  CNVSOSCF        .... off
 Level Shifting         CNVShift        .... on
   Level shift para.    LevelShift      ....    0.2500
   Turn off err/grad.   ShiftErr        ....    0.0010
 Zerner damping         CNVZerner       .... off
 Static damping         CNVDamp         .... on
   Fraction old density DampFac         ....    0.7000
   Max. Damping (<1)    DampMax         ....    0.9800
   Min. Damping (>=0)   DampMin         ....    0.0000
   Turn off err/grad.   DampErr         ....    0.1000
 Fernandez-Rico         CNVRico         .... off

SCF Procedure:
 Maximum # iterations   MaxIter         ....   125
 SCF integral mode      SCFMode         .... Direct
   Integral package                     .... SHARK and LIBINT hybrid scheme
 Reset frequency        DirectResetFreq ....    20
 Integral Threshold     Thresh          ....  2.500e-11 Eh
 Primitive CutOff       TCut            ....  2.500e-12 Eh

Convergence Tolerance:
 Convergence Check Mode ConvCheckMode   .... Total+1el-Energy
 Convergence forced     ConvForced      .... 0
 Energy Change          TolE            ....  1.000e-08 Eh
 1-El. energy change                    ....  1.000e-05 Eh
 DIIS Error             TolErr          ....  5.000e-07


Diagonalization of the overlap matrix:
Smallest eigenvalue                        ... 5.392e-05
Time for diagonalization                   ...    0.035 sec
Threshold for overlap eigenvalues          ... 1.000e-08
Number of eigenvalues below threshold      ... 0
Time for construction of square roots      ...    0.027 sec
Total time needed                          ...    0.064 sec

Time for model grid setup =    0.103 sec

------------------------------
INITIAL GUESS: MODEL POTENTIAL
------------------------------
Loading Hartree-Fock densities                     ... done
Calculating cut-offs                               ... done
Initializing the effective Hamiltonian             ... done
Setting up the integral package (SHARK)            ... done
Starting the Coulomb interaction                   ... done (   0.1 sec)
Reading the grid                                   ... done
Mapping shells                                     ... done
Starting the XC term evaluation                    ... done (   0.1 sec)
  promolecular density results
     # of electrons  =    108.987678255
     EX              =    -87.229838538
     EC              =     -3.609880292
     EX+EC           =    -90.839718830
Transforming the Hamiltonian                       ... done (   0.0 sec)
Diagonalizing the Hamiltonian                      ... done (   0.0 sec)
Back transforming the eigenvectors                 ... done (   0.0 sec)
Now organizing SCF variables                       ... done
                      ------------------
                      INITIAL GUESS DONE (   0.4 sec)
                      ------------------
-------------------
DFT GRID GENERATION
-------------------

General Integration Accuracy     IntAcc      ... 4.388
Radial Grid Type                 RadialGrid  ... OptM3 with GC (2021)
Angular Grid (max. ang.)         AngularGrid ... 4 (Lebedev-302)
Angular grid pruning method      GridPruning ... 4 (adaptive)
Weight generation scheme         WeightScheme... Becke
Basis function cutoff            BFCut       ... 1.0000e-11
Integration weight cutoff        WCut        ... 1.0000e-14
Angular grids for H and He will be reduced by one unit
Partially contracted basis set               ... off
Rotationally invariant grid construction     ... off

Total number of grid points                  ...   141762
Total number of batches                      ...     2232
Average number of points per batch           ...       63
Average number of grid points per atom       ...     4430
Time for grid setup =    0.600 sec

--------------------
COSX GRID GENERATION
--------------------

GRIDX 1
-------
General Integration Accuracy     IntAcc      ... 3.816
Radial Grid Type                 RadialGrid  ... OptM3 with GC (2021)
Angular Grid (max. ang.)         AngularGrid ... 1 (Lebedev-50)
Angular grid pruning method      GridPruning ... 4 (adaptive)
Weight generation scheme         WeightScheme... Becke
Basis function cutoff            BFCut       ... 1.0000e-11
Integration weight cutoff        WCut        ... 1.0000e-14
Angular grids for H and He will be reduced by one unit
Partially contracted basis set               ... on
Rotationally invariant grid construction     ... off

Total number of grid points                  ...    18096
Total number of batches                      ...      304
Average number of points per batch           ...       59
Average number of grid points per atom       ...      566
UseSFitting                                  ... on

GRIDX 2
-------
General Integration Accuracy     IntAcc      ... 4.020
Radial Grid Type                 RadialGrid  ... OptM3 with GC (2021)
Angular Grid (max. ang.)         AngularGrid ... 2 (Lebedev-110)
Angular grid pruning method      GridPruning ... 4 (adaptive)
Weight generation scheme         WeightScheme... Becke
Basis function cutoff            BFCut       ... 1.0000e-11
Integration weight cutoff        WCut        ... 1.0000e-14
Angular grids for H and He will be reduced by one unit
Partially contracted basis set               ... on
Rotationally invariant grid construction     ... off

Total number of grid points                  ...    38380
Total number of batches                      ...      617
Average number of points per batch           ...       62
Average number of grid points per atom       ...     1199
UseSFitting                                  ... on

GRIDX 3
-------
General Integration Accuracy     IntAcc      ... 4.338
Radial Grid Type                 RadialGrid  ... OptM3 with GC (2021)
Angular Grid (max. ang.)         AngularGrid ... 3 (Lebedev-194)
Angular grid pruning method      GridPruning ... 4 (adaptive)
Weight generation scheme         WeightScheme... Becke
Basis function cutoff            BFCut       ... 1.0000e-11
Integration weight cutoff        WCut        ... 1.0000e-14
Angular grids for H and He will be reduced by one unit
Partially contracted basis set               ... on
Rotationally invariant grid construction     ... off

Total number of grid points                  ...    83628
Total number of batches                      ...     1323
Average number of points per batch           ...       63
Average number of grid points per atom       ...     2613
UseSFitting                                  ... on

Time for X-Grid setup             =    0.781 sec

--------------
SCF ITERATIONS
--------------
ITER       Energy         Delta-E        Max-DP      RMS-DP      [F,P]     Damp
               ***  Starting incremental Fock matrix formation  ***
  0   -667.9142276899   0.000000000000 0.05818470  0.00049821  0.1523000 0.7000
  1   -668.1460282003  -0.231800510398 0.05774434  0.00042234  0.0728570 0.7000
                               ***Turning on DIIS***
  2   -668.2485838597  -0.102555659435 0.10815412  0.00079375  0.0272896 0.0000
  3   -668.4101709903  -0.161587130646 0.04196535  0.00030612  0.0359040 0.0000
  4   -668.4415479826  -0.031376992234 0.00784735  0.00008641  0.0058662 0.0000
  5   -668.4426396645  -0.001091681973 0.00282166  0.00003642  0.0038207 0.0000
  6   -668.4428651846  -0.000225520069 0.00286090  0.00002775  0.0009404 0.0000
               *** Restarting incremental Fock matrix formation ***
                                   *** Resetting DIIS ***
  7   -668.4429076738  -0.000042489223 0.00207058  0.00001377  0.0005905 0.0000
  8   -668.4429071737   0.000000500128 0.00054220  0.00000514  0.0007579 0.0000
  9   -668.4429202017  -0.000013028024 0.00038321  0.00000234  0.0001495 0.0000
 10   -668.4429207336  -0.000000531903 0.00017448  0.00000126  0.0001240 0.0000
 11   -668.4429210701  -0.000000336466 0.00007723  0.00000049  0.0000372 0.0000
 12   -668.4429210975  -0.000000027414 0.00001831  0.00000015  0.0000125 0.0000
 13   -668.4429210828   0.000000014719 0.00001045  0.00000007  0.0000030 0.0000
 14   -668.4429211105  -0.000000027684 0.00000350  0.00000003  0.0000015 0.0000
                            ***DIIS convergence achieved***

               *****************************************************
               *                     SUCCESS                       *
               *           SCF CONVERGED AFTER  15 CYCLES          *
               *****************************************************

Old exchange energy                            =    -48.246854724 Eh
New exchange energy                            =    -48.246853737 Eh
Exchange energy change after final integration =      0.000000988 Eh
Total energy after final integration           =   -668.442920128 Eh
Final COS-X integration done in                =     4.685 sec

----------------
TOTAL SCF ENERGY
----------------

Total Energy       :         -668.44292013 Eh          -18189.25658 eV

Components:
Nuclear Repulsion  :          914.63632462 Eh           24888.51970 eV
Electronic Energy  :        -1583.07924475 Eh          -43077.77628 eV
One Electron Energy:        -2723.00284446 Eh          -74096.67440 eV
Two Electron Energy:         1139.92359971 Eh           31018.89812 eV
Max COSX asymmetry :            0.00000240 Eh               0.00007 eV

Virial components:
Potential Energy   :        -1333.21979954 Eh          -36278.75512 eV
Kinetic Energy     :          664.77687941 Eh           18089.49854 eV
Virial Ratio       :            2.00551469


DFT components:
N(Alpha)           :       55.000045758912 electrons
N(Beta)            :       54.000069251469 electrons
N(Total)           :      109.000115010381 electrons
E(XC)              :      -45.002091561782 Eh       
DFET-embed. en.    :        0.000000000000 Eh       

---------------
SCF CONVERGENCE
---------------

  Last Energy change         ...   -5.1319e-09  Tolerance :   1.0000e-08
  Last MAX-Density change    ...    0.0000e+00  Tolerance :   1.0000e-07
  Last RMS-Density change    ...    0.0000e+00  Tolerance :   5.0000e-09
  Last DIIS Error            ...    7.4939e-07  Tolerance :   5.0000e-07

             **** THE GBW FILE WAS UPDATED (freq.gbw) ****
             **** DENSITY freq.scfp WAS UPDATED ****
             **** ENERGY FILE WAS UPDATED (freq.en.tmp) ****
----------------------
UHF SPIN CONTAMINATION
----------------------

Warning: in a DFT calculation there is little theoretical justification to 
         calculate <S**2> as in Hartree-Fock theory. We will do it anyways
         but you should keep in mind that the values have only limited relevance

Expectation value of <S**2>     :     0.755268
Ideal value S*(S+1) for S=0.5   :     0.750000
Deviation                       :     0.005268

             **** THE GBW FILE WAS UPDATED (freq.gbw) ****
             **** DENSITY freq.scfp WAS UPDATED ****
----------------
ORBITAL ENERGIES
----------------
                 SPIN UP ORBITALS
  NO   OCC          E(Eh)            E(eV) 
   0   1.0000     -19.609161      -533.5924 
   1   1.0000     -19.585286      -532.9427 
   2   1.0000     -14.789967      -402.4555 
   3   1.0000     -14.769103      -401.8877 
   4   1.0000     -14.726944      -400.7405 
   5   1.0000     -10.657942      -290.0174 
   6   1.0000     -10.642536      -289.5981 
   7   1.0000     -10.596731      -288.3517 
   8   1.0000     -10.582468      -287.9636 
   9   1.0000     -10.559623      -287.3420 
  10   1.0000     -10.550217      -287.0860 
  11   1.0000     -10.546947      -286.9970 
  12   1.0000     -10.539795      -286.8024 
  13   1.0000     -10.536630      -286.7163 
  14   1.0000      -1.171613       -31.8812 
  15   1.0000      -1.147603       -31.2279 
  16   1.0000      -1.043623       -28.3984 
  17   1.0000      -1.030468       -28.0405 
  18   1.0000      -0.986035       -26.8314 
  19   1.0000      -0.905778       -24.6475 
  20   1.0000      -0.862317       -23.4648 
  21   1.0000      -0.825078       -22.4515 
  22   1.0000      -0.811462       -22.0810 
  23   1.0000      -0.760544       -20.6955 
  24   1.0000      -0.705826       -19.2065 
  25   1.0000      -0.683354       -18.5950 
  26   1.0000      -0.671924       -18.2840 
  27   1.0000      -0.644301       -17.5323 
  28   1.0000      -0.618196       -16.8220 
  29   1.0000      -0.568438       -15.4680 
  30   1.0000      -0.557493       -15.1702 
  31   1.0000      -0.552208       -15.0263 
  32   1.0000      -0.548742       -14.9320 
  33   1.0000      -0.537213       -14.6183 
  34   1.0000      -0.533704       -14.5228 
  35   1.0000      -0.524543       -14.2735 
  36   1.0000      -0.505671       -13.7600 
  37   1.0000      -0.497563       -13.5394 
  38   1.0000      -0.496310       -13.5053 
  39   1.0000      -0.475777       -12.9465 
  40   1.0000      -0.474240       -12.9047 
  41   1.0000      -0.468759       -12.7556 
  42   1.0000      -0.458128       -12.4663 
  43   1.0000      -0.449220       -12.2239 
  44   1.0000      -0.439826       -11.9683 
  45   1.0000      -0.432465       -11.7680 
  46   1.0000      -0.426972       -11.6185 
  47   1.0000      -0.409420       -11.1409 
  48   1.0000      -0.395253       -10.7554 
  49   1.0000      -0.348957        -9.4956 
  50   1.0000      -0.338554        -9.2125 
  51   1.0000      -0.327453        -8.9105 
  52   1.0000      -0.316621        -8.6157 
  53   1.0000      -0.311301        -8.4709 
  54   1.0000      -0.244684        -6.6582 
  55   0.0000       0.040108         1.0914 
  56   0.0000       0.049089         1.3358 
  57   0.0000       0.063136         1.7180 
  58   0.0000       0.066193         1.8012 
  59   0.0000       0.071992         1.9590 
  60   0.0000       0.083333         2.2676 
  61   0.0000       0.094181         2.5628 
  62   0.0000       0.102214         2.7814 
  63   0.0000       0.111852         3.0437 
  64   0.0000       0.116427         3.1681 
  65   0.0000       0.120065         3.2671 
  66   0.0000       0.132860         3.6153 
  67   0.0000       0.138139         3.7589 
  68   0.0000       0.147524         4.0143 
  69   0.0000       0.152118         4.1394 
  70   0.0000       0.152943         4.1618 
  71   0.0000       0.159419         4.3380 
  72   0.0000       0.164707         4.4819 
  73   0.0000       0.169565         4.6141 
  74   0.0000       0.173370         4.7176 
  75   0.0000       0.189311         5.1514 
  76   0.0000       0.189420         5.1544 
  77   0.0000       0.195743         5.3264 
  78   0.0000       0.205652         5.5961 
  79   0.0000       0.212571         5.7843 
  80   0.0000       0.221748         6.0341 
  81   0.0000       0.227069         6.1789 
  82   0.0000       0.233653         6.3580 
  83   0.0000       0.233931         6.3656 
  84   0.0000       0.243086         6.6147 
  85   0.0000       0.250637         6.8202 
  86   0.0000       0.255866         6.9625 
  87   0.0000       0.260184         7.0800 
  88   0.0000       0.277205         7.5431 
  89   0.0000       0.278977         7.5914 
  90   0.0000       0.283594         7.7170 
  91   0.0000       0.295135         8.0310 
  92   0.0000       0.305352         8.3091 
  93   0.0000       0.307901         8.3784 
  94   0.0000       0.315397         8.5824 
  95   0.0000       0.326230         8.8772 
  96   0.0000       0.329617         8.9693 
  97   0.0000       0.337720         9.1898 
  98   0.0000       0.349031         9.4976 
  99   0.0000       0.351476         9.5642 
 100   0.0000       0.365344         9.9415 
 101   0.0000       0.372216        10.1285 
 102   0.0000       0.379445        10.3252 
 103   0.0000       0.392332        10.6759 
 104   0.0000       0.396247        10.7824 
 105   0.0000       0.405635        11.0379 
 106   0.0000       0.410026        11.1574 
 107   0.0000       0.416565        11.3353 
 108   0.0000       0.422711        11.5025 
 109   0.0000       0.429891        11.6979 
 110   0.0000       0.434463        11.8223 
 111   0.0000       0.441816        12.0224 
 112   0.0000       0.444477        12.0948 
 113   0.0000       0.449597        12.2341 
 114   0.0000       0.454336        12.3631 
 115   0.0000       0.462005        12.5718 
 116   0.0000       0.466111        12.6835 
 117   0.0000       0.469175        12.7669 
 118   0.0000       0.478483        13.0202 
 119   0.0000       0.479282        13.0419 
 120   0.0000       0.486437        13.2366 
 121   0.0000       0.491543        13.3756 
 122   0.0000       0.499199        13.5839 
 123   0.0000       0.505838        13.7646 
 124   0.0000       0.506560        13.7842 
 125   0.0000       0.513813        13.9816 
 126   0.0000       0.515559        14.0291 
 127   0.0000       0.519566        14.1381 
 128   0.0000       0.525119        14.2892 
 129   0.0000       0.529155        14.3990 
 130   0.0000       0.541894        14.7457 
 131   0.0000       0.542971        14.7750 
 132   0.0000       0.552040        15.0218 
 133   0.0000       0.560859        15.2618 
 134   0.0000       0.563540        15.3347 
 135   0.0000       0.571533        15.5522 
 136   0.0000       0.576169        15.6784 
 137   0.0000       0.585750        15.9391 
 138   0.0000       0.591737        16.1020 
 139   0.0000       0.594085        16.1659 
 140   0.0000       0.605634        16.4801 
 141   0.0000       0.607655        16.5351 
 142   0.0000       0.616353        16.7718 
 143   0.0000       0.619624        16.8608 
 144   0.0000       0.632783        17.2189 
 145   0.0000       0.637199        17.3391 
 146   0.0000       0.653245        17.7757 
 147   0.0000       0.659293        17.9403 
 148   0.0000       0.672067        18.2879 
 149   0.0000       0.682619        18.5750 
 150   0.0000       0.686758        18.6876 
 151   0.0000       0.696482        18.9522 
 152   0.0000       0.710241        19.3266 
 153   0.0000       0.729048        19.8384 
 154   0.0000       0.738212        20.0878 
 155   0.0000       0.769942        20.9512 
 156   0.0000       0.774476        21.0746 
 157   0.0000       0.777902        21.1678 
 158   0.0000       0.790171        21.5016 
 159   0.0000       0.795082        21.6353 
 160   0.0000       0.810052        22.0426 
 161   0.0000       0.826147        22.4806 
 162   0.0000       0.834946        22.7200 
 163   0.0000       0.843005        22.9393 
 164   0.0000       0.872778        23.7495 
 165   0.0000       0.877123        23.8677 
 166   0.0000       0.894423        24.3385 
 167   0.0000       0.911758        24.8102 
 168   0.0000       0.916200        24.9311 
 169   0.0000       0.923817        25.1383 
 170   0.0000       0.936783        25.4912 
 171   0.0000       0.948550        25.8114 
 172   0.0000       0.955153        25.9910 
 173   0.0000       0.967737        26.3335 
 174   0.0000       0.972480        26.4625 
 175   0.0000       0.992157        26.9980 
 176   0.0000       1.002173        27.2705 
 177   0.0000       1.012497        27.5515 
 178   0.0000       1.017807        27.6959 
 179   0.0000       1.026766        27.9397 
 180   0.0000       1.030106        28.0306 
 181   0.0000       1.040320        28.3085 
 182   0.0000       1.062889        28.9227 
 183   0.0000       1.065803        29.0020 
 184   0.0000       1.084736        29.5172 
 185   0.0000       1.093720        29.7616 
 186   0.0000       1.103526        30.0285 
 187   0.0000       1.112237        30.2655 
 188   0.0000       1.125484        30.6260 
 189   0.0000       1.128254        30.7014 
 190   0.0000       1.154046        31.4032 
 191   0.0000       1.168247        31.7896 
 192   0.0000       1.176827        32.0231 
 193   0.0000       1.186493        32.2861 
 194   0.0000       1.216925        33.1142 
 195   0.0000       1.233424        33.5632 
 196   0.0000       1.236499        33.6469 
 197   0.0000       1.243715        33.8432 
 198   0.0000       1.269592        34.5473 
 199   0.0000       1.291549        35.1448 
 200   0.0000       1.301941        35.4276 
 201   0.0000       1.306419        35.5495 
 202   0.0000       1.316287        35.8180 
 203   0.0000       1.331236        36.2248 
 204   0.0000       1.344640        36.5895 
 205   0.0000       1.362585        37.0778 
 206   0.0000       1.371398        37.3176 
 207   0.0000       1.382875        37.6299 
 208   0.0000       1.389909        37.8213 
 209   0.0000       1.396253        37.9940 
 210   0.0000       1.404958        38.2309 
 211   0.0000       1.418203        38.5913 
 212   0.0000       1.438070        39.1319 
 213   0.0000       1.457805        39.6689 
 214   0.0000       1.472282        40.0628 
 215   0.0000       1.482547        40.3422 
 216   0.0000       1.490927        40.5702 
 217   0.0000       1.500395        40.8278 
 218   0.0000       1.522366        41.4257 
 219   0.0000       1.533625        41.7321 
 220   0.0000       1.546054        42.0703 
 221   0.0000       1.549696        42.1694 
 222   0.0000       1.552834        42.2548 
 223   0.0000       1.561264        42.4842 
 224   0.0000       1.563254        42.5383 
 225   0.0000       1.569895        42.7190 
 226   0.0000       1.582998        43.0756 
 227   0.0000       1.586766        43.1781 
 228   0.0000       1.595757        43.4228 
 229   0.0000       1.600729        43.5581 
 230   0.0000       1.605547        43.6892 
 231   0.0000       1.616988        44.0005 
 232   0.0000       1.629162        44.3318 
 233   0.0000       1.636946        44.5436 
 234   0.0000       1.640659        44.6446 
 235   0.0000       1.649598        44.8878 
 236   0.0000       1.680292        45.7231 
 237   0.0000       1.682643        45.7871 
 238   0.0000       1.690082        45.9895 
 239   0.0000       1.691209        46.0201 
 240   0.0000       1.722264        46.8652 
 241   0.0000       1.726060        46.9685 
 242   0.0000       1.755348        47.7655 
 243   0.0000       1.765410        48.0392 
 244   0.0000       1.771441        48.2034 
 245   0.0000       1.782227        48.4969 
 246   0.0000       1.788483        48.6671 
 247   0.0000       1.811151        49.2839 
 248   0.0000       1.820145        49.5287 
 249   0.0000       1.832628        49.8684 
 250   0.0000       1.837441        49.9993 
 251   0.0000       1.847714        50.2788 
 252   0.0000       1.862000        50.6676 
 253   0.0000       1.873015        50.9673 
 254   0.0000       1.876520        51.0627 
 255   0.0000       1.894701        51.5574 
 256   0.0000       1.899858        51.6978 
 257   0.0000       1.919726        52.2384 
 258   0.0000       1.924056        52.3562 
 259   0.0000       1.929330        52.4997 
 260   0.0000       1.951283        53.0971 
 261   0.0000       1.956564        53.2408 
 262   0.0000       1.969058        53.5808 
 263   0.0000       1.980619        53.8954 
 264   0.0000       1.990722        54.1703 
 265   0.0000       2.004053        54.5330 
 266   0.0000       2.009406        54.6787 
 267   0.0000       2.021568        55.0097 
 268   0.0000       2.026235        55.1367 
 269   0.0000       2.036889        55.4266 
 270   0.0000       2.041064        55.5402 
 271   0.0000       2.060841        56.0783 
 272   0.0000       2.065100        56.1942 
 273   0.0000       2.073644        56.4267 
 274   0.0000       2.077204        56.5236 
 275   0.0000       2.086005        56.7631 
 276   0.0000       2.096975        57.0616 
 277   0.0000       2.119807        57.6829 
 278   0.0000       2.134988        58.0960 
 279   0.0000       2.150598        58.5207 
 280   0.0000       2.154625        58.6303 
 281   0.0000       2.166485        58.9531 
 282   0.0000       2.183409        59.4136 
 283   0.0000       2.196857        59.7795 
 284   0.0000       2.207905        60.0801 
 285   0.0000       2.239710        60.9456 
 286   0.0000       2.249694        61.2173 
 287   0.0000       2.264992        61.6336 
 288   0.0000       2.277041        61.9614 
 289   0.0000       2.290051        62.3155 
 290   0.0000       2.303383        62.6782 
 291   0.0000       2.309538        62.8457 
 292   0.0000       2.311026        62.8862 
 293   0.0000       2.328024        63.3487 
 294   0.0000       2.333319        63.4928 
 295   0.0000       2.349563        63.9349 
 296   0.0000       2.352871        64.0249 
 297   0.0000       2.359273        64.1991 
 298   0.0000       2.374206        64.6054 
 299   0.0000       2.378375        64.7189 
 300   0.0000       2.389010        65.0083 
 301   0.0000       2.392888        65.1138 
 302   0.0000       2.398042        65.2540 
 303   0.0000       2.419089        65.8268 
 304   0.0000       2.428963        66.0954 
 305   0.0000       2.454149        66.7808 
 306   0.0000       2.466146        67.1072 
 307   0.0000       2.475212        67.3539 
 308   0.0000       2.483322        67.5746 
 309   0.0000       2.522722        68.6468 
 310   0.0000       2.527498        68.7767 
 311   0.0000       2.542482        69.1845 
 312   0.0000       2.551077        69.4183 
 313   0.0000       2.553574        69.4863 
 314   0.0000       2.564462        69.7826 
 315   0.0000       2.573854        70.0381 
 316   0.0000       2.581848        70.2557 
 317   0.0000       2.591326        70.5136 
 318   0.0000       2.600428        70.7613 
 319   0.0000       2.607953        70.9660 
 320   0.0000       2.620598        71.3101 
 321   0.0000       2.631857        71.6165 
 322   0.0000       2.633657        71.6654 
 323   0.0000       2.640982        71.8648 
 324   0.0000       2.650219        72.1161 
 325   0.0000       2.669713        72.6466 
 326   0.0000       2.676433        72.8294 
 327   0.0000       2.692531        73.2675 
 328   0.0000       2.698880        73.4402 
 329   0.0000       2.711811        73.7921 
 330   0.0000       2.723503        74.1103 
 331   0.0000       2.731690        74.3331 
 332   0.0000       2.738825        74.5272 
 333   0.0000       2.758034        75.0499 
 334   0.0000       2.770392        75.3862 
 335   0.0000       2.781023        75.6755 
 336   0.0000       2.784822        75.7789 
 337   0.0000       2.808397        76.4204 
 338   0.0000       2.820887        76.7602 
 339   0.0000       2.833764        77.1106 
 340   0.0000       2.843400        77.3728 
 341   0.0000       2.847497        77.4843 
 342   0.0000       2.864851        77.9566 
 343   0.0000       2.875303        78.2410 
 344   0.0000       2.895847        78.8000 
 345   0.0000       2.909262        79.1650 
 346   0.0000       2.931581        79.7724 
 347   0.0000       2.942653        80.0737 
 348   0.0000       2.955975        80.4362 
 349   0.0000       2.969159        80.7949 
 350   0.0000       2.974149        80.9307 
 351   0.0000       2.983401        81.1825 
 352   0.0000       2.992282        81.4241 
 353   0.0000       2.996419        81.5367 
 354   0.0000       3.010445        81.9184 
 355   0.0000       3.025868        82.3381 
 356   0.0000       3.036833        82.6364 
 357   0.0000       3.049240        82.9740 
 358   0.0000       3.050948        83.0205 
 359   0.0000       3.068473        83.4974 
 360   0.0000       3.073622        83.6375 
 361   0.0000       3.081217        83.8442 
 362   0.0000       3.091029        84.1112 
 363   0.0000       3.106034        84.5195 
 364   0.0000       3.110824        84.6498 
 365   0.0000       3.116746        84.8110 
 366   0.0000       3.137928        85.3874 
 367   0.0000       3.148155        85.6657 
 368   0.0000       3.161562        86.0305 
 369   0.0000       3.168752        86.2261 
 370   0.0000       3.187237        86.7291 
 371   0.0000       3.189556        86.7922 
 372   0.0000       3.200014        87.0768 
 373   0.0000       3.202562        87.1461 
 374   0.0000       3.215357        87.4943 
 375   0.0000       3.219279        87.6010 
 376   0.0000       3.231176        87.9248 
 377   0.0000       3.240321        88.1736 
 378   0.0000       3.252285        88.4992 
 379   0.0000       3.265182        88.8501 
 380   0.0000       3.269751        88.9744 
 381   0.0000       3.279732        89.2460 
 382   0.0000       3.290402        89.5364 
 383   0.0000       3.296795        89.7104 
 384   0.0000       3.311679        90.1154 
 385   0.0000       3.314781        90.1998 
 386   0.0000       3.320701        90.3609 
 387   0.0000       3.323705        90.4426 
 388   0.0000       3.325296        90.4859 
 389   0.0000       3.340434        90.8978 
 390   0.0000       3.352735        91.2326 
 391   0.0000       3.356245        91.3281 
 392   0.0000       3.370658        91.7203 
 393   0.0000       3.377656        91.9107 
 394   0.0000       3.383177        92.0609 
 395   0.0000       3.391260        92.2809 
 396   0.0000       3.398095        92.4669 
 397   0.0000       3.409182        92.7686 
 398   0.0000       3.428230        93.2869 
 399   0.0000       3.431911        93.3871 
 400   0.0000       3.437494        93.5390 
 401   0.0000       3.443170        93.6934 
 402   0.0000       3.490772        94.9887 
 403   0.0000       3.507388        95.4409 
 404   0.0000       3.510295        95.5200 
 405   0.0000       3.521975        95.8378 
 406   0.0000       3.530527        96.0705 
 407   0.0000       3.542919        96.4077 
 408   0.0000       3.550851        96.6236 
 409   0.0000       3.579185        97.3946 
 410   0.0000       3.582342        97.4805 
 411   0.0000       3.602066        98.0172 
 412   0.0000       3.629408        98.7612 
 413   0.0000       3.650690        99.3403 
 414   0.0000       3.672411        99.9314 
 415   0.0000       3.700736       100.7021 
 416   0.0000       3.707264       100.8798 
 417   0.0000       3.720250       101.2332 
 418   0.0000       3.757800       102.2549 
 419   0.0000       3.762397       102.3800 
 420   0.0000       3.769949       102.5855 
 421   0.0000       3.787383       103.0599 
 422   0.0000       3.810026       103.6761 
 423   0.0000       3.822183       104.0069 
 424   0.0000       3.834036       104.3294 
 425   0.0000       3.857202       104.9598 
 426   0.0000       3.865442       105.1840 
 427   0.0000       3.877184       105.5035 
 428   0.0000       3.884173       105.6937 
 429   0.0000       3.897020       106.0433 
 430   0.0000       3.904610       106.2498 
 431   0.0000       3.933105       107.0252 
 432   0.0000       3.957276       107.6829 
 433   0.0000       3.965296       107.9012 
 434   0.0000       4.011273       109.1523 
 435   0.0000       4.015416       109.2650 
 436   0.0000       4.035294       109.8059 
 437   0.0000       4.055723       110.3618 
 438   0.0000       4.073086       110.8343 
 439   0.0000       4.100249       111.5735 
 440   0.0000       4.114771       111.9686 
 441   0.0000       4.136506       112.5600 
 442   0.0000       4.150433       112.9390 
 443   0.0000       4.167614       113.4066 
 444   0.0000       4.191841       114.0658 
 445   0.0000       4.221950       114.8851 
 446   0.0000       4.250971       115.6748 
 447   0.0000       4.268713       116.1576 
 448   0.0000       4.308151       117.2307 
 449   0.0000       4.314296       117.3980 
 450   0.0000       4.331233       117.8589 
 451   0.0000       4.340277       118.1050 
 452   0.0000       4.348974       118.3416 
 453   0.0000       4.370087       118.9161 
 454   0.0000       4.397906       119.6731 
 455   0.0000       4.404667       119.8571 
 456   0.0000       4.416887       120.1896 
 457   0.0000       4.451776       121.1390 
 458   0.0000       4.456710       121.2732 
 459   0.0000       4.512140       122.7816 
 460   0.0000       4.525208       123.1372 
 461   0.0000       4.530666       123.2857 
 462   0.0000       4.561131       124.1147 
 463   0.0000       4.583958       124.7358 
 464   0.0000       4.596199       125.0689 
 465   0.0000       4.619374       125.6996 
 466   0.0000       4.642254       126.3222 
 467   0.0000       4.693307       127.7114 
 468   0.0000       4.719456       128.4229 
 469   0.0000       4.753980       129.3624 
 470   0.0000       4.766495       129.7029 
 471   0.0000       4.775026       129.9351 
 472   0.0000       4.794211       130.4571 
 473   0.0000       4.818692       131.1233 
 474   0.0000       4.829600       131.4201 
 475   0.0000       4.846539       131.8810 
 476   0.0000       4.861146       132.2785 
 477   0.0000       4.920707       133.8992 
 478   0.0000       4.944752       134.5536 
 479   0.0000       4.951350       134.7331 
 480   0.0000       4.962348       135.0323 
 481   0.0000       4.979002       135.4855 
 482   0.0000       5.028943       136.8445 
 483   0.0000       5.058872       137.6589 
 484   0.0000       5.063609       137.7878 
 485   0.0000       5.094194       138.6201 
 486   0.0000       5.101685       138.8239 
 487   0.0000       5.118404       139.2788 
 488   0.0000       5.183571       141.0521 
 489   0.0000       5.200747       141.5195 
 490   0.0000       5.214121       141.8835 
 491   0.0000       5.224732       142.1722 
 492   0.0000       5.249005       142.8327 
 493   0.0000       5.259251       143.1115 
 494   0.0000       5.269013       143.3771 
 495   0.0000       5.278160       143.6260 
 496   0.0000       5.298850       144.1890 
 497   0.0000       5.306497       144.3971 
 498   0.0000       5.385631       146.5505 
 499   0.0000       5.425988       147.6486 
 500   0.0000       5.444704       148.1579 
 501   0.0000       5.482386       149.1833 
 502   0.0000       5.523085       150.2908 
 503   0.0000       5.538203       150.7022 
 504   0.0000       5.589592       152.1005 
 505   0.0000       5.648521       153.7041 
 506   0.0000       5.669377       154.2716 
 507   0.0000       5.720996       155.6762 
 508   0.0000       5.735267       156.0645 
 509   0.0000       5.770244       157.0163 
 510   0.0000       5.893508       160.3705 
 511   0.0000       5.908550       160.7798 
 512   0.0000       6.084897       165.5785 
 513   0.0000       6.109015       166.2348 
 514   0.0000       6.289395       171.1431 
 515   0.0000       6.302746       171.5064 
 516   0.0000       6.420952       174.7230 
 517   0.0000       6.428493       174.9282 
 518   0.0000       6.548153       178.1843 
 519   0.0000       6.558167       178.4568 
 520   0.0000       6.646554       180.8619 
 521   0.0000       6.660992       181.2548 
 522   0.0000       6.832889       185.9324 
 523   0.0000       6.837378       186.0545 
 524   0.0000       7.047520       191.7728 
 525   0.0000       7.069014       192.3577 
 526   0.0000       7.078308       192.6105 
 527   0.0000       7.097474       193.1321 
 528   0.0000      22.400742       609.5552 
 529   0.0000      22.451525       610.9371 
 530   0.0000      22.468228       611.3916 
 531   0.0000      22.490176       611.9888 
 532   0.0000      22.590706       614.7244 
 533   0.0000      22.624497       615.6439 
 534   0.0000      22.798835       620.3878 
 535   0.0000      23.367323       635.8572 
 536   0.0000      23.404059       636.8568 
 537   0.0000      32.049149       872.1017 
 538   0.0000      32.509611       884.6315 
 539   0.0000      32.683470       889.3624 
 540   0.0000      44.069639      1199.1958 
 541   0.0000      44.109673      1200.2852 

                 SPIN DOWN ORBITALS
  NO   OCC          E(Eh)            E(eV) 
   0   1.0000     -19.609147      -533.5920 
   1   1.0000     -19.585245      -532.9416 
   2   1.0000     -14.789954      -402.4551 
   3   1.0000     -14.769046      -401.8862 
   4   1.0000     -14.726911      -400.7396 
   5   1.0000     -10.657953      -290.0176 
   6   1.0000     -10.642541      -289.5983 
   7   1.0000     -10.596676      -288.3502 
   8   1.0000     -10.582466      -287.9635 
   9   1.0000     -10.559460      -287.3375 
  10   1.0000     -10.550912      -287.1049 
  11   1.0000     -10.540096      -286.8106 
  12   1.0000     -10.539795      -286.8024 
  13   1.0000     -10.537282      -286.7340 
  14   1.0000      -1.171579       -31.8803 
  15   1.0000      -1.147515       -31.2255 
  16   1.0000      -1.043587       -28.3974 
  17   1.0000      -1.030170       -28.0323 
  18   1.0000      -0.985520       -26.8174 
  19   1.0000      -0.895817       -24.3764 
  20   1.0000      -0.855406       -23.2768 
  21   1.0000      -0.824940       -22.4477 
  22   1.0000      -0.810030       -22.0420 
  23   1.0000      -0.755733       -20.5645 
  24   1.0000      -0.700369       -19.0580 
  25   1.0000      -0.683285       -18.5931 
  26   1.0000      -0.666450       -18.1350 
  27   1.0000      -0.631836       -17.1931 
  28   1.0000      -0.616759       -16.7829 
  29   1.0000      -0.567030       -15.4297 
  30   1.0000      -0.555642       -15.1198 
  31   1.0000      -0.549216       -14.9449 
  32   1.0000      -0.547662       -14.9026 
  33   1.0000      -0.535397       -14.5689 
  34   1.0000      -0.531142       -14.4531 
  35   1.0000      -0.523174       -14.2363 
  36   1.0000      -0.502388       -13.6707 
  37   1.0000      -0.495133       -13.4733 
  38   1.0000      -0.490193       -13.3388 
  39   1.0000      -0.475308       -12.9338 
  40   1.0000      -0.471645       -12.8341 
  41   1.0000      -0.466483       -12.6937 
  42   1.0000      -0.454715       -12.3734 
  43   1.0000      -0.447130       -12.1670 
  44   1.0000      -0.435035       -11.8379 
[...]
     60       0.000129   0.000284   0.000011  -0.000001  -0.000100   0.000009
     61      -0.000213  -0.000203   0.000001  -0.000001   0.000222  -0.000010
     62       0.000195   0.000213   0.000001   0.000003  -0.000279   0.000003
     63       0.000558  -0.000261   0.000009  -0.000002  -0.000025  -0.000016
     64       0.000578  -0.000527   0.000005  -0.000008  -0.000478  -0.000026
     65       0.000081  -0.000032  -0.000004  -0.000005  -0.000157  -0.000002
     66      -0.002002  -0.003079   0.000022  -0.000001   0.000608   0.000018
     67       0.000907   0.001377  -0.000002  -0.000004  -0.000330  -0.000024
     68      -0.000260  -0.000413   0.000005   0.000004   0.000001  -0.000024
     69      -0.000001   0.000083   0.000002   0.000004   0.000597  -0.000013
     70       0.001680   0.001666  -0.000009  -0.000002  -0.004362   0.000062
     71      -0.002412  -0.002491   0.000013   0.000006   0.003511   0.000022
     72      -0.012920  -0.000030   0.000001  -0.000004  -0.000023  -0.000222
     73       0.029599   0.000147  -0.000003  -0.000004   0.000106   0.001760
     74       0.087698   0.000421  -0.000000   0.000003   0.000006   0.000280
     75       0.339466   0.001424   0.000010  -0.000004   0.000172   0.005941
     76       0.097124   0.000492   0.000003   0.000004   0.000087   0.004688
     77      -0.214431  -0.000969  -0.000008   0.000002   0.000080  -0.004569
     78      -0.000864  -0.000041  -0.000004  -0.000007   0.000020   0.000477
     79      -0.481101  -0.002416   0.000004   0.000006  -0.000256  -0.005989
     80      -0.736808  -0.003737   0.000006   0.000009  -0.000499  -0.007569
     81      -0.185238  -0.000717  -0.000008  -0.000007   0.000004  -0.004442
     82       0.045891   0.000441   0.000000   0.000007   0.000005   0.003481
     83      -0.097994  -0.000441  -0.000007  -0.000011   0.000231  -0.002795
     84      -0.000318   0.002777   0.000004   0.000030   0.004356  -0.000335
     85       0.000294   0.000324  -0.000008   0.000005   0.002734   0.000176
     86      -0.000368   0.000605   0.000026  -0.000022   0.006593  -0.001005
     87       0.000048  -0.000382   0.000042  -0.000014  -0.000882  -0.001204
     88      -0.000182  -0.010126  -0.000000   0.000034   0.000643  -0.000768
     89      -0.000403  -0.016663   0.000013   0.000040   0.001187   0.000540
     90       0.000048  -0.002752   0.000037  -0.000010   0.000976  -0.000410
     91       0.000070   0.017992  -0.000039  -0.000074   0.000378  -0.000192
     92      -0.000079  -0.004854   0.000027   0.000030  -0.000570   0.000288
     93      -0.000939   0.176584  -0.000109   0.000266  -0.000333   0.000349
     94      -0.001516   0.297859  -0.000327   0.000104  -0.000697   0.000320
     95       0.004652  -0.933359   0.000775  -0.000439   0.001107   0.000021


-----------
IR SPECTRUM
-----------

 Mode   freq       eps      Int      T**2         TX        TY        TZ
       cm**-1   L/(mol*cm) km/mol    a.u.
----------------------------------------------------------------------------
  7:     28.98   0.000241    1.22  0.002597  ( 0.043759 -0.016400  0.020339)
  8:     47.49   0.000785    3.97  0.005161  ( 0.067647  0.020321 -0.013110)
  9:     51.74   0.000499    2.52  0.003007  ( 0.020478 -0.037058  0.034848)
 10:     65.24   0.000163    0.83  0.000781  (-0.021958 -0.017247 -0.001158)
 11:     90.58   0.001813    9.16  0.006246  (-0.077257 -0.004948 -0.015899)
 12:    101.04   0.000202    1.02  0.000624  (-0.018829  0.010076  0.012969)
 13:    106.01   0.001505    7.61  0.004430  ( 0.045414  0.048608 -0.002252)
 14:    108.71   0.001065    5.38  0.003056  ( 0.031036  0.042989  0.015651)
 15:    141.74   0.001525    7.71  0.003359  (-0.056449  0.012848 -0.002655)
 16:    149.92   0.001547    7.82  0.003220  (-0.024567  0.050558  0.007781)
 17:    175.80   0.000789    3.99  0.001401  (-0.006275 -0.036894 -0.000034)
 18:    202.57   0.001254    6.34  0.001932  ( 0.025783 -0.030923  0.017636)
 19:    230.43   0.001788    9.04  0.002422  (-0.005431 -0.048288 -0.007780)
 20:    240.34   0.002588   13.08  0.003360  ( 0.013611 -0.055276 -0.010920)
 21:    268.21   0.005141   25.98  0.005982  ( 0.037744 -0.047985  0.047482)
 22:    294.68   0.001122    5.67  0.001188  (-0.015227  0.030874 -0.001699)
 23:    330.26   0.002387   12.06  0.002256  (-0.043933  0.014594 -0.010611)
 24:    360.48   0.000695    3.51  0.000602  ( 0.000598 -0.023571 -0.006755)
 25:    382.37   0.004160   21.02  0.003395  ( 0.033328  0.045687  0.014035)
 26:    416.62   0.015613   78.90  0.011695  (-0.107329 -0.000441 -0.013231)
 27:    443.56   0.000959    4.85  0.000675  ( 0.011126  0.014754  0.018263)
 28:    510.08   0.002660   13.44  0.001627  ( 0.015011  0.021265  0.030819)
 29:    547.89   0.012868   65.03  0.007329  (-0.084841 -0.009012 -0.007068)
 30:    577.17   0.003885   19.63  0.002100  (-0.024540 -0.036087 -0.013996)
 31:    636.09   0.003147   15.90  0.001544  (-0.033910  0.019692 -0.002491)
 32:    666.10   0.000577    2.91  0.000270  (-0.010681 -0.011972 -0.003582)
 33:    701.37   0.000257    1.30  0.000114  (-0.009381 -0.004951  0.001379)
 34:    770.26   0.001283    6.48  0.000520  (-0.011168  0.005722  0.019035)
 35:    810.61   0.002311   11.68  0.000890  ( 0.028375  0.003740 -0.008392)
 36:    846.33   0.026330  133.06  0.009709  (-0.057599  0.033511  0.072581)
 37:    886.65   0.001671    8.44  0.000588  ( 0.003993  0.020778 -0.011845)
 38:    918.40   0.000369    1.87  0.000125  ( 0.002096  0.010579 -0.003022)
 39:    962.60   0.001063    5.37  0.000345  ( 0.003836 -0.011827 -0.013783)
 40:    989.45   0.000720    3.64  0.000227  (-0.000094 -0.011288 -0.009979)
 41:   1021.67   0.000951    4.81  0.000291  ( 0.008193 -0.012923  0.007511)
 42:   1034.11   0.001949    9.85  0.000588  ( 0.013640 -0.018327 -0.008134)
 43:   1050.50   0.001846    9.33  0.000548  (-0.015786  0.003822  0.016866)
 44:   1067.03   0.001301    6.57  0.000380  ( 0.018916  0.004473  0.001634)
 45:   1082.80   0.000963    4.87  0.000278  (-0.001861 -0.005175 -0.015726)
 46:   1103.27   0.001218    6.15  0.000344  ( 0.016070 -0.000429 -0.009271)
 47:   1121.26   0.002929   14.80  0.000815  (-0.027690 -0.004335 -0.005457)
 48:   1149.58   0.000045    0.23  0.000012  ( 0.001316 -0.001321 -0.002947)
 49:   1159.37   0.000601    3.04  0.000162  (-0.000739 -0.001264 -0.012636)
 50:   1164.13   0.000131    0.66  0.000035  (-0.001569  0.005387  0.001929)
 51:   1173.89   0.000183    0.92  0.000049  (-0.005416 -0.004351 -0.000534)
 52:   1203.12   0.000024    0.12  0.000006  ( 0.001092  0.001407 -0.001773)
 53:   1228.09   0.000348    1.76  0.000089  (-0.000992 -0.006320 -0.006901)
 54:   1240.48   0.000545    2.75  0.000137  (-0.008658  0.006939  0.003745)
 55:   1261.99   0.011268   56.94  0.002786  (-0.009209  0.051199  0.008949)
 56:   1281.23   0.001466    7.41  0.000357  ( 0.012067  0.013622 -0.005089)
 57:   1288.16   0.000948    4.79  0.000230  (-0.014036 -0.001645  0.005479)
 58:   1323.15   0.003570   18.04  0.000842  ( 0.017896 -0.022560 -0.003583)
 59:   1335.74   0.002234   11.29  0.000522  (-0.003676  0.022541  0.000466)
 60:   1371.70   0.002296   11.60  0.000522  (-0.003806  0.022455 -0.001898)
 61:   1386.78   0.000211    1.07  0.000048  ( 0.002746  0.004927 -0.003968)
 62:   1410.54   0.005784   29.23  0.001280  (-0.010403  0.030305  0.015909)
 63:   1427.82   0.002140   10.82  0.000468  ( 0.021429  0.002446  0.001619)
 64:   1455.41   0.001004    5.07  0.000215  ( 0.011669  0.004662 -0.007577)
 65:   1464.26   0.004392   22.20  0.000936  ( 0.003677 -0.025766 -0.016085)
 66:   1469.62   0.000400    2.02  0.000085  (-0.000934  0.000523  0.009157)
 67:   1476.28   0.002544   12.86  0.000538  ( 0.018166 -0.011647  0.008496)
 68:   1479.60   0.003166   16.00  0.000668  (-0.007911 -0.011759  0.021609)
 69:   1489.46   0.008786   44.40  0.001841  ( 0.003671  0.042554 -0.004048)
 70:   1490.62   0.002315   11.70  0.000485  (-0.019389  0.007370 -0.007374)
 71:   1521.29   0.004495   22.72  0.000922  ( 0.003226 -0.030172 -0.001174)
 72:   1523.45   0.000419    2.12  0.000086  (-0.006906  0.005019 -0.003590)
 73:   1548.14   0.124357  628.45  0.025067  ( 0.044112 -0.143523 -0.050226)
 74:   1578.42   0.017672   89.30  0.003494  (-0.020277 -0.048239 -0.027489)
 75:   1656.02   0.007633   38.57  0.001438  ( 0.027164  0.024427  0.010186)
 76:   1772.23   0.084682  427.95  0.014911  ( 0.005986 -0.042058  0.114484)
 77:   1784.91   0.015616   78.92  0.002730  (-0.020999  0.042037  0.022851)
 78:   2988.91   0.004914   24.83  0.000513  (-0.009263 -0.016522  0.012420)
 79:   3009.62   0.008655   43.74  0.000897  ( 0.014005 -0.004338 -0.026124)
 80:   3011.10   0.004606   23.27  0.000477  ( 0.001133  0.006791  0.020734)
 81:   3036.11   0.005353   27.05  0.000550  ( 0.005269 -0.009123 -0.020958)
 82:   3055.73   0.000971    4.91  0.000099  (-0.004476 -0.008682 -0.001946)
 83:   3081.09   0.007659   38.71  0.000776  ( 0.001569  0.027393  0.004788)
 84:   3082.26   0.001267    6.40  0.000128  (-0.006519  0.004388 -0.008157)
 85:   3089.19   0.000586    2.96  0.000059  ( 0.001089 -0.001366 -0.007494)
 86:   3100.39   0.004557   23.03  0.000459  (-0.001081 -0.021351  0.001276)
 87:   3149.49   0.002132   10.77  0.000211  (-0.013893 -0.002889 -0.003146)
 88:   3172.03   0.000423    2.14  0.000042  ( 0.004745  0.002720 -0.003417)
 89:   3183.15   0.001273    6.43  0.000125  (-0.002128  0.006290 -0.008985)
 90:   3186.53   0.001248    6.30  0.000122  (-0.000837  0.003390  0.010487)
 91:   3194.33   0.000640    3.23  0.000063  (-0.001877 -0.002253  0.007342)
 92:   3526.07   0.000158    0.80  0.000014  ( 0.003196  0.001577  0.001141)
 93:   3612.62   0.000818    4.13  0.000071  (-0.002835  0.006265 -0.004832)
 94:   3620.47   0.020530  103.75  0.001770  ( 0.001867 -0.034702  0.023704)
 95:   3672.68   0.008612   43.52  0.000732  ( 0.002932 -0.001193 -0.026865)

* The epsilon (eps) is given for a Dirac delta lineshape.
** The dipole moment derivative (T) already includes vibrational overlap.

The first frequency considered to be a vibration is 7
The total number of vibrations considered is 89


--------------------------
THERMOCHEMISTRY AT 298.15K
--------------------------

Temperature         ... 298.15 K
Pressure            ... 1.00 atm
Total Mass          ... 200.26 AMU

Throughout the following assumptions are being made:
  (1) The electronic state is orbitally nondegenerate
      but the spin degeneracy is treated
  (2) There are no thermally accessible electronically excited states
  (3) Hindered rotations indicated by low frequency modes are not
      treated as such but are treated as vibrations and this may
      cause some error
  (4) All equations used are the standard statistical mechanics
      equations for an ideal gas
  (5) All vibrations are strictly harmonic

freq.      28.98  E(vib)   ...       0.55 
freq.      47.49  E(vib)   ...       0.53 
freq.      51.74  E(vib)   ...       0.52 
freq.      65.24  E(vib)   ...       0.50 
freq.      90.58  E(vib)   ...       0.47 
freq.     101.04  E(vib)   ...       0.46 
freq.     106.01  E(vib)   ...       0.45 
freq.     108.71  E(vib)   ...       0.45 
freq.     141.74  E(vib)   ...       0.41 
freq.     149.92  E(vib)   ...       0.40 
freq.     175.80  E(vib)   ...       0.38 
freq.     202.57  E(vib)   ...       0.35 
freq.     230.43  E(vib)   ...       0.32 
freq.     240.34  E(vib)   ...       0.31 
freq.     268.21  E(vib)   ...       0.29 
freq.     294.68  E(vib)   ...       0.27 
freq.     330.26  E(vib)   ...       0.24 
freq.     360.48  E(vib)   ...       0.22 
freq.     382.37  E(vib)   ...       0.21 
freq.     416.62  E(vib)   ...       0.18 
freq.     443.56  E(vib)   ...       0.17 
freq.     510.08  E(vib)   ...       0.14 
freq.     547.89  E(vib)   ...       0.12 
freq.     577.17  E(vib)   ...       0.11 
freq.     636.09  E(vib)   ...       0.09 
freq.     666.10  E(vib)   ...       0.08 
freq.     701.37  E(vib)   ...       0.07 
freq.     770.26  E(vib)   ...       0.05 
freq.     810.61  E(vib)   ...       0.05 
freq.     846.33  E(vib)   ...       0.04 
freq.     886.65  E(vib)   ...       0.04 
freq.     918.40  E(vib)   ...       0.03 
freq.     962.60  E(vib)   ...       0.03 
freq.     989.45  E(vib)   ...       0.02 
freq.    1021.67  E(vib)   ...       0.02 
freq.    1034.11  E(vib)   ...       0.02 
freq.    1050.50  E(vib)   ...       0.02 
freq.    1067.03  E(vib)   ...       0.02 
freq.    1082.80  E(vib)   ...       0.02 
freq.    1103.27  E(vib)   ...       0.02 
freq.    1121.26  E(vib)   ...       0.01 
freq.    1149.58  E(vib)   ...       0.01 
freq.    1159.37  E(vib)   ...       0.01 
freq.    1164.13  E(vib)   ...       0.01 
freq.    1173.89  E(vib)   ...       0.01 
freq.    1203.12  E(vib)   ...       0.01 
freq.    1228.09  E(vib)   ...       0.01 
freq.    1240.48  E(vib)   ...       0.01 
freq.    1261.99  E(vib)   ...       0.01 
freq.    1281.23  E(vib)   ...       0.01 
freq.    1288.16  E(vib)   ...       0.01 
freq.    1323.15  E(vib)   ...       0.01 
freq.    1335.74  E(vib)   ...       0.01 
freq.    1371.70  E(vib)   ...       0.01 
freq.    1386.78  E(vib)   ...       0.00 
freq.    1410.54  E(vib)   ...       0.00 
freq.    1427.82  E(vib)   ...       0.00 
freq.    1455.41  E(vib)   ...       0.00 
freq.    1464.26  E(vib)   ...       0.00 
freq.    1469.62  E(vib)   ...       0.00 
freq.    1476.28  E(vib)   ...       0.00 
freq.    1479.60  E(vib)   ...       0.00 
freq.    1489.46  E(vib)   ...       0.00 
freq.    1490.62  E(vib)   ...       0.00 
freq.    1521.29  E(vib)   ...       0.00 
freq.    1523.45  E(vib)   ...       0.00 
freq.    1548.14  E(vib)   ...       0.00 
freq.    1578.42  E(vib)   ...       0.00 
freq.    1656.02  E(vib)   ...       0.00 
freq.    1772.23  E(vib)   ...       0.00 
freq.    1784.91  E(vib)   ...       0.00 
freq.    2988.91  E(vib)   ...       0.00 
freq.    3009.62  E(vib)   ...       0.00 
freq.    3011.10  E(vib)   ...       0.00 
freq.    3036.11  E(vib)   ...       0.00 
freq.    3055.73  E(vib)   ...       0.00 
freq.    3081.09  E(vib)   ...       0.00 
freq.    3082.26  E(vib)   ...       0.00 
freq.    3089.19  E(vib)   ...       0.00 
freq.    3100.39  E(vib)   ...       0.00 
freq.    3149.49  E(vib)   ...       0.00 
freq.    3172.03  E(vib)   ...       0.00 
freq.    3183.15  E(vib)   ...       0.00 
freq.    3186.53  E(vib)   ...       0.00 
freq.    3194.33  E(vib)   ...       0.00 
freq.    3526.07  E(vib)   ...       0.00 
freq.    3612.62  E(vib)   ...       0.00 
freq.    3620.47  E(vib)   ...       0.00 
freq.    3672.68  E(vib)   ...       0.00 

------------
INNER ENERGY
------------

The inner energy is: U= E(el) + E(ZPE) + E(vib) + E(rot) + E(trans)
    E(el)   - is the total energy from the electronic structure calculation
              = E(kin-el) + E(nuc-el) + E(el-el) + E(nuc-nuc)
    E(ZPE)  - the the zero temperature vibrational energy from the frequency calculation
    E(vib)  - the the finite temperature correction to E(ZPE) due to population
              of excited vibrational states
    E(rot)  - is the rotational thermal energy
    E(trans)- is the translational thermal energy

Summary of contributions to the inner energy U:
Electronic energy                ...   -668.44620335 Eh
Zero point energy                ...      0.27663264 Eh     173.59 kcal/mol
Thermal vibrational correction   ...      0.01411369 Eh       8.86 kcal/mol
Thermal rotational correction    ...      0.00141627 Eh       0.89 kcal/mol
Thermal translational correction ...      0.00141627 Eh       0.89 kcal/mol
-----------------------------------------------------------------------
Total thermal energy                   -668.15262449 Eh


Summary of corrections to the electronic energy:
(perhaps to be used in another calculation)
Total thermal correction                  0.01694623 Eh      10.63 kcal/mol
Non-thermal (ZPE) correction              0.27663264 Eh     173.59 kcal/mol
-----------------------------------------------------------------------
Total correction                          0.29357887 Eh     184.22 kcal/mol


--------
ENTHALPY
--------

The enthalpy is H = U + kB*T
                kB is Boltzmann's constant
Total free energy                 ...   -668.15262449 Eh 
Thermal Enthalpy correction       ...      0.00094421 Eh       0.59 kcal/mol
-----------------------------------------------------------------------
Total Enthalpy                    ...   -668.15168028 Eh


Note: Only C1 symmetry has been detected, increase convergence thresholds 
      if your molecule has a higher symmetry. Symmetry factor of 1.0 is   
      used for the rotational entropy correction. 
 

Note: Rotational entropy computed according to Herzberg 
Infrared and Raman Spectra, Chapter V,1, Van Nostrand Reinhold, 1945 
Point Group:  C1, Symmetry Number:   1  
Rotational constants in cm-1:     0.020261     0.013835     0.009410 

Vibrational entropy computed according to the QRRHO of S. Grimme
Chem.Eur.J. 2012 18 9955


-------
ENTROPY
-------

The entropy contributions are T*S = T*(S(el)+S(vib)+S(rot)+S(trans))
     S(el)   - electronic entropy
     S(vib)  - vibrational entropy
     S(rot)  - rotational entropy
     S(trans)- translational entropy
The entropies will be listed as multiplied by the temperature to get
units of energy

Electronic entropy                ...      0.00065446 Eh      0.41 kcal/mol
Vibrational entropy               ...      0.02567711 Eh     16.11 kcal/mol
Rotational entropy                ...      0.01557509 Eh      9.77 kcal/mol
Translational entropy             ...      0.01985478 Eh     12.46 kcal/mol
-----------------------------------------------------------------------
Final entropy term                ...      0.06176144 Eh     38.76 kcal/mol

In case the symmetry of your molecule has not been determined correctly
or in case you have a reason to use a different symmetry number we print 
out the resulting rotational entropy values for sn=1,12 :
 --------------------------------------------------------
|  sn= 1 | S(rot)=       0.01557509 Eh      9.77 kcal/mol|
|  sn= 2 | S(rot)=       0.01492063 Eh      9.36 kcal/mol|
|  sn= 3 | S(rot)=       0.01453780 Eh      9.12 kcal/mol|
|  sn= 4 | S(rot)=       0.01426618 Eh      8.95 kcal/mol|
|  sn= 5 | S(rot)=       0.01405549 Eh      8.82 kcal/mol|
|  sn= 6 | S(rot)=       0.01388335 Eh      8.71 kcal/mol|
|  sn= 7 | S(rot)=       0.01373780 Eh      8.62 kcal/mol|
|  sn= 8 | S(rot)=       0.01361172 Eh      8.54 kcal/mol|
|  sn= 9 | S(rot)=       0.01350051 Eh      8.47 kcal/mol|
|  sn=10 | S(rot)=       0.01340103 Eh      8.41 kcal/mol|
|  sn=11 | S(rot)=       0.01331104 Eh      8.35 kcal/mol|
|  sn=12 | S(rot)=       0.01322889 Eh      8.30 kcal/mol|
 --------------------------------------------------------


-------------------
GIBBS FREE ENERGY
-------------------

The Gibbs free energy is G = H - T*S

Total enthalpy                    ...   -668.15168028 Eh 
Total entropy correction          ...     -0.06176144 Eh    -38.76 kcal/mol
-----------------------------------------------------------------------
Final Gibbs free energy         ...   -668.21344172 Eh

For completeness - the Gibbs free energy minus the electronic energy
G-E(el)                           ...      0.23276164 Eh    146.06 kcal/mol


Timings for individual modules:

Sum of individual times         ...     2249.603 sec (=  37.493 min)
GTO integral calculation        ...       75.768 sec (=   1.263 min)   3.4 %
SCF iterations                  ...     1078.810 sec (=  17.980 min)  48.0 %
SCF Gradient evaluation         ...      338.877 sec (=   5.648 min)  15.1 %
Geometry relaxation             ...        1.254 sec (=   0.021 min)   0.1 %
Analytical frequency calculation...      754.895 sec (=  12.582 min)  33.6 %
                             ****ORCA TERMINATED NORMALLY****
TOTAL RUN TIME: 0 days 0 hours 38 minutes 35 seconds 876 msec
