
                                 *****************
                                 * O   R   C   A *
                                 *****************

                                            #,                                       
                                            ###                                      
                                            ####                                     
                                            #####                                    
                                            ######                                   
                                           ########,                                 
                                     ,,################,,,,,                         
                               ,,#################################,,                 
                          ,,##########################################,,             
                       ,#########################################, ''#####,          
                    ,#############################################,,   '####,        
                  ,##################################################,,,,####,       
                ,###########''''           ''''###############################       
              ,#####''   ,,,,##########,,,,          '''####'''          '####       
            ,##' ,,,,###########################,,,                        '##       
           ' ,,###''''                  '''############,,,                           
         ,,##''                                '''############,,,,        ,,,,,,###''
      ,#''                                            '''#######################'''  
     '                                                          ''''####''''         
             ,#######,   #######,   ,#######,      ##                                
            ,#'     '#,  ##    ##  ,#'     '#,    #''#        ######   ,####,        
            ##       ##  ##   ,#'  ##            #'  '#       #        #'  '#        
            ##       ##  #######   ##           ,######,      #####,   #    #        
            '#,     ,#'  ##    ##  '#,     ,#' ,#      #,         ##   #,  ,#        
             '#######'   ##     ##  '#######'  #'      '#     #####' # '####'        



                  #######################################################
                  #                        -***-                        #
                  #          Department of theory and spectroscopy      #
                  #    Directorship and core code : Frank Neese         #
                  #        Max Planck Institute fuer Kohlenforschung    #
                  #                Kaiser Wilhelm Platz 1               #
                  #                 D-45470 Muelheim/Ruhr               #
                  #                      Germany                        #
                  #                                                     #
                  #                  All rights reserved                #
                  #                        -***-                        #
                  #######################################################


                         Program Version 5.0.4 -  RELEASE  -


 With contributions from (in alphabetic order):
   Daniel Aravena         : Magnetic Suceptibility
   Michael Atanasov       : Ab Initio Ligand Field Theory (pilot matlab implementation)
   Alexander A. Auer      : GIAO ZORA, VPT2 properties, NMR spectrum
   Ute Becker             : Parallelization
   Giovanni Bistoni       : ED, misc. LED, open-shell LED, HFLD
   Martin Brehm           : Molecular dynamics
   Dmytro Bykov           : SCF Hessian
   Vijay G. Chilkuri      : MRCI spin determinant printing, contributions to CSF-ICE
   Dipayan Datta          : RHF DLPNO-CCSD density
   Achintya Kumar Dutta   : EOM-CC, STEOM-CC
   Dmitry Ganyushin       : Spin-Orbit,Spin-Spin,Magnetic field MRCI
   Miquel Garcia          : C-PCM and meta-GGA Hessian, CC/C-PCM, Gaussian charge scheme
   Yang Guo               : DLPNO-NEVPT2, F12-NEVPT2, CIM, IAO-localization
   Andreas Hansen         : Spin unrestricted coupled pair/coupled cluster methods
   Benjamin Helmich-Paris : MC-RPA, TRAH-SCF, COSX integrals
   Lee Huntington         : MR-EOM, pCC
   Robert Izsak           : Overlap fitted RIJCOSX, COSX-SCS-MP3, EOM
   Marcus Kettner         : VPT2
   Christian Kollmar      : KDIIS, OOCD, Brueckner-CCSD(T), CCSD density, CASPT2, CASPT2-K
   Simone Kossmann        : Meta GGA functionals, TD-DFT gradient, OOMP2, MP2 Hessian
   Martin Krupicka        : Initial AUTO-CI
   Lucas Lang             : DCDCAS
   Marvin Lechner         : AUTO-CI (C++ implementation), FIC-MRCC
   Dagmar Lenk            : GEPOL surface, SMD
   Dimitrios Liakos       : Extrapolation schemes; Compound Job, initial MDCI parallelization
   Dimitrios Manganas     : Further ROCIS development; embedding schemes
   Dimitrios Pantazis     : SARC Basis sets
   Anastasios Papadopoulos: AUTO-CI, single reference methods and gradients
   Taras Petrenko         : DFT Hessian,TD-DFT gradient, ASA, ECA, R-Raman, ABS, FL, XAS/XES, NRVS
   Peter Pinski           : DLPNO-MP2, DLPNO-MP2 Gradient
   Christoph Reimann      : Effective Core Potentials
   Marius Retegan         : Local ZFS, SOC
   Christoph Riplinger    : Optimizer, TS searches, QM/MM, DLPNO-CCSD(T), (RO)-DLPNO pert. Triples
   Tobias Risthaus        : Range-separated hybrids, TD-DFT gradient, RPA, STAB
   Michael Roemelt        : Original ROCIS implementation
   Masaaki Saitow         : Open-shell DLPNO-CCSD energy and density
   Barbara Sandhoefer     : DKH picture change effects
   Avijit Sen             : IP-ROCIS
   Kantharuban Sivalingam : CASSCF convergence, NEVPT2, FIC-MRCI
   Bernardo de Souza      : ESD, SOC TD-DFT
   Georgi Stoychev        : AutoAux, RI-MP2 NMR, DLPNO-MP2 response
   Willem Van den Heuvel  : Paramagnetic NMR
   Boris Wezisla          : Elementary symmetry handling
   Frank Wennmohs         : Technical directorship


 We gratefully acknowledge several colleagues who have allowed us to
 interface, adapt or use parts of their codes:
   Stefan Grimme, W. Hujo, H. Kruse, P. Pracht,  : VdW corrections, initial TS optimization,
                  C. Bannwarth, S. Ehlert          DFT functionals, gCP, sTDA/sTD-DF
   Ed Valeev, F. Pavosevic, A. Kumar             : LibInt (2-el integral package), F12 methods
   Garnet Chan, S. Sharma, J. Yang, R. Olivares  : DMRG
   Ulf Ekstrom                                   : XCFun DFT Library
   Mihaly Kallay                                 : mrcc  (arbitrary order and MRCC methods)
   Jiri Pittner, Ondrej Demel                    : Mk-CCSD
   Frank Weinhold                                : gennbo (NPA and NBO analysis)
   Christopher J. Cramer and Donald G. Truhlar   : smd solvation model
   Lars Goerigk                                  : TD-DFT with DH, B97 family of functionals
   V. Asgeirsson, H. Jonsson                     : NEB implementation
   FAccTs GmbH                                   : IRC, NEB, NEB-TS, DLPNO-Multilevel, CI-OPT
                                                   MM, QMMM, 2- and 3-layer-ONIOM, Crystal-QMMM,
                                                   LR-CPCM, SF, NACMEs, symmetry and pop. for TD-DFT,
                                                   nearIR, NL-DFT gradient (VV10), updates on ESD,
                                                   ML-optimized integration grids
   S Lehtola, MJT Oliveira, MAL Marques          : LibXC Library
   Liviu Ungur et al                             : ANISO software


 Your calculation uses the libint2 library for the computation of 2-el integrals
 For citations please refer to: http://libint.valeyev.net

 Your ORCA version has been built with support for libXC version: 5.1.0
 For citations please refer to: https://tddft.org/programs/libxc/

 This ORCA versions uses:
   CBLAS   interface :  Fast vector & matrix operations
   LAPACKE interface :  Fast linear algebra routines
   SCALAPACK package :  Parallel linear algebra routines
   Shared memory     :  Shared parallel matrices
   BLAS/LAPACK       :  OpenBLAS 0.3.15  USE64BITINT DYNAMIC_ARCH NO_AFFINITY Zen SINGLE_THREADED
        Core in use  :  Zen
   Copyright (c) 2011-2014, The OpenBLAS Project




***************************************
The coordinates will be read from file: model.xyz
***************************************


================================================================================

----- Orbital basis set information -----
Your calculation utilizes the basis: EPR-II
   V. Barone, in Recent Advances in Density Functional Methods, Part 1 (ed. D. P. Chong), World Scientific, Singapore, 1995, p. 287.

----- AuxJ basis set information -----
Your calculation utilizes the auxiliary basis: def2/J
   F. Weigend, Phys. Chem. Chem. Phys. 8, 1057 (2006).

================================================================================
                                        WARNINGS
                       Please study these warnings very carefully!
================================================================================


WARNING: your system is open-shell and RHF/RKS was chosen
  ===> : WILL SWITCH to UHF/UKS


WARNING: Geometry Optimization
  ===> : Switching off AutoStart
         For restart on a previous wavefunction, please use MOREAD

INFO   : the flag for use of the SHARK integral package has been found!

================================================================================
                                       INPUT FILE
================================================================================
NAME = opt.inp
|  1> ! B3LYP EPR-II OPT
|  2> %pal nprocs 16 end
|  3> *XYZFile 0 2 model.xyz
|  4> 
|  5>                          ****END OF INPUT****
================================================================================

                       *****************************
                       * Geometry Optimization Run *
                       *****************************

Geometry optimization settings:
Update method            Update   .... BFGS
Choice of coordinates    CoordSys .... Z-matrix Internals
Initial Hessian          InHess   .... Almoef's Model

Convergence Tolerances:
Energy Change            TolE     ....  5.0000e-06 Eh
Max. Gradient            TolMAXG  ....  3.0000e-04 Eh/bohr
RMS Gradient             TolRMSG  ....  1.0000e-04 Eh/bohr
Max. Displacement        TolMAXD  ....  4.0000e-03 bohr
RMS Displacement         TolRMSD  ....  2.0000e-03 bohr
Strict Convergence                ....  False
------------------------------------------------------------------------------
                        ORCA OPTIMIZATION COORDINATE SETUP
------------------------------------------------------------------------------

The optimization will be done in new redundant internal coordinates
Making redundant internal coordinates   ...  (new redundants) done
Evaluating the initial hessian          ...  (Almloef) done
Evaluating the coordinates              ...  done
Calculating the B-matrix                .... done
Calculating the G-matrix                .... done
Diagonalizing the G-matrix              .... done
Small eigenvalue found = 6.053e-03
Small eigenvalue found = 6.653e-03
Small eigenvalue found = 9.967e-03
Small eigenvalue found = 2.407e-02
Small eigenvalue found = 2.816e-02
The first mode is                       ....   63
The number of degrees of freedom        ....   90

    -----------------------------------------------------------------
                    Redundant Internal Coordinates


    -----------------------------------------------------------------
         Definition                    Initial Value    Approx d2E/dq
    -----------------------------------------------------------------
      1. B(C   1,N   0)                  1.4419         0.462449   
      2. B(C   2,C   1)                  1.5379         0.362867   
      3. B(O   3,C   2)                  1.2178         1.053610   
      4. B(C   4,C   1)                  1.5508         0.346141   
      5. B(C   5,C   4)                  1.4994         0.418066   
      6. B(C   6,C   5)                  1.4985         0.419475   
      7. B(C   7,C   6)                  1.5355         0.366121   
      8. B(N   8,C   7)                  1.4637         0.426848   
      9. B(H   9,C   6)                  1.1042         0.341791   
     10. B(H  10,C   6)                  1.1061         0.339380   
     11. B(H  11,C   7)                  1.0984         0.349100   
     12. B(H  12,C   7)                  1.1043         0.341632   
     13. B(H  13,N   8)                  1.0146         0.425419   
     14. B(H  14,N   8)                  1.0159         0.423475   
     15. B(H  15,N   0)                  1.0109         0.431247   
     16. B(C  16,N   0)                  1.3551         0.636131   
     17. B(N  17,C   2)                  1.3498         0.648619   
     18. B(H  18,N  17)                  1.0072         0.437177   
     19. B(O  19,C  16)                  1.2176         1.054211   
     20. B(C  20,C  16)                  1.5225         0.384059   
     21. B(H  21,C  20)                  1.0954         0.353005   
     22. B(H  22,C  20)                  1.0961         0.352082   
     23. B(H  23,C  20)                  1.0949         0.353616   
     24. B(C  24,N  17)                  1.4512         0.446938   
     25. B(H  25,C  24)                  1.0965         0.351574   
     26. B(H  26,C  24)                  1.0937         0.355213   
     27. B(H  27,C  24)                  1.0965         0.351574   
     28. B(H  28,C   1)                  1.0983         0.349303   
     29. B(H  29,C   4)                  1.1071         0.338149   
     30. B(H  30,C   4)                  1.1012         0.345603   
     31. B(H  31,C   5)                  1.0905         0.359374   
     32. A(C   1,N   0,C  16)          121.8681         0.408471   
     33. A(C   1,N   0,H  15)          115.8206         0.341162   
     34. A(H  15,N   0,C  16)          122.1427         0.360033   
     35. A(N   0,C   1,H  28)          108.5155         0.332251   
     36. A(C   4,C   1,H  28)          107.9805         0.318703   
     37. A(N   0,C   1,C   2)          107.1784         0.372687   
     38. A(C   2,C   1,C   4)          110.8627         0.356887   
     39. A(C   2,C   1,H  28)          109.8628         0.321170   
     40. A(N   0,C   1,C   4)          112.4093         0.369673   
     41. A(O   3,C   2,N  17)          122.5476         0.475620   
     42. A(C   1,C   2,O   3)          121.8953         0.430807   
     43. A(C   1,C   2,N  17)          115.5393         0.395262   
     44. A(C   1,C   4,H  30)          106.9407         0.318150   
     45. A(C   1,C   4,H  29)          108.5518         0.317022   
     46. A(H  29,C   4,H  30)          105.5001         0.286144   
     47. A(C   5,C   4,H  29)          110.4970         0.326977   
     48. A(C   5,C   4,H  30)          110.9944         0.328154   
     49. A(C   1,C   4,C   5)          113.9465         0.365612   
     50. A(C   4,C   5,H  31)          119.3818         0.330279   
     51. A(C   6,C   5,H  31)          119.5023         0.330462   
     52. A(C   4,C   5,C   6)          120.4400         0.377908   
     53. A(C   5,C   6,C   7)          113.1006         0.369361   
     54. A(H   9,C   6,H  10)          105.3391         0.285812   
     55. A(C   7,C   6,H  10)          107.9483         0.320127   
     56. A(C   5,C   6,H  10)          111.0037         0.327354   
     57. A(C   7,C   6,H   9)          109.4519         0.320497   
     58. A(C   5,C   6,H   9)          109.6907         0.327736   
     59. A(N   8,C   7,H  11)          107.8756         0.327849   
     60. A(C   6,C   7,H  11)          108.8441         0.321609   
     61. A(H  11,C   7,H  12)          107.1701         0.287053   
     62. A(N   8,C   7,H  12)          113.6512         0.326682   
     63. A(C   6,C   7,N   8)          110.2835         0.368153   
     64. A(C   6,C   7,H  12)          108.8733         0.320473   
     65. A(H  13,N   8,H  14)          107.1534         0.301396   
     66. A(C   7,N   8,H  14)          110.6307         0.335613   
     67. A(C   7,N   8,H  13)          111.0489         0.335869   
     68. A(O  19,C  16,C  20)          121.8588         0.435271   
     69. A(N   0,C  16,C  20)          115.9447         0.397860   
     70. A(N   0,C  16,O  19)          122.1955         0.473972   
     71. A(C   2,N  17,H  18)          119.1771         0.362071   
     72. A(H  18,N  17,C  24)          119.3869         0.339997   
     73. A(C   2,N  17,C  24)          121.4256         0.407411   
     74. A(C  16,C  20,H  21)          108.3642         0.324733   
     75. A(H  22,C  20,H  23)          109.3865         0.288989   
     76. A(H  21,C  20,H  23)          109.5728         0.289108   
     77. A(C  16,C  20,H  23)          113.3603         0.324826   
     78. A(H  21,C  20,H  22)          107.7223         0.288911   
     79. A(C  16,C  20,H  22)          108.2744         0.324594   
     80. A(H  26,C  24,H  27)          109.3394         0.289128   
     81. A(H  25,C  24,H  27)          108.1910         0.288662   
     82. A(N  17,C  24,H  27)          110.5334         0.330734   
     83. A(H  25,C  24,H  26)          109.3111         0.289128   
     84. A(N  17,C  24,H  26)          108.7819         0.331298   
     85. A(N  17,C  24,H  25)          110.6630         0.330734   
     86. D(C   4,C   1,N   0,C  16)     76.9531         0.018259   
     87. D(H  28,C   1,N   0,H  15)    132.9733         0.018259   
     88. D(C   4,C   1,N   0,H  15)   -107.6707         0.018259   
     89. D(C   2,C   1,N   0,H  15)     14.3809         0.018259   
     90. D(C   2,C   1,N   0,C  16)   -160.9952         0.018259   
     91. D(H  28,C   1,N   0,C  16)    -42.4028         0.018259   
     92. D(O   3,C   2,C   1,N   0)    -16.1046         0.009889   
     93. D(O   3,C   2,C   1,C   4)    106.9088         0.009889   
     94. D(N  17,C   2,C   1,H  28)     47.6748         0.009889   
     95. D(N  17,C   2,C   1,C   4)    -71.5955         0.009889   
     96. D(O   3,C   2,C   1,H  28)   -133.8209         0.009889   
     97. D(N  17,C   2,C   1,N   0)    165.3910         0.009889   
     98. D(C   5,C   4,C   1,H  28)   -177.3746         0.009671   
     99. D(C   5,C   4,C   1,C   2)    -56.9791         0.009671   
    100. D(H  30,C   4,C   1,C   2)    179.9909         0.009671   
    101. D(H  30,C   4,C   1,N   0)    -60.0723         0.009671   
    102. D(H  29,C   4,C   1,H  28)    -53.7891         0.009671   
    103. D(H  30,C   4,C   1,H  28)     59.5953         0.009671   
    104. D(H  29,C   4,C   1,C   2)     66.6064         0.009671   
    105. D(H  29,C   4,C   1,N   0)   -173.4567         0.009671   
    106. D(C   5,C   4,C   1,N   0)     62.9578         0.009671   
    107. D(H  31,C   5,C   4,H  29)   -109.4945         0.012928   
    108. D(H  31,C   5,C   4,C   1)     13.0310         0.012928   
    109. D(C   6,C   5,C   4,H  30)    -55.6441         0.012928   
    110. D(C   6,C   5,C   4,H  29)     61.0383         0.012928   
    111. D(H  31,C   5,C   4,H  30)    133.8230         0.012928   
    112. D(C   6,C   5,C   4,C   1)   -176.4361         0.012928   
    113. D(H   9,C   6,C   5,C   4)     45.6572         0.013012   
    114. D(C   7,C   6,C   5,H  31)    -21.3295         0.013012   
    115. D(C   7,C   6,C   5,C   4)    168.1490         0.013012   
    116. D(H   9,C   6,C   5,H  31)   -143.8213         0.013012   
    117. D(H  10,C   6,C   5,H  31)    100.1797         0.013012   
    118. D(H  10,C   6,C   5,C   4)    -70.3418         0.013012   
    119. D(H  12,C   7,C   6,H  10)    178.9175         0.010730   
    120. D(H  12,C   7,C   6,H   9)     64.7568         0.010730   
    121. D(H  12,C   7,C   6,C   5)    -57.8680         0.010730   
    122. D(H  11,C   7,C   6,H  10)    -64.5745         0.010730   
    123. D(H  11,C   7,C   6,H   9)   -178.7352         0.010730   
    124. D(H  11,C   7,C   6,C   5)     58.6401         0.010730   
    125. D(N   8,C   7,C   6,H  10)     53.5840         0.010730   
    126. D(N   8,C   7,C   6,H   9)    -60.5767         0.010730   
    127. D(N   8,C   7,C   6,C   5)    176.7985         0.010730   
    128. D(H  14,N   8,C   7,H  12)    -58.1754         0.015534   
    129. D(H  14,N   8,C   7,H  11)   -176.8527         0.015534   
    130. D(H  14,N   8,C   7,C   6)     64.3957         0.015534   
    131. D(H  13,N   8,C   7,H  12)     60.6773         0.015534   
    132. D(H  13,N   8,C   7,H  11)    -58.0000         0.015534   
    133. D(H  13,N   8,C   7,C   6)   -176.7515         0.015534   
    134. D(C  20,C  16,N   0,H  15)      2.7296         0.032903   
    135. D(C  20,C  16,N   0,C   1)    177.8133         0.032903   
    136. D(O  19,C  16,N   0,H  15)   -176.9367         0.032903   
    137. D(O  19,C  16,N   0,C   1)     -1.8531         0.032903   
    138. D(C  24,N  17,C   2,O   3)     -1.9543         0.034321   
    139. D(C  24,N  17,C   2,C   1)    176.5392         0.034321   
    140. D(H  18,N  17,C   2,O   3)    179.2260         0.034321   
    141. D(H  18,N  17,C   2,C   1)     -2.2805         0.034321   
    142. D(H  23,C  20,C  16,O  19)   -177.0783         0.010993   
    143. D(H  23,C  20,C  16,N   0)      3.2542         0.010993   
    144. D(H  22,C  20,C  16,O  19)     61.3605         0.010993   
    145. D(H  22,C  20,C  16,N   0)   -118.3071         0.010993   
    146. D(H  21,C  20,C  16,O  19)    -55.2162         0.010993   
    147. D(H  21,C  20,C  16,N   0)    125.1163         0.010993   
    148. D(H  25,C  24,N  17,C   2)     61.0316         0.017038   
    149. D(H  27,C  24,N  17,H  18)    120.0118         0.017038   
    150. D(H  27,C  24,N  17,C   2)    -58.8055         0.017038   
    151. D(H  26,C  24,N  17,H  18)     -0.0475         0.017038   
    152. D(H  26,C  24,N  17,C   2)   -178.8648         0.017038   
    153. D(H  25,C  24,N  17,H  18)   -120.1511         0.017038   
    -----------------------------------------------------------------

Number of atoms                         .... 32
Number of degrees of freedom            .... 153

         *************************************************************
         *                GEOMETRY OPTIMIZATION CYCLE   1            *
         *************************************************************
---------------------------------
CARTESIAN COORDINATES (ANGSTROEM)
---------------------------------
  N     -1.801874    0.722097    0.722027
  C     -1.530168   -0.141596   -0.400159
  C     -1.631676   -1.590110    0.106486
  O     -1.611050   -1.859364    1.293923
  C     -0.138607    0.127076   -1.029631
  C      1.010031   -0.140323   -0.103758
  C      2.415900    0.146857   -0.535529
  C      3.424737    0.089892    0.620637
  N      4.783308    0.303707    0.119618
  H      2.462170    1.140302   -1.015315
  H      2.746245   -0.568625   -1.311728
  H      3.386583   -0.909036    1.075904
  H      3.119755    0.813791    1.396848
  H      5.465014    0.215663    0.865934
  H      4.879756    1.238791   -0.265492
  H     -1.777000    0.282597    1.632072
  C     -2.163080    2.017672    0.556716
  N     -1.712725   -2.537420   -0.851654
  H     -1.738035   -2.256848   -1.818658
  O     -2.246099    2.532707   -0.543465
  C     -2.467733    2.792098    1.831609
  H     -1.840017    3.689664    1.848525
  H     -3.513884    3.117209    1.794588
  H     -2.300091    2.209999    2.743730
  C     -1.738571   -3.949746   -0.519048
  H     -2.611794   -4.185345    0.100901
  H     -1.785949   -4.528921   -1.445619
  H     -0.837090   -4.230080    0.038721
  H     -2.291448    0.038302   -1.171082
  H     -0.044731   -0.481562   -1.949665
  H     -0.136588    1.174842   -1.368440
  H      0.834014   -0.687387    0.823084

----------------------------
CARTESIAN COORDINATES (A.U.)
----------------------------
  NO LB      ZA    FRAG     MASS         X           Y           Z
   0 N     7.0000    0    14.007   -3.405048    1.364566    1.364433
   1 C     6.0000    0    12.011   -2.891598   -0.267578   -0.756191
   2 C     6.0000    0    12.011   -3.083421   -3.004872    0.201229
   3 O     8.0000    0    15.999   -3.044443   -3.513689    2.445160
   4 C     6.0000    0    12.011   -0.261929    0.240139   -1.945721
   5 C     6.0000    0    12.011    1.908682   -0.265172   -0.196074
   6 C     6.0000    0    12.011    4.565389    0.277520   -1.012003
   7 C     6.0000    0    12.011    6.471815    0.169871    1.172834
   8 N     7.0000    0    14.007    9.039142    0.573923    0.226045
   9 H     1.0000    0     1.008    4.652827    2.154858   -1.918667
  10 H     1.0000    0     1.008    5.189651   -1.074546   -2.478807
  11 H     1.0000    0     1.008    6.399714   -1.717829    2.033164
  12 H     1.0000    0     1.008    5.895483    1.537842    2.639660
  13 H     1.0000    0     1.008   10.327380    0.407544    1.636378
  14 H     1.0000    0     1.008    9.221402    2.340976   -0.501707
  15 H     1.0000    0     1.008   -3.358043    0.534031    3.084169
  16 C     6.0000    0    12.011   -4.087629    3.812848    1.052041
  17 N     7.0000    0    14.007   -3.236581   -4.795029   -1.609393
  18 H     1.0000    0     1.008   -3.284410   -4.264825   -3.436766
  19 O     8.0000    0    15.999   -4.244512    4.786123   -1.027000
  20 C     6.0000    0    12.011   -4.663340    5.276301    3.461239
  21 H     1.0000    0     1.008   -3.477128    6.972454    3.493206
  22 H     1.0000    0     1.008   -6.640278    5.890671    3.391280
  23 H     1.0000    0     1.008   -4.346542    4.176293    5.184898
  24 C     6.0000    0    12.011   -3.285423   -7.463938   -0.980859
  25 H     1.0000    0     1.008   -4.935575   -7.909156    0.190675
  26 H     1.0000    0     1.008   -3.374954   -8.558420   -2.731824
  27 H     1.0000    0     1.008   -1.581871   -7.993693    0.073172
  28 H     1.0000    0     1.008   -4.330209    0.072380   -2.213024
  29 H     1.0000    0     1.008   -0.084529   -0.910020   -3.684333
  30 H     1.0000    0     1.008   -0.258114    2.220130   -2.585977
  31 H     1.0000    0     1.008    1.576058   -1.298973    1.555403

--------------------------------
INTERNAL COORDINATES (ANGSTROEM)
--------------------------------
 N      0   0   0     0.000000000000     0.00000000     0.00000000
 C      1   0   0     1.441905394706     0.00000000     0.00000000
 C      2   1   0     1.537916069974   107.17835874     0.00000000
 O      3   2   1     1.217756041808   121.89534102   343.89536357
 C      2   1   3     1.550761638386   112.40934018   237.94834878
 C      5   2   1     1.499370632090   113.94648722    62.95781043
 C      6   5   2     1.498454601916   120.43998533   183.56387434
 C      7   6   5     1.535485891615   113.10063177   168.14901479
 N      8   7   6     1.463711738911   110.28354760   176.79852300
 H      7   6   5     1.104204911564   109.69068169    45.65719604
 H      7   6   5     1.106131637261   111.00367689   289.65816771
 H      8   7   6     1.098444772480   108.84409739    58.64005176
 H      8   7   6     1.104331154612   108.87331814   302.13200573
 H      9   8   7     1.014624259629   111.04893183   183.24845033
 H      9   8   7     1.015871062616   110.63069564    64.39567910
 H      1   2   3     1.010920801992   115.82064015    14.38094124
 C      1   2   3     1.355105930096   121.86813518   199.00476688
 N      3   2   1     1.349813852389   115.53926765   165.39104976
 H     18   3   2     1.007203047702   119.17706177   357.71951742
 O     17   1   2     1.217600689203   122.19554209   358.14694537
 C     17   1   2     1.522465514005   115.94474150   177.81326326
 H     21  17   1     1.095416930702   108.36416603   125.11626167
 H     21  17   1     1.096129386324   108.27443543   241.69292280
 H     21  17   1     1.094946484814   113.36025816     3.25417798
 C     18   3   2     1.451192439764   121.42563266   176.53923197
 H     25  18   3     1.096522712547   110.66298971    61.03164225
 H     25  18   3     1.093719421767   108.78193003   181.13524372
 H     25  18   3     1.096522413030   110.53336541   301.19447332
 H      2   1   3     1.098286301805   108.51550715   118.59239919
 H      5   2   1     1.107120354603   108.55180436   186.54327424
 H      5   2   1     1.101185363868   106.94070102   299.92774945
 H      6   5   2     1.090548988973   119.38180529    13.03102903

---------------------------
INTERNAL COORDINATES (A.U.)
---------------------------
 N      0   0   0     0.000000000000     0.00000000     0.00000000
 C      1   0   0     2.724806307017     0.00000000     0.00000000
 C      2   1   0     2.906240189208   107.17835874     0.00000000
 O      3   2   1     2.301225416946   121.89534102   343.89536357
 C      2   1   3     2.930514795540   112.40934018   237.94834878
 C      5   2   1     2.833399867895   113.94648722    62.95781043
 C      6   5   2     2.831668821734   120.43998533   183.56387434
 C      7   6   5     2.901647817653   113.10063177   168.14901479
 N      8   7   6     2.766014325548   110.28354760   176.79852300
 H      7   6   5     2.086644878586   109.69068169    45.65719604
 H      7   6   5     2.090285862489   111.00367689   289.65816771
 H      8   7   6     2.075759793225   108.84409739    58.64005176
 H      8   7   6     2.086883443373   108.87331814   302.13200573
 H      9   8   7     1.917361979532   111.04893183   183.24845033
 H      9   8   7     1.919718095719   110.63069564    64.39567910
 H      1   2   3     1.910363458850   115.82064015    14.38094124
 C      1   2   3     2.560779090335   121.86813518   199.00476688
 N      3   2   1     2.550778512788   115.53926765   165.39104976
 H     18   3   2     1.903337921407   119.17706177   357.71951742
 O     17   1   2     2.300931843067   122.19554209   358.14694537
 C     17   1   2     2.877042869809   115.94474150   177.81326326
 H     21  17   1     2.070038001487   108.36416603   125.11626167
 H     21  17   1     2.071384347496   108.27443543   241.69292280
 H     21  17   1     2.069148987598   113.36025816     3.25417798
 C     18   3   2     2.742356278771   121.42563266   176.53923197
 H     25  18   3     2.072127626338   110.66298971    61.03164225
 H     25  18   3     2.066830174490   108.78193003   181.13524372
 H     25  18   3     2.072127060334   110.53336541   301.19447332
 H      2   1   3     2.075460327049   108.51550715   118.59239919
 H      5   2   1     2.092154267489   108.55180436   186.54327424
 H      5   2   1     2.080938760394   106.94070102   299.92774945
 H      6   5   2     2.060838924783   119.38180529    13.03102903

---------------------
BASIS SET INFORMATION
---------------------
There are 4 groups of distinct atoms

 Group   1 Type N   : 10s5p1d contracted to 6s2p1d pattern {511111/41/1}
 Group   2 Type C   : 10s5p1d contracted to 6s2p1d pattern {511111/41/1}
 Group   3 Type O   : 10s5p1d contracted to 6s2p1d pattern {511111/41/1}
 Group   4 Type H   : 6s1p contracted to 4s1p pattern {3111/1}

Atom   0N    basis set group =>   1
Atom   1C    basis set group =>   2
Atom   2C    basis set group =>   2
Atom   3O    basis set group =>   3
Atom   4C    basis set group =>   2
Atom   5C    basis set group =>   2
Atom   6C    basis set group =>   2
Atom   7C    basis set group =>   2
Atom   8N    basis set group =>   1
Atom   9H    basis set group =>   4
Atom  10H    basis set group =>   4
Atom  11H    basis set group =>   4
Atom  12H    basis set group =>   4
Atom  13H    basis set group =>   4
Atom  14H    basis set group =>   4
Atom  15H    basis set group =>   4
Atom  16C    basis set group =>   2
Atom  17N    basis set group =>   1
Atom  18H    basis set group =>   4
Atom  19O    basis set group =>   3
Atom  20C    basis set group =>   2
Atom  21H    basis set group =>   4
Atom  22H    basis set group =>   4
Atom  23H    basis set group =>   4
Atom  24C    basis set group =>   2
Atom  25H    basis set group =>   4
Atom  26H    basis set group =>   4
Atom  27H    basis set group =>   4
Atom  28H    basis set group =>   4
Atom  29H    basis set group =>   4
Atom  30H    basis set group =>   4
Atom  31H    basis set group =>   4
---------------------------------
AUXILIARY/J BASIS SET INFORMATION
---------------------------------
There are 4 groups of distinct atoms

 Group   1 Type N   : 12s5p4d2f1g contracted to 6s4p3d1f1g pattern {711111/2111/211/2/1}
 Group   2 Type C   : 12s5p4d2f1g contracted to 6s4p3d1f1g pattern {711111/2111/211/2/1}
 Group   3 Type O   : 12s5p4d2f1g contracted to 6s4p3d1f1g pattern {711111/2111/211/2/1}
 Group   4 Type H   : 5s2p1d contracted to 3s1p1d pattern {311/2/1}

Atom   0N    basis set group =>   1
Atom   1C    basis set group =>   2
Atom   2C    basis set group =>   2
Atom   3O    basis set group =>   3
Atom   4C    basis set group =>   2
Atom   5C    basis set group =>   2
Atom   6C    basis set group =>   2
Atom   7C    basis set group =>   2
Atom   8N    basis set group =>   1
Atom   9H    basis set group =>   4
Atom  10H    basis set group =>   4
Atom  11H    basis set group =>   4
Atom  12H    basis set group =>   4
Atom  13H    basis set group =>   4
Atom  14H    basis set group =>   4
Atom  15H    basis set group =>   4
Atom  16C    basis set group =>   2
Atom  17N    basis set group =>   1
Atom  18H    basis set group =>   4
Atom  19O    basis set group =>   3
Atom  20C    basis set group =>   2
Atom  21H    basis set group =>   4
Atom  22H    basis set group =>   4
Atom  23H    basis set group =>   4
Atom  24C    basis set group =>   2
Atom  25H    basis set group =>   4
Atom  26H    basis set group =>   4
Atom  27H    basis set group =>   4
Atom  28H    basis set group =>   4
Atom  29H    basis set group =>   4
Atom  30H    basis set group =>   4
Atom  31H    basis set group =>   4


           ************************************************************
           *        Program running with 16 parallel MPI-processes    *
           *              working on a common directory               *
           ************************************************************
------------------------------------------------------------------------------
                           ORCA GTO INTEGRAL CALCULATION
                           -- RI-GTO INTEGRALS CHOSEN --
------------------------------------------------------------------------------
------------------------------------------------------------------------------
                   ___                                                        
                  /   \      - P O W E R E D   B Y -                         
                 /     \                                                     
                 |  |  |   _    _      __       _____    __    __             
                 |  |  |  | |  | |    /  \     |  _  \  |  |  /  |          
                  \  \/   | |  | |   /    \    | | | |  |  | /  /          
                 / \  \   | |__| |  /  /\  \   | |_| |  |  |/  /          
                |  |  |   |  __  | /  /__\  \  |    /   |      \           
                |  |  |   | |  | | |   __   |  |    \   |  |\   \          
                \     /   | |  | | |  |  |  |  | |\  \  |  | \   \       
                 \___/    |_|  |_| |__|  |__|  |_| \__\ |__|  \__/        
                                                                              
                      - O R C A' S   B I G   F R I E N D -                    
                                      &                                       
                       - I N T E G R A L  F E E D E R -                       
                                                                              
 v1 FN, 2020, v2 2021                                                         
------------------------------------------------------------------------------


Reading SHARK input file opt.SHARKINP.tmp ... ok
----------------------
SHARK INTEGRAL PACKAGE
----------------------

Number of atoms                             ...     32
Number of basis functions                   ...    364
Number of shells                            ...    216
Maximum angular momentum                    ...      2
Integral batch strategy                     ... SHARK/LIBINT Hybrid
RI-J (if used) integral strategy            ... SPLIT-RIJ (Revised 2003 algorithm where possible)
Printlevel                                  ...      1
Contraction scheme used                     ... SEGMENTED contraction
Coulomb Range Separation                    ... NOT USED
Exchange Range Separation                   ... NOT USED
Finite Nucleus Model                        ... NOT USED
Auxiliary Coulomb fitting basis             ... AVAILABLE
   # of basis functions in Aux-J            ...    884
   # of shells in Aux-J                     ...    300
   Maximum angular momentum in Aux-J        ...      4
Auxiliary J/K fitting basis                 ... NOT available
Auxiliary Correlation fitting basis         ... NOT available
Auxiliary 'external' fitting basis          ... NOT available
Integral threshold                          ...     2.500000e-11
Primitive cut-off                           ...     2.500000e-12
Primitive pair pre-selection threshold      ...     2.500000e-12

Calculating pre-screening integrals         ... done (  0.0 sec) Dimension = 216
Organizing shell pair data                  ... done (  0.0 sec)
Shell pair information
Total number of shell pairs                 ...     23436
Shell pairs after pre-screening             ...     15275
Total number of primitive shell pairs       ...     61703
Primitive shell pairs kept                  ...     29244
          la=0 lb=0:   7164 shell pairs
          la=1 lb=0:   5214 shell pairs
          la=1 lb=1:    894 shell pairs
          la=2 lb=0:   1417 shell pairs
          la=2 lb=1:    504 shell pairs
          la=2 lb=2:     82 shell pairs

Calculating one electron integrals          ... done (  0.0 sec)
Calculating RI/J V-Matrix + Cholesky decomp.... done (  0.0 sec)
Calculating Nuclear repulsion               ... done (  0.0 sec) ENN=    920.783721423614 Eh

SHARK setup successfully completed in   0.2 seconds

Maximum memory used throughout the entire GTOINT-calculation: 22.1 MB


           ************************************************************
           *        Program running with 16 parallel MPI-processes    *
           *              working on a common directory               *
           ************************************************************
-------------------------------------------------------------------------------
                                 ORCA SCF
-------------------------------------------------------------------------------

------------
SCF SETTINGS
------------
Hamiltonian:
 Density Functional     Method          .... DFT(GTOs)
 Exchange Functional    Exchange        .... B88
   X-Alpha parameter    XAlpha          ....  0.666667
   Becke's b parameter  XBeta           ....  0.004200
 Correlation Functional Correlation     .... LYP
 LDA part of GGA corr.  LDAOpt          .... VWN-5
 Gradients option       PostSCFGGA      .... off
 Hybrid DFT is turned on
   Fraction HF Exchange ScalHFX         ....  0.200000
   Scaling of DF-GGA-X  ScalDFX         ....  0.720000
   Scaling of DF-GGA-C  ScalDFC         ....  0.810000
   Scaling of DF-LDA-C  ScalLDAC        ....  1.000000
   Perturbative correction              ....  0.000000
   Density functional embedding theory  .... OFF
   NL short-range parameter             ....  4.800000
 RI-approximation to the Coulomb term is turned on
   Number of AuxJ basis functions       .... 884
   RIJ-COSX (HFX calculated with COS-X)).... on


General Settings:
 Integral files         IntName         .... opt
 Hartree-Fock type      HFTyp           .... UHF
 Total Charge           Charge          ....    0
 Multiplicity           Mult            ....    2
 Number of Electrons    NEL             ....  109
 Basis Dimension        Dim             ....  364
 Nuclear Repulsion      ENuc            ....    920.7837214236 Eh

Convergence Acceleration:
 DIIS                   CNVDIIS         .... on
   Start iteration      DIISMaxIt       ....    12
   Startup error        DIISStart       ....  0.200000
   # of expansion vecs  DIISMaxEq       ....     5
   Bias factor          DIISBfac        ....   1.050
   Max. coefficient     DIISMaxC        ....  10.000
 Trust-Rad. Augm. Hess. CNVTRAH         .... auto
   Auto Start mean grad. ratio tolernc. ....  1.125000
   Auto Start start iteration           ....    20
   Auto Start num. interpolation iter.  ....    10
   Max. Number of Micro iterations      ....    16
   Max. Number of Macro iterations      .... Maxiter - #DIIS iter
   Number of Davidson start vectors     ....     2
   Converg. threshold I  (grad. norm)   ....   1.000e-05
   Converg. threshold II (energy diff.) ....   1.000e-08
   Grad. Scal. Fac. for Micro threshold ....   0.100
   Minimum threshold for Micro iter.    ....   0.010
   NR start threshold (gradient norm)   ....   0.001
   Initial trust radius                 ....   0.400
   Minimum AH scaling param. (alpha)    ....   1.000
   Maximum AH scaling param. (alpha)    .... 1000.000
   Orbital update algorithm             .... Taylor
   White noise on init. David. guess    .... on
   Maximum white noise                  ....   0.010
   Quad. conv. algorithm                .... NR
 SOSCF                  CNVSOSCF        .... off
 Level Shifting         CNVShift        .... on
   Level shift para.    LevelShift      ....    0.2500
   Turn off err/grad.   ShiftErr        ....    0.0010
 Zerner damping         CNVZerner       .... off
 Static damping         CNVDamp         .... on
   Fraction old density DampFac         ....    0.7000
   Max. Damping (<1)    DampMax         ....    0.9800
   Min. Damping (>=0)   DampMin         ....    0.0000
   Turn off err/grad.   DampErr         ....    0.1000
 Fernandez-Rico         CNVRico         .... off

SCF Procedure:
 Maximum # iterations   MaxIter         ....   125
 SCF integral mode      SCFMode         .... Direct
   Integral package                     .... SHARK and LIBINT hybrid scheme
 Reset frequency        DirectResetFreq ....    20
 Integral Threshold     Thresh          ....  2.500e-11 Eh
 Primitive CutOff       TCut            ....  2.500e-12 Eh

Convergence Tolerance:
 Convergence Check Mode ConvCheckMode   .... Total+1el-Energy
 Convergence forced     ConvForced      .... 0
 Energy Change          TolE            ....  1.000e-08 Eh
 1-El. energy change                    ....  1.000e-05 Eh
 DIIS Error             TolErr          ....  5.000e-07


Diagonalization of the overlap matrix:
Smallest eigenvalue                        ... 9.371e-04
Time for diagonalization                   ...    0.013 sec
Threshold for overlap eigenvalues          ... 1.000e-08
Number of eigenvalues below threshold      ... 0
Time for construction of square roots      ...    0.011 sec
Total time needed                          ...    0.025 sec

Time for model grid setup =    0.108 sec

------------------------------
INITIAL GUESS: MODEL POTENTIAL
------------------------------
Loading Hartree-Fock densities                     ... done
Calculating cut-offs                               ... done
Initializing the effective Hamiltonian             ... done
Setting up the integral package (SHARK)            ... done
Starting the Coulomb interaction                   ... done (   0.0 sec)
Reading the grid                                   ... done
Mapping shells                                     ... done
Starting the XC term evaluation                    ... done (   0.0 sec)
  promolecular density results
     # of electrons  =    108.986517913
     EX              =    -87.745736314
     EC              =     -3.659677173
     EX+EC           =    -91.405413486
Transforming the Hamiltonian                       ... done (   0.0 sec)
Diagonalizing the Hamiltonian                      ... done (   0.0 sec)
Back transforming the eigenvectors                 ... done (   0.0 sec)
Now organizing SCF variables                       ... done
                      ------------------
                      INITIAL GUESS DONE (   0.3 sec)
                      ------------------
-------------------
DFT GRID GENERATION
-------------------

General Integration Accuracy     IntAcc      ... 4.388
Radial Grid Type                 RadialGrid  ... OptM3 with GC (2021)
Angular Grid (max. ang.)         AngularGrid ... 4 (Lebedev-302)
Angular grid pruning method      GridPruning ... 4 (adaptive)
Weight generation scheme         WeightScheme... Becke
Basis function cutoff            BFCut       ... 1.0000e-11
Integration weight cutoff        WCut        ... 1.0000e-14
Angular grids for H and He will be reduced by one unit
Partially contracted basis set               ... off
Rotationally invariant grid construction     ... off

Total number of grid points                  ...   141663
Total number of batches                      ...     2228
Average number of points per batch           ...       63
Average number of grid points per atom       ...     4427
Time for grid setup =    0.582 sec

--------------------
COSX GRID GENERATION
--------------------

GRIDX 1
-------
General Integration Accuracy     IntAcc      ... 3.816
Radial Grid Type                 RadialGrid  ... OptM3 with GC (2021)
Angular Grid (max. ang.)         AngularGrid ... 1 (Lebedev-50)
Angular grid pruning method      GridPruning ... 4 (adaptive)
Weight generation scheme         WeightScheme... Becke
Basis function cutoff            BFCut       ... 1.0000e-11
Integration weight cutoff        WCut        ... 1.0000e-14
Angular grids for H and He will be reduced by one unit
Partially contracted basis set               ... on
Rotationally invariant grid construction     ... off

Total number of grid points                  ...    18097
Total number of batches                      ...      303
Average number of points per batch           ...       59
Average number of grid points per atom       ...      566
UseSFitting                                  ... on

GRIDX 2
-------
General Integration Accuracy     IntAcc      ... 4.020
Radial Grid Type                 RadialGrid  ... OptM3 with GC (2021)
Angular Grid (max. ang.)         AngularGrid ... 2 (Lebedev-110)
Angular grid pruning method      GridPruning ... 4 (adaptive)
Weight generation scheme         WeightScheme... Becke
Basis function cutoff            BFCut       ... 1.0000e-11
Integration weight cutoff        WCut        ... 1.0000e-14
Angular grids for H and He will be reduced by one unit
Partially contracted basis set               ... on
Rotationally invariant grid construction     ... off

Total number of grid points                  ...    38367
Total number of batches                      ...      617
Average number of points per batch           ...       62
Average number of grid points per atom       ...     1199
UseSFitting                                  ... on

GRIDX 3
-------
General Integration Accuracy     IntAcc      ... 4.338
Radial Grid Type                 RadialGrid  ... OptM3 with GC (2021)
Angular Grid (max. ang.)         AngularGrid ... 3 (Lebedev-194)
Angular grid pruning method      GridPruning ... 4 (adaptive)
Weight generation scheme         WeightScheme... Becke
Basis function cutoff            BFCut       ... 1.0000e-11
Integration weight cutoff        WCut        ... 1.0000e-14
Angular grids for H and He will be reduced by one unit
Partially contracted basis set               ... on
Rotationally invariant grid construction     ... off

Total number of grid points                  ...    83571
Total number of batches                      ...     1323
Average number of points per batch           ...       63
Average number of grid points per atom       ...     2612
UseSFitting                                  ... on

Time for X-Grid setup             =    0.690 sec

--------------
SCF ITERATIONS
--------------
ITER       Energy         Delta-E        Max-DP      RMS-DP      [F,P]     Damp
               ***  Starting incremental Fock matrix formation  ***
  0   -667.6892637218   0.000000000000 0.06288300  0.00099102  0.1307543 0.7000
  1   -667.9417361747  -0.252472452899 0.05532125  0.00072223  0.0546267 0.7000
                               ***Turning on DIIS***
  2   -668.0332006890  -0.091464514320 0.08778132  0.00112238  0.0181532 0.0000
  3   -668.1809420577  -0.147741368725 0.04950548  0.00054069  0.0324135 0.0000
  4   -668.2145168333  -0.033574775588 0.01949340  0.00019102  0.0074088 0.0000
  5   -668.2163123455  -0.001795512171 0.00865293  0.00007694  0.0053744 0.0000
  6   -668.2166841844  -0.000371838864 0.00537746  0.00004866  0.0007089 0.0000
               *** Restarting incremental Fock matrix formation ***
                                   *** Resetting DIIS ***
  7   -668.2166751418   0.000009042568 0.00179216  0.00002057  0.0007022 0.0000
  8   -668.2166627628   0.000012378994 0.00075082  0.00000770  0.0010517 0.0000
  9   -668.2166846749  -0.000021912074 0.00030678  0.00000493  0.0002760 0.0000
 10   -668.2166862354  -0.000001560516 0.00012544  0.00000145  0.0000752 0.0000
 11   -668.2166862882  -0.000000052778 0.00008924  0.00000092  0.0000868 0.0000
 12   -668.2166863730  -0.000000084835 0.00002868  0.00000032  0.0000201 0.0000
 13   -668.2166863775  -0.000000004469 0.00001283  0.00000015  0.0000116 0.0000
 14   -668.2166863771   0.000000000400 0.00000721  0.00000007  0.0000048 0.0000
 15   -668.2166863757   0.000000001356 0.00000305  0.00000004  0.0000036 0.0000
                            ***DIIS convergence achieved***

               *****************************************************
               *                     SUCCESS                       *
               *           SCF CONVERGED AFTER  16 CYCLES          *
               *****************************************************

Old exchange energy                            =    -17.870485912 Eh
New exchange energy                            =    -17.870559909 Eh
Exchange energy change after final integration =     -0.000073998 Eh
Total energy after final integration           =   -668.216760370 Eh
Final COS-X integration done in                =     2.213 sec

----------------
TOTAL SCF ENERGY
----------------

Total Energy       :         -668.21676037 Eh          -18183.10246 eV

Components:
Nuclear Repulsion  :          920.78372142 Eh           25055.79887 eV
Electronic Energy  :        -1589.00048179 Eh          -43238.90133 eV
One Electron Energy:        -2735.57818481 Eh          -74438.86681 eV
Two Electron Energy:         1146.57770302 Eh           31199.96547 eV
Max COSX asymmetry :            0.00000170 Eh               0.00005 eV

Virial components:
Potential Energy   :        -1332.05088069 Eh          -36246.94722 eV
Kinetic Energy     :          663.83412032 Eh           18063.84476 eV
Virial Ratio       :            2.00660201


DFT components:
N(Alpha)           :       55.000029208428 electrons
N(Beta)            :       54.000038906716 electrons
N(Total)           :      109.000068115145 electrons
E(X)               :      -70.972552121442 Eh       
E(C)               :       -4.315183642921 Eh       
E(XC)              :      -75.287735764363 Eh       
DFET-embed. en.    :        0.000000000000 Eh       

---------------
SCF CONVERGENCE
---------------

  Last Energy change         ...    3.0899e-09  Tolerance :   1.0000e-08
  Last MAX-Density change    ...    0.0000e+00  Tolerance :   1.0000e-07
  Last RMS-Density change    ...    0.0000e+00  Tolerance :   5.0000e-09
  Last DIIS Error            ...    6.8067e-07  Tolerance :   5.0000e-07

             **** THE GBW FILE WAS UPDATED (opt.gbw) ****
             **** DENSITY opt.scfp WAS UPDATED ****
             **** ENERGY FILE WAS UPDATED (opt.en.tmp) ****
----------------------
UHF SPIN CONTAMINATION
----------------------

Warning: in a DFT calculation there is little theoretical justification to 
         calculate <S**2> as in Hartree-Fock theory. We will do it anyways
         but you should keep in mind that the values have only limited relevance

Expectation value of <S**2>     :     0.754078
Ideal value S*(S+1) for S=0.5   :     0.750000
Deviation                       :     0.004078

             **** THE GBW FILE WAS UPDATED (opt.gbw) ****
             **** DENSITY opt.scfp WAS UPDATED ****
----------------
ORBITAL ENERGIES
----------------
                 SPIN UP ORBITALS
  NO   OCC          E(Eh)            E(eV) 
   0   1.0000     -19.121397      -520.3197 
   1   1.0000     -19.097611      -519.6724 
   2   1.0000     -14.369966      -391.0267 
   3   1.0000     -14.347308      -390.4101 
   4   1.0000     -14.305589      -389.2749 
   5   1.0000     -10.298963      -280.2490 
   6   1.0000     -10.283937      -279.8402 
   7   1.0000     -10.237262      -278.5701 
   8   1.0000     -10.225859      -278.2598 
   9   1.0000     -10.204819      -277.6872 
  10   1.0000     -10.193873      -277.3894 
  11   1.0000     -10.189832      -277.2794 
  12   1.0000     -10.183997      -277.1207 
  13   1.0000     -10.182683      -277.0849 
  14   1.0000      -1.053848       -28.6766 
  15   1.0000      -1.029438       -28.0124 
  16   1.0000      -0.934653       -25.4332 
  17   1.0000      -0.920087       -25.0368 
  18   1.0000      -0.875930       -23.8353 
  19   1.0000      -0.800501       -21.7827 
  20   1.0000      -0.760204       -20.6862 
  21   1.0000      -0.726778       -19.7766 
  22   1.0000      -0.713507       -19.4155 
  23   1.0000      -0.666262       -18.1299 
  24   1.0000      -0.615430       -16.7467 
  25   1.0000      -0.600083       -16.3291 
  26   1.0000      -0.584582       -15.9073 
  27   1.0000      -0.558948       -15.2098 
  28   1.0000      -0.538520       -14.6539 
  29   1.0000      -0.489576       -13.3220 
  30   1.0000      -0.479358       -13.0440 
  31   1.0000      -0.472521       -12.8580 
  32   1.0000      -0.469414       -12.7734 
  33   1.0000      -0.457696       -12.4545 
  34   1.0000      -0.456681       -12.4269 
  35   1.0000      -0.447598       -12.1798 
  36   1.0000      -0.431241       -11.7347 
  37   1.0000      -0.425380       -11.5752 
  38   1.0000      -0.422020       -11.4838 
  39   1.0000      -0.406373       -11.0580 
  40   1.0000      -0.401037       -10.9128 
  41   1.0000      -0.393877       -10.7179 
  42   1.0000      -0.387764       -10.5516 
  43   1.0000      -0.376276       -10.2390 
  44   1.0000      -0.370963       -10.0944 
  45   1.0000      -0.361987        -9.8502 
  46   1.0000      -0.356127        -9.6907 
  47   1.0000      -0.341945        -9.3048 
  48   1.0000      -0.329484        -8.9657 
  49   1.0000      -0.271183        -7.3793 
  50   1.0000      -0.269441        -7.3319 
  51   1.0000      -0.249412        -6.7868 
  52   1.0000      -0.245529        -6.6812 
  53   1.0000      -0.233573        -6.3558 
  54   1.0000      -0.184234        -5.0133 
  55   0.0000       0.007548         0.2054 
  56   0.0000       0.013660         0.3717 
  57   0.0000       0.025146         0.6843 
  58   0.0000       0.030166         0.8208 
  59   0.0000       0.033008         0.8982 
  60   0.0000       0.038101         1.0368 
  61   0.0000       0.045520         1.2387 
  62   0.0000       0.059898         1.6299 
  63   0.0000       0.064373         1.7517 
  64   0.0000       0.078594         2.1386 
  65   0.0000       0.091878         2.5001 
  66   0.0000       0.100080         2.7233 
  67   0.0000       0.118388         3.2215 
  68   0.0000       0.123061         3.3487 
  69   0.0000       0.146086         3.9752 
  70   0.0000       0.154858         4.2139 
  71   0.0000       0.161047         4.3823 
  72   0.0000       0.170702         4.6450 
  73   0.0000       0.174337         4.7440 
  74   0.0000       0.181708         4.9445 
  75   0.0000       0.186485         5.0745 
  76   0.0000       0.193474         5.2647 
  77   0.0000       0.196430         5.3451 
  78   0.0000       0.203346         5.5333 
  79   0.0000       0.210526         5.7287 
  80   0.0000       0.215012         5.8508 
  81   0.0000       0.218424         5.9436 
  82   0.0000       0.227627         6.1940 
  83   0.0000       0.231826         6.3083 
  84   0.0000       0.240876         6.5546 
  85   0.0000       0.243147         6.6164 
  86   0.0000       0.248330         6.7574 
  87   0.0000       0.253383         6.8949 
  88   0.0000       0.256893         6.9904 
  89   0.0000       0.263356         7.1663 
  90   0.0000       0.266614         7.2549 
  91   0.0000       0.273774         7.4498 
  92   0.0000       0.281618         7.6632 
  93   0.0000       0.284610         7.7446 
  94   0.0000       0.289180         7.8690 
  95   0.0000       0.292741         7.9659 
  96   0.0000       0.305168         8.3041 
  97   0.0000       0.311246         8.4694 
  98   0.0000       0.316276         8.6063 
  99   0.0000       0.317601         8.6424 
 100   0.0000       0.328046         8.9266 
 101   0.0000       0.331093         9.0095 
 102   0.0000       0.337000         9.1702 
 103   0.0000       0.346922         9.4402 
 104   0.0000       0.369041        10.0421 
 105   0.0000       0.373556        10.1650 
 106   0.0000       0.378714        10.3053 
 107   0.0000       0.385667        10.4945 
 108   0.0000       0.395412        10.7597 
 109   0.0000       0.396670        10.7939 
 110   0.0000       0.410652        11.1744 
 111   0.0000       0.418047        11.3756 
 112   0.0000       0.430631        11.7181 
 113   0.0000       0.449907        12.2426 
 114   0.0000       0.452005        12.2997 
 115   0.0000       0.468633        12.7522 
 116   0.0000       0.474852        12.9214 
 117   0.0000       0.497493        13.5375 
 118   0.0000       0.501875        13.6567 
 119   0.0000       0.510088        13.8802 
 120   0.0000       0.518183        14.1005 
 121   0.0000       0.531951        14.4751 
 122   0.0000       0.548623        14.9288 
 123   0.0000       0.560474        15.2513 
 124   0.0000       0.566457        15.4141 
 125   0.0000       0.574934        15.6447 
 126   0.0000       0.597855        16.2685 
 127   0.0000       0.608673        16.5628 
 128   0.0000       0.621232        16.9046 
 129   0.0000       0.627908        17.0862 
 130   0.0000       0.664523        18.0826 
 131   0.0000       0.669880        18.2284 
 132   0.0000       0.675851        18.3909 
 133   0.0000       0.699189        19.0259 
 134   0.0000       0.709596        19.3091 
 135   0.0000       0.744968        20.2716 
 136   0.0000       0.751150        20.4398 
 137   0.0000       0.771132        20.9836 
 138   0.0000       0.786348        21.3976 
 139   0.0000       0.795435        21.6449 
 140   0.0000       0.804784        21.8993 
 141   0.0000       0.813511        22.1367 
 142   0.0000       0.817925        22.2569 
 143   0.0000       0.828720        22.5506 
 144   0.0000       0.832443        22.6519 
 145   0.0000       0.846996        23.0479 
 146   0.0000       0.855294        23.2737 
 147   0.0000       0.864611        23.5273 
 148   0.0000       0.870871        23.6976 
 149   0.0000       0.876355        23.8468 
 150   0.0000       0.885792        24.1036 
 151   0.0000       0.895029        24.3550 
 152   0.0000       0.903867        24.5955 
 153   0.0000       0.916131        24.9292 
 154   0.0000       0.921208        25.0674 
 155   0.0000       0.923858        25.1394 
 156   0.0000       0.928564        25.2675 
 157   0.0000       0.931884        25.3579 
 158   0.0000       0.934562        25.4307 
 159   0.0000       0.949183        25.8286 
 160   0.0000       0.953543        25.9472 
 161   0.0000       0.956668        26.0323 
 162   0.0000       0.971376        26.4325 
 163   0.0000       0.983069        26.7507 
 164   0.0000       0.993711        27.0403 
 165   0.0000       1.005841        27.3703 
 166   0.0000       1.012084        27.5402 
 167   0.0000       1.029699        28.0195 
 168   0.0000       1.039898        28.2971 
 169   0.0000       1.058182        28.7946 
 170   0.0000       1.063223        28.9318 
 171   0.0000       1.074704        29.2442 
 172   0.0000       1.100477        29.9455 
 173   0.0000       1.142627        31.0925 
 174   0.0000       1.149461        31.2784 
 175   0.0000       1.150557        31.3082 
 176   0.0000       1.159712        31.5574 
 177   0.0000       1.174716        31.9656 
 178   0.0000       1.185629        32.2626 
 179   0.0000       1.190246        32.3882 
 180   0.0000       1.202864        32.7316 
 181   0.0000       1.216916        33.1140 
 182   0.0000       1.231450        33.5094 
 183   0.0000       1.248868        33.9834 
 184   0.0000       1.276841        34.7446 
 185   0.0000       1.299656        35.3654 
 186   0.0000       1.311448        35.6863 
 187   0.0000       1.337799        36.4034 
 188   0.0000       1.346881        36.6505 
 189   0.0000       1.356990        36.9256 
 190   0.0000       1.364081        37.1185 
 191   0.0000       1.383928        37.6586 
 192   0.0000       1.399446        38.0809 
 193   0.0000       1.403745        38.1979 
 194   0.0000       1.406561        38.2745 
 195   0.0000       1.412610        38.4391 
 196   0.0000       1.433727        39.0137 
 197   0.0000       1.466140        39.8957 
 198   0.0000       1.474460        40.1221 
 199   0.0000       1.489000        40.5178 
 200   0.0000       1.494950        40.6797 
 201   0.0000       1.503028        40.8995 
 202   0.0000       1.504880        40.9499 
 203   0.0000       1.528374        41.5892 
 204   0.0000       1.539006        41.8785 
 205   0.0000       1.559057        42.4241 
 206   0.0000       1.564660        42.5766 
 207   0.0000       1.574223        42.8368 
 208   0.0000       1.587597        43.2007 
 209   0.0000       1.600029        43.5390 
 210   0.0000       1.618597        44.0442 
 211   0.0000       1.623521        44.1782 
 212   0.0000       1.632484        44.4221 
 213   0.0000       1.633722        44.4558 
 214   0.0000       1.642428        44.6927 
 215   0.0000       1.660434        45.1827 
 216   0.0000       1.673825        45.5471 
 217   0.0000       1.686902        45.9029 
 218   0.0000       1.694924        46.1212 
 219   0.0000       1.697157        46.1820 
 220   0.0000       1.706773        46.4436 
 221   0.0000       1.725986        46.9665 
 222   0.0000       1.730894        47.1000 
 223   0.0000       1.738488        47.3067 
 224   0.0000       1.746326        47.5199 
 225   0.0000       1.752108        47.6773 
 226   0.0000       1.764614        48.0176 
 227   0.0000       1.785470        48.5851 
 228   0.0000       1.792475        48.7757 
 229   0.0000       1.807908        49.1957 
 230   0.0000       1.835661        49.9509 
 231   0.0000       1.850127        50.3445 
 232   0.0000       1.855586        50.4931 
 233   0.0000       1.875658        51.0392 
 234   0.0000       1.888750        51.3955 
 235   0.0000       1.907187        51.8972 
 236   0.0000       1.912664        52.0462 
 237   0.0000       1.937635        52.7257 
 238   0.0000       1.965410        53.4815 
 239   0.0000       1.979530        53.8657 
 240   0.0000       1.992741        54.2252 
 241   0.0000       2.017025        54.8860 
 242   0.0000       2.031202        55.2718 
 243   0.0000       2.053470        55.8778 
 244   0.0000       2.064795        56.1859 
 245   0.0000       2.082180        56.6590 
 246   0.0000       2.097858        57.0856 
 247   0.0000       2.105918        57.3049 
 248   0.0000       2.123385        57.7802 
 249   0.0000       2.135478        58.1093 
 250   0.0000       2.154685        58.6320 
 251   0.0000       2.158882        58.7462 
 252   0.0000       2.174536        59.1721 
 253   0.0000       2.190387        59.6035 
 254   0.0000       2.205696        60.0200 
 255   0.0000       2.238776        60.9202 
 256   0.0000       2.260017        61.4982 
 257   0.0000       2.267730        61.7081 
 258   0.0000       2.299782        62.5803 
 259   0.0000       2.306048        62.7508 
 260   0.0000       2.331343        63.4391 
 261   0.0000       2.339385        63.6579 
 262   0.0000       2.368357        64.4463 
 263   0.0000       2.384843        64.8949 
 264   0.0000       2.395597        65.1875 
 265   0.0000       2.404474        65.4291 
 266   0.0000       2.409326        65.5611 
 267   0.0000       2.413898        65.6855 
 268   0.0000       2.422905        65.9306 
 269   0.0000       2.429483        66.1096 
 270   0.0000       2.442617        66.4670 
 271   0.0000       2.461039        66.9683 
 272   0.0000       2.486600        67.6638 
 273   0.0000       2.487661        67.6927 
 274   0.0000       2.495848        67.9155 
 275   0.0000       2.498734        67.9940 
 276   0.0000       2.530216        68.8507 
 277   0.0000       2.547395        69.3181 
 278   0.0000       2.563977        69.7694 
 279   0.0000       2.598089        70.6976 
 280   0.0000       2.625718        71.4494 
 281   0.0000       2.638389        71.7942 
 282   0.0000       2.670480        72.6675 
 283   0.0000       2.694816        73.3297 
 284   0.0000       2.722352        74.0790 
 285   0.0000       2.740576        74.5749 
 286   0.0000       2.757632        75.0390 
 287   0.0000       2.758553        75.0640 
 288   0.0000       2.777721        75.5856 
 289   0.0000       2.786536        75.8255 
 290   0.0000       2.831566        77.0508 
 291   0.0000       2.916067        79.3502 
 292   0.0000       3.001683        81.6800 
 293   0.0000       3.046481        82.8990 
 294   0.0000       3.107631        84.5629 
 295   0.0000       3.129525        85.1587 
 296   0.0000       3.392177        92.3058 
 297   0.0000       3.441990        93.6613 
 298   0.0000       3.456003        94.0426 
 299   0.0000       3.467739        94.3620 
 300   0.0000       4.927706       134.0897 
 301   0.0000       4.973991       135.3492 
 302   0.0000       4.988440       135.7424 
 303   0.0000       4.988854       135.7536 
 304   0.0000       5.002348       136.1208 
 305   0.0000       5.016895       136.5167 
 306   0.0000       5.021742       136.6485 
 307   0.0000       5.042554       137.2149 
 308   0.0000       5.055361       137.5634 
 309   0.0000       5.082205       138.2938 
 310   0.0000       5.130802       139.6162 
 311   0.0000       5.156791       140.3234 
 312   0.0000       5.194162       141.3403 
 313   0.0000       5.195827       141.3856 
 314   0.0000       5.253460       142.9539 
 315   0.0000       5.269884       143.4008 
 316   0.0000       5.294429       144.0687 
 317   0.0000       5.309488       144.4785 
 318   0.0000       5.346656       145.4899 
 319   0.0000       5.353725       145.6823 
 320   0.0000       5.372135       146.1832 
 321   0.0000       5.477640       149.0542 
 322   0.0000       5.576506       151.7444 
 323   0.0000       5.646219       153.6414 
 324   0.0000       5.716538       155.5549 
 325   0.0000       5.743506       156.2887 
 326   0.0000       5.862611       159.5298 
 327   0.0000       7.221406       196.5044 
 328   0.0000       7.322734       199.2617 
 329   0.0000       7.351875       200.0547 
 330   0.0000       9.096356       247.5244 
 331   0.0000       9.119378       248.1509 
 332   0.0000      29.596952       805.3740 
 333   0.0000      29.636866       806.4601 
 334   0.0000      29.769306       810.0640 
 335   0.0000      29.899044       813.5943 
 336   0.0000      29.913705       813.9933 
 337   0.0000      30.055148       817.8422 
 338   0.0000      30.088168       818.7407 
 339   0.0000      30.155306       820.5676 
 340   0.0000      30.269814       823.6835 
 341   0.0000      36.543206       994.3912 
 342   0.0000      36.604039       996.0465 
 343   0.0000      36.608384       996.1648 
 344   0.0000      36.609833       996.2042 
 345   0.0000      36.620820       996.5032 
 346   0.0000      36.637878       996.9673 
 347   0.0000      36.642259       997.0866 
 348   0.0000      36.665029       997.7062 
 349   0.0000      36.696837       998.5717 
 350   0.0000      36.717503       999.1340 
 351   0.0000      36.732116       999.5317 
 352   0.0000      36.791565      1001.1494 
 353   0.0000      36.804191      1001.4929 
 354   0.0000      36.853868      1002.8447 
 355   0.0000      36.889880      1003.8247 
 356   0.0000      36.896436      1004.0031 
 357   0.0000      36.921879      1004.6954 
 358   0.0000      36.926186      1004.8126 
 359   0.0000      41.163246      1120.1089 
 360   0.0000      41.261722      1122.7885 
 361   0.0000      41.295293      1123.7021 
 362   0.0000      53.634230      1459.4616 
 363   0.0000      53.654705      1460.0188 

                 SPIN DOWN ORBITALS
  NO   OCC          E(Eh)            E(eV) 
   0   1.0000     -19.121347      -520.3183 
   1   1.0000     -19.097543      -519.6706 
   2   1.0000     -14.369944      -391.0260 
   3   1.0000     -14.347220      -390.4077 
   4   1.0000     -14.305533      -389.2734 
   5   1.0000     -10.298981      -280.2495 
   6   1.0000     -10.283945      -279.8404 
   7   1.0000     -10.237208      -278.5686 
   8   1.0000     -10.225858      -278.2598 
   9   1.0000     -10.204655      -277.6828 
  10   1.0000     -10.194790      -277.4143 
  11   1.0000     -10.183997      -277.1207 
  12   1.0000     -10.183570      -277.1090 
  13   1.0000     -10.176044      -276.9042 
  14   1.0000      -1.053770       -28.6745 
  15   1.0000      -1.029333       -28.0096 
  16   1.0000      -0.934596       -25.4317 
  17   1.0000      -0.919816       -25.0295 
  18   1.0000      -0.875512       -23.8239 
  19   1.0000      -0.792458       -21.5639 
  20   1.0000      -0.754043       -20.5186 
  21   1.0000      -0.726728       -19.7753 
  22   1.0000      -0.712425       -19.3861 
  23   1.0000      -0.662172       -18.0186 
  24   1.0000      -0.610636       -16.6162 
  25   1.0000      -0.600017       -16.3273 
  26   1.0000      -0.580685       -15.8012 
  27   1.0000      -0.548165       -14.9163 
  28   1.0000      -0.537606       -14.6290 
  29   1.0000      -0.488516       -13.2932 
  30   1.0000      -0.477691       -12.9986 
  31   1.0000      -0.471989       -12.8435 
  32   1.0000      -0.467307       -12.7161 
  33   1.0000      -0.456691       -12.4272 
  34   1.0000      -0.454343       -12.3633 
  35   1.0000      -0.446617       -12.1531 
  36   1.0000      -0.428327       -11.6554 
  37   1.0000      -0.423775       -11.5315 
  38   1.0000      -0.417380       -11.3575 
  39   1.0000      -0.406043       -11.0490 
  40   1.0000      -0.399355       -10.8670 
  41   1.0000      -0.392126       -10.6703 
  42   1.0000      -0.385294       -10.4844 
  43   1.0000      -0.374260       -10.1841 
  44   1.0000      -0.367780       -10.0078 
  45   1.0000      -0.358933        -9.7671 
  46   1.0000      -0.350309        -9.5324 
  47   1.0000      -0.339601        -9.2410 
  48   1.0000      -0.327169        -8.9027 
  49   1.0000      -0.270878        -7.3710 
  50   1.0000      -0.269115        -7.3230 
  51   1.0000      -0.248757        -6.7690 
  52   1.0000      -0.245181        -6.6717 
  53   1.0000      -0.233017        -6.3407 
  54   0.0000      -0.042778        -1.1640 
  55   0.0000       0.007860         0.2139 
  56   0.0000       0.013976         0.3803 
  57   0.0000       0.025334         0.6894 
  58   0.0000       0.031431         0.8553 
  59   0.0000       0.033444         0.9101 
  60   0.0000       0.038334         1.0431 
  61   0.0000       0.045996         1.2516 
  62   0.0000       0.061280         1.6675 
  63   0.0000       0.064729         1.7614 
  64   0.0000       0.079031         2.1505 
  65   0.0000       0.092448         2.5156 
  66   0.0000       0.100681         2.7397 
  67   0.0000       0.119918         3.2631 
  68   0.0000       0.125316         3.4100 
  69   0.0000       0.148493         4.0407 
  70   0.0000       0.155473         4.2306 
  71   0.0000       0.161461         4.3936 
  72   0.0000       0.171682         4.6717 
  73   0.0000       0.175756         4.7826 
  74   0.0000       0.182244         4.9591 
  75   0.0000       0.188081         5.1179 
  76   0.0000       0.194220         5.2850 
  77   0.0000       0.197100         5.3634 
  78   0.0000       0.203466         5.5366 
  79   0.0000       0.212598         5.7851 
  80   0.0000       0.218269         5.9394 
  81   0.0000       0.220256         5.9935 
  82   0.0000       0.229888         6.2556 
  83   0.0000       0.234753         6.3880 
  84   0.0000       0.241594         6.5741 
  85   0.0000       0.245116         6.6700 
  86   0.0000       0.249726         6.7954 
  87   0.0000       0.255262         6.9460 
  88   0.0000       0.258264         7.0277 
  89   0.0000       0.266131         7.2418 
  90   0.0000       0.271138         7.3780 
  91   0.0000       0.274823         7.4783 
  92   0.0000       0.282500         7.6872 
  93   0.0000       0.287860         7.8331 
  94   0.0000       0.291499         7.9321 
  95   0.0000       0.295048         8.0287 
  96   0.0000       0.306268         8.3340 
  97   0.0000       0.312047         8.4912 
  98   0.0000       0.317977         8.6526 
  99   0.0000       0.320743         8.7279 
 100   0.0000       0.329749         8.9729 
 101   0.0000       0.333140         9.0652 
 102   0.0000       0.341025         9.2798 
 103   0.0000       0.349452         9.5091 
 104   0.0000       0.371152        10.0996 
 105   0.0000       0.376162        10.2359 
 106   0.0000       0.382230        10.4010 
 107   0.0000       0.392399        10.6777 
 108   0.0000       0.396604        10.7921 
 109   0.0000       0.401892        10.9360 
 110   0.0000       0.413243        11.2449 
 111   0.0000       0.419814        11.4237 
 112   0.0000       0.432596        11.7715 
 113   0.0000       0.450425        12.2567 
 114   0.0000       0.452725        12.3193 
 115   0.0000       0.470629        12.8065 
 116   0.0000       0.478389        13.0176 
 117   0.0000       0.498916        13.5762 
 118   0.0000       0.504219        13.7205 
 119   0.0000       0.511675        13.9234 
 120   0.0000       0.526561        14.3284 
 121   0.0000       0.533338        14.5129 
 122   0.0000       0.550403        14.9772 
 123   0.0000       0.566642        15.4191 
 124   0.0000       0.570983        15.5372 
 125   0.0000       0.582231        15.8433 
 126   0.0000       0.599149        16.3037 
 127   0.0000       0.609938        16.5973 
 128   0.0000       0.623539        16.9674 
 129   0.0000       0.629549        17.1309 
 130   0.0000       0.665030        18.0964 
 131   0.0000       0.670874        18.2554 
 132   0.0000       0.677205        18.4277 
 133   0.0000       0.700231        19.0542 
 134   0.0000       0.713647        19.4193 
 135   0.0000       0.747477        20.3399 
 136   0.0000       0.752184        20.4680 
 137   0.0000       0.773311        21.0429 
 138   0.0000       0.787234        21.4217 
 139   0.0000       0.798526        21.7290 
 140   0.0000       0.808816        22.0090 
 141   0.0000       0.813856        22.1461 
 142   0.0000       0.819214        22.2919 
 143   0.0000       0.829961        22.5844 
 144   0.0000       0.833404        22.6781 
 145   0.0000       0.847416        23.0594 
 146   0.0000       0.859452        23.3869 
 147   0.0000       0.866148        23.5691 
 148   0.0000       0.871225        23.7072 
 149   0.0000       0.878808        23.9136 
 150   0.0000       0.888762        24.1844 
 151   0.0000       0.896630        24.3985 
 152   0.0000       0.907288        24.6886 
 153   0.0000       0.918380        24.9904 
 154   0.0000       0.922042        25.0900 
 155   0.0000       0.924909        25.1680 
 156   0.0000       0.929432        25.2911 
 157   0.0000       0.933482        25.4013 
 158   0.0000       0.938159        25.5286 
 159   0.0000       0.952092        25.9077 
 160   0.0000       0.957170        26.0459 
 161   0.0000       0.958947        26.0943 
 162   0.0000       0.973707        26.4959 
 163   0.0000       0.984653        26.7938 
 164   0.0000       0.995591        27.0914 
 165   0.0000       1.008335        27.4382 
 166   0.0000       1.014227        27.5985 
 167   0.0000       1.032097        28.0848 
 168   0.0000       1.040688        28.3186 
 169   0.0000       1.061166        28.8758 
 170   0.0000       1.065741        29.0003 
 171   0.0000       1.077370        29.3167 
 172   0.0000       1.101748        29.9801 
 173   0.0000       1.144691        31.1486 
 174   0.0000       1.152894        31.3718 
 175   0.0000       1.153300        31.3829 
 176   0.0000       1.162210        31.6254 
 177   0.0000       1.175750        31.9938 
 178   0.0000       1.187075        32.3020 
 179   0.0000       1.191872        32.4325 
 180   0.0000       1.204183        32.7675 
 181   0.0000       1.219345        33.1801 
 182   0.0000       1.233462        33.5642 
 183   0.0000       1.252336        34.0778 
 184   0.0000       1.281300        34.8659 
 185   0.0000       1.304475        35.4966 
 186   0.0000       1.322053        35.9749 
 187   0.0000       1.340937        36.4888 
 188   0.0000       1.349029        36.7090 
 189   0.0000       1.357763        36.9466 
 190   0.0000       1.369128        37.2559 
 191   0.0000       1.386607        37.7315 
 192   0.0000       1.400290        38.1038 
 193   0.0000       1.406952        38.2851 
 194   0.0000       1.412059        38.4241 
 195   0.0000       1.413982        38.4764 
 196   0.0000       1.437894        39.1271 
 197   0.0000       1.468234        39.9527 
 198   0.0000       1.481241        40.3066 
 199   0.0000       1.489659        40.5357 
 200   0.0000       1.495688        40.6998 
 201   0.0000       1.504754        40.9464 
 202   0.0000       1.506511        40.9942 
 203   0.0000       1.529410        41.6174 
 204   0.0000       1.539711        41.8977 
 205   0.0000       1.560117        42.4529 
 206   0.0000       1.566529        42.6274 
 207   0.0000       1.575573        42.8735 
 208   0.0000       1.588458        43.2241 
 209   0.0000       1.604469        43.6598 
 210   0.0000       1.622048        44.1382 
 211   0.0000       1.626761        44.2664 
 212   0.0000       1.634069        44.4653 
 213   0.0000       1.638942        44.5979 
 214   0.0000       1.643653        44.7261 
 215   0.0000       1.664192        45.2850 
 216   0.0000       1.675522        45.5933 
 217   0.0000       1.689692        45.9788 
 218   0.0000       1.698616        46.2217 
 219   0.0000       1.698801        46.2267 
 220   0.0000       1.709950        46.5301 
 221   0.0000       1.728494        47.0347 
 222   0.0000       1.732451        47.1424 
 223   0.0000       1.739258        47.3276 
 224   0.0000       1.748639        47.5829 
 225   0.0000       1.754534        47.7433 
 226   0.0000       1.768612        48.1264 
 227   0.0000       1.788077        48.6561 
 228   0.0000       1.796090        48.8741 
 229   0.0000       1.815948        49.4144 
 230   0.0000       1.838332        50.0235 
 231   0.0000       1.854741        50.4701 
 232   0.0000       1.858684        50.5774 
 233   0.0000       1.878078        51.1051 
 234   0.0000       1.892262        51.4911 
[...]
  6 C s       :     2.874792  s :     2.874792
      pz      :     1.016425  p :     3.044681
      px      :     1.008969
      py      :     1.019287
      dz2     :     0.022146  d :     0.177775
      dxz     :     0.049421
      dyz     :     0.037502
      dx2y2   :     0.041417
      dxy     :     0.027289
  7 C s       :     2.872322  s :     2.872322
      pz      :     1.017892  p :     2.967248
      px      :     0.915843
      py      :     1.033514
      dz2     :     0.025187  d :     0.217319
      dxz     :     0.065681
      dyz     :     0.040737
      dx2y2   :     0.051705
      dxy     :     0.034009
  8 N s       :     3.178184  s :     3.178184
      pz      :     1.355857  p :     3.865778
      px      :     1.148209
      py      :     1.361712
      dz2     :     0.006415  d :     0.053016
      dxz     :     0.018330
      dyz     :     0.004230
      dx2y2   :     0.018768
      dxy     :     0.005273
  9 H s       :     0.873126  s :     0.873126
      pz      :     0.023081  p :     0.078922
      px      :     0.015683
      py      :     0.040157
 10 H s       :     0.860510  s :     0.860510
      pz      :     0.031378  p :     0.080444
      px      :     0.019787
      py      :     0.029279
 11 H s       :     0.883843  s :     0.883843
      pz      :     0.022077  p :     0.077652
      px      :     0.013505
      py      :     0.042071
 12 H s       :     0.894726  s :     0.894726
      pz      :     0.031625  p :     0.079417
      px      :     0.018230
      py      :     0.029562
 13 H s       :     0.810173  s :     0.810173
      pz      :     0.060653  p :     0.140513
      px      :     0.045661
      py      :     0.034199
 14 H s       :     0.808008  s :     0.808008
      pz      :     0.042815  p :     0.140648
      px      :     0.024758
      py      :     0.073075
 15 H s       :     0.755941  s :     0.755941
      pz      :     0.070574  p :     0.153346
      px      :     0.044744
      py      :     0.038029
 16 C s       :     2.842053  s :     2.842053
      pz      :     1.018574  p :     2.772454
      px      :     0.805183
      py      :     0.948696
      dz2     :     0.139469  d :     0.488681
      dxz     :     0.074561
      dyz     :     0.137781
      dx2y2   :     0.065710
      dxy     :     0.071160
 17 N s       :     3.063001  s :     3.063001
      pz      :     1.127385  p :     3.815173
      px      :     1.539314
      py      :     1.148474
      dz2     :     0.020195  d :     0.080335
      dxz     :     0.004244
      dyz     :     0.030099
      dx2y2   :     0.014092
      dxy     :     0.011705
 18 H s       :     0.773952  s :     0.773952
      pz      :     0.072696  p :     0.146680
      px      :     0.048555
      py      :     0.025430
 19 O s       :     3.585648  s :     3.585648
      pz      :     1.482036  p :     4.583896
      px      :     1.455771
      py      :     1.646088
      dz2     :     0.012575  d :     0.031808
      dxz     :     0.005346
      dyz     :     0.011052
      dx2y2   :     0.001501
      dxy     :     0.001334
 20 C s       :     2.871849  s :     2.871849
      pz      :     0.994911  p :     3.065005
      px      :     1.042595
      py      :     1.027499
      dz2     :     0.030646  d :     0.105798
      dxz     :     0.009609
      dyz     :     0.033515
      dx2y2   :     0.011830
      dxy     :     0.020199
 21 H s       :     0.864611  s :     0.864611
      pz      :     0.015735  p :     0.081560
      px      :     0.029009
      py      :     0.036817
 22 H s       :     0.864296  s :     0.864296
      pz      :     0.015731  p :     0.081546
      px      :     0.044036
      py      :     0.021779
 23 H s       :     0.885024  s :     0.885024
      pz      :     0.038845  p :     0.081411
      px      :     0.017544
      py      :     0.025021
 24 C s       :     2.856992  s :     2.856992
      pz      :     1.042503  p :     2.970874
      px      :     1.059126
      py      :     0.869244
      dz2     :     0.019196  d :     0.159930
      dxz     :     0.024069
      dyz     :     0.032426
      dx2y2   :     0.044266
      dxy     :     0.039973
 25 H s       :     0.879525  s :     0.879525
      pz      :     0.029364  p :     0.079855
      px      :     0.037200
      py      :     0.013291
 26 H s       :     0.888513  s :     0.888513
      pz      :     0.038499  p :     0.078642
      px      :     0.018283
      py      :     0.021860
 27 H s       :     0.880284  s :     0.880284
      pz      :     0.024162  p :     0.079708
      px      :     0.039984
      py      :     0.015563
 28 H s       :     0.851240  s :     0.851240
      pz      :     0.031737  p :     0.082809
      px      :     0.033557
      py      :     0.017515
 29 H s       :     0.869935  s :     0.869935
      pz      :     0.037632  p :     0.080225
      px      :     0.016382
      py      :     0.026211
 30 H s       :     0.852888  s :     0.852888
      pz      :     0.019200  p :     0.082427
      px      :     0.016016
      py      :     0.047211
 31 H s       :     0.858589  s :     0.858589
      pz      :     0.041429  p :     0.092868
      px      :     0.016394
      py      :     0.035045

SPIN
  0 N s       :     0.000820  s :     0.000820
      pz      :     0.000309  p :     0.002292
      px      :     0.001658
      py      :     0.000326
      dz2     :     0.000113  d :     0.000165
      dxz     :     0.000038
      dyz     :    -0.000001
      dx2y2   :     0.000017
      dxy     :    -0.000002
  1 C s       :     0.001212  s :     0.001212
      pz      :     0.000258  p :     0.002484
      px      :     0.001174
      py      :     0.001051
      dz2     :    -0.000006  d :    -0.000204
      dxz     :    -0.000229
      dyz     :     0.000246
      dx2y2   :    -0.000068
      dxy     :    -0.000147
  2 C s       :     0.000220  s :     0.000220
      pz      :    -0.000105  p :     0.000397
      px      :     0.000593
      py      :    -0.000091
      dz2     :     0.000029  d :     0.000301
      dxz     :     0.000036
      dyz     :     0.000002
      dx2y2   :     0.000176
      dxy     :     0.000057
  3 O s       :     0.000065  s :     0.000065
      pz      :     0.000061  p :     0.001541
      px      :     0.001535
      py      :    -0.000054
      dz2     :    -0.000001  d :    -0.000005
      dxz     :    -0.000004
      dyz     :    -0.000000
      dx2y2   :     0.000000
      dxy     :    -0.000000
  4 C s       :    -0.003391  s :    -0.003391
      pz      :    -0.010061  p :    -0.024212
      px      :    -0.008721
      py      :    -0.005429
      dz2     :     0.011047  d :     0.035587
      dxz     :     0.002982
      dyz     :     0.012743
      dx2y2   :     0.000931
      dxy     :     0.007884
  5 C s       :     0.028966  s :     0.028966
      pz      :     0.208293  p :     0.803348
      px      :     0.028747
      py      :     0.566308
      dz2     :    -0.000004  d :    -0.003567
      dxz     :    -0.001156
      dyz     :    -0.000634
      dx2y2   :    -0.001677
      dxy     :    -0.000097
  6 C s       :    -0.003761  s :    -0.003761
      pz      :    -0.004741  p :    -0.023439
      px      :    -0.012789
      py      :    -0.005910
      dz2     :     0.001796  d :     0.034482
      dxz     :     0.009882
      dyz     :     0.005043
      dx2y2   :     0.002521
      dxy     :     0.015241
  7 C s       :     0.002269  s :     0.002269
      pz      :     0.001993  p :     0.006263
      px      :     0.002952
      py      :     0.001318
      dz2     :    -0.000323  d :    -0.000601
      dxz     :    -0.000000
      dyz     :     0.000024
      dx2y2   :    -0.000240
      dxy     :    -0.000061
  8 N s       :    -0.000353  s :    -0.000353
      pz      :     0.000630  p :     0.002264
      px      :     0.000761
      py      :     0.000874
      dz2     :     0.000016  d :     0.000075
      dxz     :    -0.000013
      dyz     :    -0.000004
      dx2y2   :     0.000049
      dxy     :     0.000025
  9 H s       :     0.018516  s :     0.018516
      pz      :    -0.000354  p :    -0.000931
      px      :    -0.000412
      py      :    -0.000165
 10 H s       :     0.044480  s :     0.044480
      pz      :    -0.000461  p :    -0.001035
      px      :    -0.000199
      py      :    -0.000375
 11 H s       :    -0.000377  s :    -0.000377
      pz      :     0.000039  p :     0.000238
      px      :     0.000157
      py      :     0.000042
 12 H s       :    -0.000479  s :    -0.000479
      pz      :     0.000422  p :     0.000444
      px      :    -0.000016
      py      :     0.000039
 13 H s       :    -0.000166  s :    -0.000166
      pz      :     0.000070  p :     0.000206
      px      :     0.000070
      py      :     0.000066
 14 H s       :     0.000121  s :     0.000121
      pz      :     0.000088  p :     0.000065
      px      :    -0.000009
      py      :    -0.000014
 15 H s       :     0.000386  s :     0.000386
      pz      :    -0.000000  p :     0.000056
      px      :    -0.000014
      py      :     0.000070
 16 C s       :     0.000018  s :     0.000018
      pz      :     0.000077  p :    -0.000320
      px      :    -0.000384
      py      :    -0.000013
      dz2     :    -0.000005  d :     0.000286
      dxz     :     0.000057
      dyz     :     0.000006
      dx2y2   :    -0.000002
      dxy     :     0.000231
 17 N s       :     0.000025  s :     0.000025
      pz      :     0.000366  p :     0.000677
      px      :     0.000271
      py      :     0.000040
      dz2     :     0.000001  d :     0.000002
      dxz     :    -0.000000
      dyz     :     0.000007
      dx2y2   :    -0.000003
      dxy     :    -0.000003
 18 H s       :     0.000447  s :     0.000447
      pz      :     0.000089  p :     0.000272
      px      :     0.000086
      py      :     0.000098
 19 O s       :     0.000345  s :     0.000345
      pz      :     0.000182  p :     0.001336
      px      :     0.001169
      py      :    -0.000015
      dz2     :    -0.000001  d :    -0.000003
      dxz     :    -0.000004
      dyz     :    -0.000001
      dx2y2   :     0.000000
      dxy     :     0.000002
 20 C s       :     0.000027  s :     0.000027
      pz      :    -0.000003  p :    -0.000002
      px      :     0.000002
      py      :    -0.000001
      dz2     :    -0.000002  d :    -0.000012
      dxz     :    -0.000005
      dyz     :    -0.000000
      dx2y2   :    -0.000003
      dxy     :    -0.000001
 21 H s       :    -0.000015  s :    -0.000015
      pz      :    -0.000002  p :    -0.000001
      px      :     0.000002
      py      :    -0.000001
 22 H s       :    -0.000012  s :    -0.000012
      pz      :     0.000000  p :     0.000001
      px      :     0.000000
      py      :     0.000001
 23 H s       :     0.000038  s :     0.000038
      pz      :    -0.000002  p :    -0.000002
      px      :    -0.000001
      py      :     0.000001
 24 C s       :     0.000127  s :     0.000127
      pz      :    -0.000003  p :     0.000010
      px      :    -0.000000
      py      :     0.000013
      dz2     :    -0.000000  d :     0.000036
      dxz     :    -0.000003
      dyz     :     0.000027
      dx2y2   :     0.000005
      dxy     :     0.000007
 25 H s       :    -0.000011  s :    -0.000011
      pz      :     0.000000  p :     0.000002
      px      :     0.000002
      py      :     0.000000
 26 H s       :     0.000014  s :     0.000014
      pz      :    -0.000000  p :    -0.000001
      px      :    -0.000000
      py      :    -0.000001
 27 H s       :     0.000031  s :     0.000031
      pz      :     0.000000  p :     0.000006
      px      :     0.000005
      py      :     0.000001
 28 H s       :    -0.000726  s :    -0.000726
      pz      :     0.000004  p :     0.000114
      px      :     0.000057
      py      :     0.000053
 29 H s       :     0.041125  s :     0.041125
      pz      :    -0.000589  p :    -0.000512
      px      :     0.000283
      py      :    -0.000205
 30 H s       :     0.024538  s :     0.024538
      pz      :    -0.000572  p :    -0.001207
      px      :    -0.000158
      py      :    -0.000476
 31 H s       :    -0.019592  s :    -0.019592
      pz      :     0.009140  p :     0.028198
      px      :     0.000752
      py      :     0.018306


                      *****************************
                      * MAYER POPULATION ANALYSIS *
                      *****************************

  NA   - Mulliken gross atomic population
  ZA   - Total nuclear charge
  QA   - Mulliken gross atomic charge
  VA   - Mayer's total valence
  BVA  - Mayer's bonded valence
  FA   - Mayer's free valence

  ATOM       NA         ZA         QA         VA         BVA        FA
  0 N      7.0953     7.0000    -0.0953     3.2778     3.2777     0.0001
  1 C      6.1501     6.0000    -0.1501     4.1190     4.1189     0.0001
  2 C      5.8962     6.0000     0.1038     4.0444     4.0444     0.0000
  3 O      8.3300     8.0000    -0.3300     2.0982     2.0982     0.0000
  4 C      6.2736     6.0000    -0.2736     3.9090     3.9068     0.0023
  5 C      6.0817     6.0000    -0.0817     3.8742     3.0990     0.7752
  6 C      6.3086     6.0000    -0.3086     3.9339     3.9313     0.0026
  7 C      6.2915     6.0000    -0.2915     3.9243     3.9242     0.0001
  8 N      7.4583     7.0000    -0.4583     2.9647     2.9647     0.0000
  9 H      0.8570     1.0000     0.1430     0.9684     0.9679     0.0005
 10 H      0.8305     1.0000     0.1695     0.9608     0.9580     0.0028
 11 H      0.8430     1.0000     0.1570     0.9552     0.9552     0.0000
 12 H      0.8539     1.0000     0.1461     0.9450     0.9450     0.0000
 13 H      0.7909     1.0000     0.2091     0.9592     0.9592     0.0000
 14 H      0.7901     1.0000     0.2099     0.9602     0.9602     0.0000
 15 H      0.7495     1.0000     0.2505     0.9693     0.9693    -0.0000
 16 C      5.8273     6.0000     0.1727     3.9681     3.9681     0.0000
 17 N      7.1107     7.0000    -0.1107     3.2141     3.2141    -0.0000
 18 H      0.7647     1.0000     0.2353     0.9619     0.9619     0.0000
 19 O      8.3313     8.0000    -0.3313     2.1084     2.1084     0.0000
 20 C      6.5535     6.0000    -0.5535     3.8602     3.8602     0.0000
 21 H      0.8155     1.0000     0.1845     0.9594     0.9594     0.0000
 22 H      0.8141     1.0000     0.1859     0.9588     0.9588     0.0000
 23 H      0.8516     1.0000     0.1484     0.9715     0.9715     0.0000
 24 C      6.4387     6.0000    -0.4387     3.9430     3.9430     0.0000
 25 H      0.8164     1.0000     0.1836     0.9502     0.9502     0.0000
 26 H      0.8570     1.0000     0.1430     0.9675     0.9675     0.0000
 27 H      0.8185     1.0000     0.1815     0.9512     0.9512     0.0000
 28 H      0.8429     1.0000     0.1571     0.9517     0.9517     0.0000
 29 H      0.8738     1.0000     0.1262     0.9718     0.9692     0.0026
 30 H      0.8147     1.0000     0.1853     0.9629     0.9622     0.0007
 31 H      0.8692     1.0000     0.1308     0.9826     0.9794     0.0032

  Mayer bond orders larger than 0.100000
B(  0-N ,  1-C ) :   1.0252 B(  0-N , 15-H ) :   0.8932 B(  0-N , 16-C ) :   1.2146 
B(  1-C ,  2-C ) :   0.9105 B(  1-C ,  4-C ) :   0.9263 B(  1-C , 19-O ) :   0.1391 
B(  1-C , 28-H ) :   0.9750 B(  2-C ,  3-O ) :   1.8315 B(  2-C , 17-N ) :   1.2140 
B(  4-C ,  5-C ) :   0.9776 B(  4-C , 29-H ) :   0.9601 B(  4-C , 30-H ) :   0.9580 
B(  5-C ,  6-C ) :   0.9701 B(  5-C , 31-H ) :   0.9858 B(  6-C ,  7-C ) :   0.9651 
B(  6-C ,  9-H ) :   0.9705 B(  6-C , 10-H ) :   0.9498 B(  7-C ,  8-N ) :   1.0142 
B(  7-C , 11-H ) :   0.9613 B(  7-C , 12-H ) :   0.9409 B(  8-N , 13-H ) :   0.9443 
B(  8-N , 14-H ) :   0.9481 B( 16-C , 19-O ) :   1.8533 B( 16-C , 20-C ) :   0.8928 
B( 17-N , 18-H ) :   0.9352 B( 17-N , 24-C ) :   0.9649 B( 20-C , 21-H ) :   0.9595 
B( 20-C , 22-H ) :   0.9590 B( 20-C , 23-H ) :   0.9759 B( 24-C , 25-H ) :   0.9516 
B( 24-C , 26-H ) :   0.9672 B( 24-C , 27-H ) :   0.9507 

-------
TIMINGS
-------

Total SCF time: 0 days 0 hours 0 min 16 sec 

Total time                  ....      16.430 sec
Sum of individual times     ....      15.688 sec  ( 95.5%)

Fock matrix formation       ....      13.654 sec  ( 83.1%)
  Split-RI-J                ....       1.112 sec  (  8.1% of F)
  Chain of spheres X        ....       9.572 sec  ( 70.1% of F)
  XC integration            ....       2.695 sec  ( 19.7% of F)
    Basis function eval.    ....       0.275 sec  ( 10.2% of XC)
    Density eval.           ....       0.380 sec  ( 14.1% of XC)
    XC-Functional eval.     ....       0.065 sec  (  2.4% of XC)
    XC-Potential eval.      ....       0.235 sec  (  8.7% of XC)
Diagonalization             ....       0.433 sec  (  2.6%)
Density matrix formation    ....       0.018 sec  (  0.1%)
Population analysis         ....       0.055 sec  (  0.3%)
Initial guess               ....       0.054 sec  (  0.3%)
Orbital Transformation      ....       0.000 sec  (  0.0%)
Orbital Orthonormalization  ....       0.042 sec  (  0.3%)
DIIS solution               ....       0.214 sec  (  1.3%)
Grid generation             ....       1.260 sec  (  7.7%)

Maximum memory used throughout the entire SCF-calculation: 83.9 MB

-------------------------   --------------------
FINAL SINGLE POINT ENERGY      -668.218282878905
-------------------------   --------------------

                                *** OPTIMIZATION RUN DONE ***

                            ***************************************
                            *     ORCA property calculations      *
                            ***************************************

                                    ---------------------
                                    Active property flags
                                    ---------------------
   (+) Dipole Moment


------------------------------------------------------------------------------
                       ORCA ELECTRIC PROPERTIES CALCULATION
------------------------------------------------------------------------------

Dipole Moment Calculation                       ... on
Quadrupole Moment Calculation                   ... off
Polarizability Calculation                      ... off
GBWName                                         ... opt.gbw
Electron density                                ... opt.scfp
The origin for moment calculation is the CENTER OF MASS  = (-0.689521, -0.215345  0.191689)

-------------
DIPOLE MOMENT
-------------
                                X             Y             Z
Electronic contribution:     -9.65555       0.86248      -0.20903
Nuclear contribution   :      9.83682      -1.69221       0.13787
                        -----------------------------------------
Total Dipole Moment    :      0.18127      -0.82973      -0.07116
                        -----------------------------------------
Magnitude (a.u.)       :      0.85228
Magnitude (Debye)      :      2.16631



--------------------
Rotational spectrum 
--------------------
 
Rotational constants in cm-1:     0.019289     0.013532     0.009114 
Rotational constants in MHz :   578.258761   405.675531   273.232390 

 Dipole components along the rotational axes: 
x,y,z [a.u.] :     0.111662    -0.840268     0.088632 
x,y,z [Debye]:     0.283822    -2.135791     0.225285 

 

Timings for individual modules:

Sum of individual times         ...      367.512 sec (=   6.125 min)
GTO integral calculation        ...       32.262 sec (=   0.538 min)   8.8 %
SCF iterations                  ...      243.289 sec (=   4.055 min)  66.2 %
SCF Gradient evaluation         ...       91.458 sec (=   1.524 min)  24.9 %
Geometry relaxation             ...        0.503 sec (=   0.008 min)   0.1 %
                             ****ORCA TERMINATED NORMALLY****
TOTAL RUN TIME: 0 days 0 hours 6 minutes 35 seconds 368 msec
