
                                 *****************
                                 * O   R   C   A *
                                 *****************

                                            #,                                       
                                            ###                                      
                                            ####                                     
                                            #####                                    
                                            ######                                   
                                           ########,                                 
                                     ,,################,,,,,                         
                               ,,#################################,,                 
                          ,,##########################################,,             
                       ,#########################################, ''#####,          
                    ,#############################################,,   '####,        
                  ,##################################################,,,,####,       
                ,###########''''           ''''###############################       
              ,#####''   ,,,,##########,,,,          '''####'''          '####       
            ,##' ,,,,###########################,,,                        '##       
           ' ,,###''''                  '''############,,,                           
         ,,##''                                '''############,,,,        ,,,,,,###''
      ,#''                                            '''#######################'''  
     '                                                          ''''####''''         
             ,#######,   #######,   ,#######,      ##                                
            ,#'     '#,  ##    ##  ,#'     '#,    #''#        ######   ,####,        
            ##       ##  ##   ,#'  ##            #'  '#       #        #'  '#        
            ##       ##  #######   ##           ,######,      #####,   #    #        
            '#,     ,#'  ##    ##  '#,     ,#' ,#      #,         ##   #,  ,#        
             '#######'   ##     ##  '#######'  #'      '#     #####' # '####'        



                  #######################################################
                  #                        -***-                        #
                  #          Department of theory and spectroscopy      #
                  #    Directorship and core code : Frank Neese         #
                  #        Max Planck Institute fuer Kohlenforschung    #
                  #                Kaiser Wilhelm Platz 1               #
                  #                 D-45470 Muelheim/Ruhr               #
                  #                      Germany                        #
                  #                                                     #
                  #                  All rights reserved                #
                  #                        -***-                        #
                  #######################################################


                         Program Version 5.0.4 -  RELEASE  -


 With contributions from (in alphabetic order):
   Daniel Aravena         : Magnetic Suceptibility
   Michael Atanasov       : Ab Initio Ligand Field Theory (pilot matlab implementation)
   Alexander A. Auer      : GIAO ZORA, VPT2 properties, NMR spectrum
   Ute Becker             : Parallelization
   Giovanni Bistoni       : ED, misc. LED, open-shell LED, HFLD
   Martin Brehm           : Molecular dynamics
   Dmytro Bykov           : SCF Hessian
   Vijay G. Chilkuri      : MRCI spin determinant printing, contributions to CSF-ICE
   Dipayan Datta          : RHF DLPNO-CCSD density
   Achintya Kumar Dutta   : EOM-CC, STEOM-CC
   Dmitry Ganyushin       : Spin-Orbit,Spin-Spin,Magnetic field MRCI
   Miquel Garcia          : C-PCM and meta-GGA Hessian, CC/C-PCM, Gaussian charge scheme
   Yang Guo               : DLPNO-NEVPT2, F12-NEVPT2, CIM, IAO-localization
   Andreas Hansen         : Spin unrestricted coupled pair/coupled cluster methods
   Benjamin Helmich-Paris : MC-RPA, TRAH-SCF, COSX integrals
   Lee Huntington         : MR-EOM, pCC
   Robert Izsak           : Overlap fitted RIJCOSX, COSX-SCS-MP3, EOM
   Marcus Kettner         : VPT2
   Christian Kollmar      : KDIIS, OOCD, Brueckner-CCSD(T), CCSD density, CASPT2, CASPT2-K
   Simone Kossmann        : Meta GGA functionals, TD-DFT gradient, OOMP2, MP2 Hessian
   Martin Krupicka        : Initial AUTO-CI
   Lucas Lang             : DCDCAS
   Marvin Lechner         : AUTO-CI (C++ implementation), FIC-MRCC
   Dagmar Lenk            : GEPOL surface, SMD
   Dimitrios Liakos       : Extrapolation schemes; Compound Job, initial MDCI parallelization
   Dimitrios Manganas     : Further ROCIS development; embedding schemes
   Dimitrios Pantazis     : SARC Basis sets
   Anastasios Papadopoulos: AUTO-CI, single reference methods and gradients
   Taras Petrenko         : DFT Hessian,TD-DFT gradient, ASA, ECA, R-Raman, ABS, FL, XAS/XES, NRVS
   Peter Pinski           : DLPNO-MP2, DLPNO-MP2 Gradient
   Christoph Reimann      : Effective Core Potentials
   Marius Retegan         : Local ZFS, SOC
   Christoph Riplinger    : Optimizer, TS searches, QM/MM, DLPNO-CCSD(T), (RO)-DLPNO pert. Triples
   Tobias Risthaus        : Range-separated hybrids, TD-DFT gradient, RPA, STAB
   Michael Roemelt        : Original ROCIS implementation
   Masaaki Saitow         : Open-shell DLPNO-CCSD energy and density
   Barbara Sandhoefer     : DKH picture change effects
   Avijit Sen             : IP-ROCIS
   Kantharuban Sivalingam : CASSCF convergence, NEVPT2, FIC-MRCI
   Bernardo de Souza      : ESD, SOC TD-DFT
   Georgi Stoychev        : AutoAux, RI-MP2 NMR, DLPNO-MP2 response
   Willem Van den Heuvel  : Paramagnetic NMR
   Boris Wezisla          : Elementary symmetry handling
   Frank Wennmohs         : Technical directorship


 We gratefully acknowledge several colleagues who have allowed us to
 interface, adapt or use parts of their codes:
   Stefan Grimme, W. Hujo, H. Kruse, P. Pracht,  : VdW corrections, initial TS optimization,
                  C. Bannwarth, S. Ehlert          DFT functionals, gCP, sTDA/sTD-DF
   Ed Valeev, F. Pavosevic, A. Kumar             : LibInt (2-el integral package), F12 methods
   Garnet Chan, S. Sharma, J. Yang, R. Olivares  : DMRG
   Ulf Ekstrom                                   : XCFun DFT Library
   Mihaly Kallay                                 : mrcc  (arbitrary order and MRCC methods)
   Jiri Pittner, Ondrej Demel                    : Mk-CCSD
   Frank Weinhold                                : gennbo (NPA and NBO analysis)
   Christopher J. Cramer and Donald G. Truhlar   : smd solvation model
   Lars Goerigk                                  : TD-DFT with DH, B97 family of functionals
   V. Asgeirsson, H. Jonsson                     : NEB implementation
   FAccTs GmbH                                   : IRC, NEB, NEB-TS, DLPNO-Multilevel, CI-OPT
                                                   MM, QMMM, 2- and 3-layer-ONIOM, Crystal-QMMM,
                                                   LR-CPCM, SF, NACMEs, symmetry and pop. for TD-DFT,
                                                   nearIR, NL-DFT gradient (VV10), updates on ESD,
                                                   ML-optimized integration grids
   S Lehtola, MJT Oliveira, MAL Marques          : LibXC Library
   Liviu Ungur et al                             : ANISO software


 Your calculation uses the libint2 library for the computation of 2-el integrals
 For citations please refer to: http://libint.valeyev.net

 Your ORCA version has been built with support for libXC version: 5.1.0
 For citations please refer to: https://tddft.org/programs/libxc/

 This ORCA versions uses:
   CBLAS   interface :  Fast vector & matrix operations
   LAPACKE interface :  Fast linear algebra routines
   SCALAPACK package :  Parallel linear algebra routines
   Shared memory     :  Shared parallel matrices
   BLAS/LAPACK       :  OpenBLAS 0.3.15  USE64BITINT DYNAMIC_ARCH NO_AFFINITY Zen SINGLE_THREADED
        Core in use  :  Zen
   Copyright (c) 2011-2014, The OpenBLAS Project




***************************************
The coordinates will be read from file: opt.xyz
***************************************


================================================================================

----- Orbital basis set information -----
Your calculation utilizes the basis: EPR-II
   V. Barone, in Recent Advances in Density Functional Methods, Part 1 (ed. D. P. Chong), World Scientific, Singapore, 1995, p. 287.

----- AuxJ basis set information -----
Your calculation utilizes the AutoAux generation procedure.
  G. L. Stoychev, A. A. Auer, F. Neese, J. Chem. Theory Comput. 13, 554 (2017)

----- AuxC basis set information -----
Your calculation utilizes the AutoAux generation procedure.
  G. L. Stoychev, A. A. Auer, F. Neese, J. Chem. Theory Comput. 13, 554 (2017)

----- AuxJK basis set information -----
Your calculation utilizes the AutoAux generation procedure.
  G. L. Stoychev, A. A. Auer, F. Neese, J. Chem. Theory Comput. 13, 554 (2017)

================================================================================
                                        WARNINGS
                       Please study these warnings very carefully!
================================================================================


WARNING: your system is open-shell and RHF/RKS was chosen
  ===> : WILL SWITCH to UHF/UKS


INFO   : the flag for use of the SHARK integral package has been found!

================================================================================
                                       INPUT FILE
================================================================================
NAME = epr_info.inp
|  1> ! B3LYP EPR-II AUTOAUX
|  2> %pal nprocs 16 end
|  3> *XYZFile 1 2 opt.xyz
|  4> %EPRNMR
|  5>         GTENSOR   TRUE
|  6>         NUCLEI    = 1,4,9,10,11,12,13,14,15,16,17,18,19,20,22,23,24,25 {SHIFT, AISO, ADIP, AORB}
|  7>         ORI       GIAO
|  8> END
|  9> 
| 10>                          ****END OF INPUT****
================================================================================

                       ****************************
                       * Single Point Calculation *
                       ****************************

---------------------------------
CARTESIAN COORDINATES (ANGSTROEM)
---------------------------------
  N     -7.687084    1.307546   -0.031709
  C     -6.415973    1.462620    0.499447
  C     -6.148160    0.373629    1.480449
  O     -7.029898   -0.477448    1.686798
  C     -5.505057    2.591217    0.111235
  C     -5.830587    3.937207    0.827596
  C     -5.166581    5.176028    0.175084
  C     -6.044092    5.937458   -0.828031
  N     -6.425828    5.100862   -2.033562
  H     -5.549734    2.709038   -0.975825
  H     -4.468060    2.317474    0.332172
  H     -5.497937    3.859581    1.866735
  H     -6.915356    4.079679    0.867908
  H     -4.211128    4.905040   -0.293959
  H     -4.917940    5.908935    0.949919
  H     -5.532324    6.827618   -1.201661
  H     -6.986567    6.244715   -0.368409
  H     -6.995911    5.644821   -2.685411
  H     -6.999933    4.241598   -1.753218
  H     -8.116830    0.467462    0.373191
  C     -8.401689    2.033731   -0.933640
  N     -4.947231    0.356317    2.122661
  H     -4.247960    1.046248    1.905192
  O     -7.980431    3.088699   -1.465178
  H     -5.595194    4.790442   -2.541925
  C     -4.622931   -0.695755    3.088714
  H     -4.663570   -1.680073    2.614724
  H     -3.616819   -0.518525    3.470906
  H     -5.333643   -0.684413    3.919037
  C     -9.772719    1.500064   -1.285796
  H     -9.796681    1.275620   -2.356808
  H    -10.043817    0.602926   -0.726547
  H    -10.514634    2.281947   -1.099455

----------------------------
CARTESIAN COORDINATES (A.U.)
----------------------------
  NO LB      ZA    FRAG     MASS         X           Y           Z
   0 N     7.0000    0    14.007  -14.526484    2.470903   -0.059922
   1 C     6.0000    0    12.011  -12.124431    2.763952    0.943819
   2 C     6.0000    0    12.011  -11.618339    0.706056    2.797643
   3 O     8.0000    0    15.999  -13.284582   -0.902245    3.187586
   4 C     6.0000    0    12.011  -10.403051    4.896690    0.210205
   5 C     6.0000    0    12.011  -11.018213    7.440244    1.563930
   6 C     6.0000    0    12.011   -9.763424    9.781276    0.330861
   7 C     6.0000    0    12.011  -11.421680   11.220170   -1.564751
   8 N     7.0000    0    14.007  -12.143054    9.639232   -3.842875
   9 H     1.0000    0     1.008  -10.487477    5.119340   -1.844042
  10 H     1.0000    0     1.008   -8.443410    4.379391    0.627714
  11 H     1.0000    0     1.008  -10.389594    7.293552    3.527617
  12 H     1.0000    0     1.008  -13.068130    7.709475    1.640109
  13 H     1.0000    0     1.008   -7.957879    9.269182   -0.555502
  14 H     1.0000    0     1.008   -9.293560   11.166269    1.795087
  15 H     1.0000    0     1.008  -10.454578   12.902327   -2.270811
  16 H     1.0000    0     1.008  -13.202699   11.800802   -0.696193
  17 H     1.0000    0     1.008  -13.220355   10.667165   -5.074691
  18 H     1.0000    0     1.008  -13.227956    8.015458   -3.313101
  19 H     1.0000    0     1.008  -15.338585    0.883375    0.705229
  20 C     6.0000    0    12.011  -15.876891    3.843194   -1.764323
  21 N     7.0000    0    14.007   -9.348911    0.673341    4.011247
  22 H     1.0000    0     1.008   -8.027481    1.977123    3.600292
  23 O     8.0000    0    15.999  -15.080830    5.836796   -2.768786
  24 H     1.0000    0     1.008  -10.573384    9.052624   -4.803542
  25 C     6.0000    0    12.011   -8.736073   -1.314787    5.836824
  26 H     1.0000    0     1.008   -8.812870   -3.174877    4.941113
  27 H     1.0000    0     1.008   -6.834798   -0.979870    6.559061
  28 H     1.0000    0     1.008  -10.079125   -1.293354    7.405906
  29 C     6.0000    0    12.011  -18.467762    2.834710   -2.429803
  30 H     1.0000    0     1.008  -18.513044    2.410572   -4.453721
  31 H     1.0000    0     1.008  -18.980063    1.139365   -1.372975
  32 H     1.0000    0     1.008  -19.869778    4.312255   -2.077668

--------------------------------
INTERNAL COORDINATES (ANGSTROEM)
--------------------------------
 N      0   0   0     0.000000000000     0.00000000     0.00000000
 C      1   0   0     1.386326214254     0.00000000     0.00000000
 C      2   1   0     1.489963202689   109.59145927     0.00000000
 O      3   2   1     1.242727845891   118.83810769     0.04959132
 C      2   1   3     1.501400847112   122.77254567   180.64848604
 C      5   2   1     1.559113059129   113.79492093    79.72533200
 C      6   5   2     1.549630009900   114.03008606   195.45437956
 C      7   6   5     1.534939847416   115.26374086    95.10905542
 N      8   7   6     1.516219145181   112.94393226   297.19106710
 H      5   2   1     1.094339101354   108.24063095   316.09994234
 H      5   2   1     1.095039373025   109.54037158   201.63401484
 H      6   5   2     1.093842189241   108.16333997    73.95861830
 H      6   5   2     1.094827796177   109.64151516   318.80585193
 H      7   6   5     1.098329505612   110.81378541   329.49320718
 H      7   6   5     1.095145383075   109.53426421   213.31981677
 H      8   7   6     1.092652979550   111.09029894   176.71038658
 H      8   7   6     1.092665430786   110.95930654    55.80879564
 H      9   8   7     1.022640174850   110.71151232   180.93455686
 H      9   8   7     1.070758513151   111.69104091    61.61791408
 H      1   2   3     1.026823430375   108.91547593   358.88427757
 C      1   2   3     1.360691796924   132.51597162   178.87424947
 N      3   2   1     1.361971801408   118.57053314   180.47192958
 H     22   3   2     1.006120105859   120.14574252   357.54530646
 O     21   1   2     1.254173332947   123.60379372   358.49726265
 H      9   8   7     1.022127781957   111.00290271   300.00577288
 C     22   3   2     1.464679178916   121.02216047   180.53480270
 H     26  22   3     1.093251693018   110.64215767    59.46416528
 H     26  22   3     1.090752538321   108.57996042   179.56198375
 H     26  22   3     1.093012256953   110.46440316   299.50833853
 C     21   1   2     1.512791447303   116.23133378   178.39772047
 H     30  21   1     1.094538342224   108.66059385   241.21432819
 H     30  21   1     1.091379689073   113.31719977     2.67231849
 H     30  21   1     1.093847192188   108.83759158   124.59771042

---------------------------
INTERNAL COORDINATES (A.U.)
---------------------------
 N      0   0   0     0.000000000000     0.00000000     0.00000000
 C      1   0   0     2.619776877215     0.00000000     0.00000000
 C      2   1   0     2.815622402703   109.59145927     0.00000000
 O      3   2   1     2.348415287732   118.83810769     0.04959132
 C      2   1   3     2.837236418279   122.77254567   180.64848604
 C      5   2   1     2.946296693575   113.79492093    79.72533200
 C      6   5   2     2.928376327616   114.03008606   195.45437956
 C      7   6   5     2.900615943660   115.26374086    95.10905542
 N      8   7   6     2.865238943399   112.94393226   297.19106710
 H      5   2   1     2.068001199200   108.24063095   316.09994234
 H      5   2   1     2.069324520878   109.54037158   201.63401484
 H      6   5   2     2.067062171394   108.16333997    73.95861830
 H      6   5   2     2.068924698580   109.64151516   318.80585193
 H      7   6   5     2.075541970412   110.81378541   329.49320718
 H      7   6   5     2.069524850840   109.53426421   213.31981677
 H      8   7   6     2.064814890762   111.09029894   176.71038658
 H      8   7   6     2.064838420188   110.95930654    55.80879564
 H      9   8   7     1.932509864012   110.71151232   180.93455686
 H      9   8   7     2.023440345419   111.69104091    61.61791408
 H      1   2   3     1.940415071302   108.91547593   358.88427757
 C      1   2   3     2.571334848860   132.51597162   178.87424947
 N      3   2   1     2.573753706785   118.57053314   180.47192958
 H     22   3   2     1.901291457906   120.14574252   357.54530646
 O     21   1   2     2.370044123737   123.60379372   358.49726265
 H      9   8   7     1.931541581771   111.00290271   300.00577288
 C     22   3   2     2.767842522208   121.02216047   180.53480270
 H     26  22   3     2.065946295249   110.64215767    59.46416528
 H     26  22   3     2.061223577305   108.57996042   179.56198375
 H     26  22   3     2.065493826660   110.46440316   299.50833853
 C     21   1   2     2.858761533140   116.23133378   178.39772047
 H     30  21   1     2.068377709880   108.66059385   241.21432819
 H     30  21   1     2.062408720473   113.31719977     2.67231849
 H     30  21   1     2.067071625594   108.83759158   124.59771042

---------------------
BASIS SET INFORMATION
---------------------
There are 4 groups of distinct atoms

 Group   1 Type N   : 10s5p1d contracted to 6s2p1d pattern {511111/41/1}
 Group   2 Type C   : 10s5p1d contracted to 6s2p1d pattern {511111/41/1}
 Group   3 Type O   : 10s5p1d contracted to 6s2p1d pattern {511111/41/1}
 Group   4 Type H   : 6s1p contracted to 4s1p pattern {3111/1}

Atom   0N    basis set group =>   1
Atom   1C    basis set group =>   2
Atom   2C    basis set group =>   2
Atom   3O    basis set group =>   3
Atom   4C    basis set group =>   2
Atom   5C    basis set group =>   2
Atom   6C    basis set group =>   2
Atom   7C    basis set group =>   2
Atom   8N    basis set group =>   1
Atom   9H    basis set group =>   4
Atom  10H    basis set group =>   4
Atom  11H    basis set group =>   4
Atom  12H    basis set group =>   4
Atom  13H    basis set group =>   4
Atom  14H    basis set group =>   4
Atom  15H    basis set group =>   4
Atom  16H    basis set group =>   4
Atom  17H    basis set group =>   4
Atom  18H    basis set group =>   4
Atom  19H    basis set group =>   4
Atom  20C    basis set group =>   2
Atom  21N    basis set group =>   1
Atom  22H    basis set group =>   4
Atom  23O    basis set group =>   3
Atom  24H    basis set group =>   4
Atom  25C    basis set group =>   2
Atom  26H    basis set group =>   4
Atom  27H    basis set group =>   4
Atom  28H    basis set group =>   4
Atom  29C    basis set group =>   2
Atom  30H    basis set group =>   4
Atom  31H    basis set group =>   4
Atom  32H    basis set group =>   4
---------------------------------
AUXILIARY/J BASIS SET INFORMATION
---------------------------------
There are 4 groups of distinct atoms

 Group   1 Type N   : 17s13p12d2f contracted to 17s13p12d2f pattern {11111111111111111/1111111111111/111111111111/11}
 Group   2 Type C   : 17s13p12d2f contracted to 17s13p12d2f pattern {11111111111111111/1111111111111/111111111111/11}
 Group   3 Type O   : 17s13p12d2f contracted to 17s13p12d2f pattern {11111111111111111/1111111111111/111111111111/11}
 Group   4 Type H   : 15s6p1d contracted to 15s6p1d pattern {111111111111111/111111/1}

Atom   0N    basis set group =>   1
Atom   1C    basis set group =>   2
Atom   2C    basis set group =>   2
Atom   3O    basis set group =>   3
Atom   4C    basis set group =>   2
Atom   5C    basis set group =>   2
Atom   6C    basis set group =>   2
Atom   7C    basis set group =>   2
Atom   8N    basis set group =>   1
Atom   9H    basis set group =>   4
Atom  10H    basis set group =>   4
Atom  11H    basis set group =>   4
Atom  12H    basis set group =>   4
Atom  13H    basis set group =>   4
Atom  14H    basis set group =>   4
Atom  15H    basis set group =>   4
Atom  16H    basis set group =>   4
Atom  17H    basis set group =>   4
Atom  18H    basis set group =>   4
Atom  19H    basis set group =>   4
Atom  20C    basis set group =>   2
Atom  21N    basis set group =>   1
Atom  22H    basis set group =>   4
Atom  23O    basis set group =>   3
Atom  24H    basis set group =>   4
Atom  25C    basis set group =>   2
Atom  26H    basis set group =>   4
Atom  27H    basis set group =>   4
Atom  28H    basis set group =>   4
Atom  29C    basis set group =>   2
Atom  30H    basis set group =>   4
Atom  31H    basis set group =>   4
Atom  32H    basis set group =>   4
---------------------------------
AUXILIARY/C BASIS SET INFORMATION
---------------------------------
There are 4 groups of distinct atoms

 Group   1 Type N   : 17s13p12d2f contracted to 17s13p12d2f pattern {11111111111111111/1111111111111/111111111111/11}
 Group   2 Type C   : 17s13p12d2f contracted to 17s13p12d2f pattern {11111111111111111/1111111111111/111111111111/11}
 Group   3 Type O   : 17s13p12d2f contracted to 17s13p12d2f pattern {11111111111111111/1111111111111/111111111111/11}
 Group   4 Type H   : 15s6p1d contracted to 15s6p1d pattern {111111111111111/111111/1}

Atom   0N    basis set group =>   1
Atom   1C    basis set group =>   2
Atom   2C    basis set group =>   2
Atom   3O    basis set group =>   3
Atom   4C    basis set group =>   2
Atom   5C    basis set group =>   2
Atom   6C    basis set group =>   2
Atom   7C    basis set group =>   2
Atom   8N    basis set group =>   1
Atom   9H    basis set group =>   4
Atom  10H    basis set group =>   4
Atom  11H    basis set group =>   4
Atom  12H    basis set group =>   4
Atom  13H    basis set group =>   4
Atom  14H    basis set group =>   4
Atom  15H    basis set group =>   4
Atom  16H    basis set group =>   4
Atom  17H    basis set group =>   4
Atom  18H    basis set group =>   4
Atom  19H    basis set group =>   4
Atom  20C    basis set group =>   2
Atom  21N    basis set group =>   1
Atom  22H    basis set group =>   4
Atom  23O    basis set group =>   3
Atom  24H    basis set group =>   4
Atom  25C    basis set group =>   2
Atom  26H    basis set group =>   4
Atom  27H    basis set group =>   4
Atom  28H    basis set group =>   4
Atom  29C    basis set group =>   2
Atom  30H    basis set group =>   4
Atom  31H    basis set group =>   4
Atom  32H    basis set group =>   4
----------------------------------
AUXILIARY/JK BASIS SET INFORMATION
----------------------------------
There are 4 groups of distinct atoms

 Group   1 Type N   : 17s13p12d2f contracted to 17s13p12d2f pattern {11111111111111111/1111111111111/111111111111/11}
 Group   2 Type C   : 17s13p12d2f contracted to 17s13p12d2f pattern {11111111111111111/1111111111111/111111111111/11}
 Group   3 Type O   : 17s13p12d2f contracted to 17s13p12d2f pattern {11111111111111111/1111111111111/111111111111/11}
 Group   4 Type H   : 15s6p1d contracted to 15s6p1d pattern {111111111111111/111111/1}

Atom   0N    basis set group =>   1
Atom   1C    basis set group =>   2
Atom   2C    basis set group =>   2
Atom   3O    basis set group =>   3
Atom   4C    basis set group =>   2
Atom   5C    basis set group =>   2
Atom   6C    basis set group =>   2
Atom   7C    basis set group =>   2
Atom   8N    basis set group =>   1
Atom   9H    basis set group =>   4
Atom  10H    basis set group =>   4
Atom  11H    basis set group =>   4
Atom  12H    basis set group =>   4
Atom  13H    basis set group =>   4
Atom  14H    basis set group =>   4
Atom  15H    basis set group =>   4
Atom  16H    basis set group =>   4
Atom  17H    basis set group =>   4
Atom  18H    basis set group =>   4
Atom  19H    basis set group =>   4
Atom  20C    basis set group =>   2
Atom  21N    basis set group =>   1
Atom  22H    basis set group =>   4
Atom  23O    basis set group =>   3
Atom  24H    basis set group =>   4
Atom  25C    basis set group =>   2
Atom  26H    basis set group =>   4
Atom  27H    basis set group =>   4
Atom  28H    basis set group =>   4
Atom  29C    basis set group =>   2
Atom  30H    basis set group =>   4
Atom  31H    basis set group =>   4
Atom  32H    basis set group =>   4


           ************************************************************
           *        Program running with 16 parallel MPI-processes    *
           *              working on a common directory               *
           ************************************************************
------------------------------------------------------------------------------
                           ORCA GTO INTEGRAL CALCULATION
                           -- RI-GTO INTEGRALS CHOSEN --
------------------------------------------------------------------------------
------------------------------------------------------------------------------
                   ___                                                        
                  /   \      - P O W E R E D   B Y -                         
                 /     \                                                     
                 |  |  |   _    _      __       _____    __    __             
                 |  |  |  | |  | |    /  \     |  _  \  |  |  /  |          
                  \  \/   | |  | |   /    \    | | | |  |  | /  /          
                 / \  \   | |__| |  /  /\  \   | |_| |  |  |/  /          
                |  |  |   |  __  | /  /__\  \  |    /   |      \           
                |  |  |   | |  | | |   __   |  |    \   |  |\   \          
                \     /   | |  | | |  |  |  |  | |\  \  |  | \   \       
                 \___/    |_|  |_| |__|  |__|  |_| \__\ |__|  \__/        
                                                                              
                      - O R C A' S   B I G   F R I E N D -                    
                                      &                                       
                       - I N T E G R A L  F E E D E R -                       
                                                                              
 v1 FN, 2020, v2 2021                                                         
------------------------------------------------------------------------------


Reading SHARK input file epr_info.SHARKINP.tmp ... ok
----------------------
SHARK INTEGRAL PACKAGE
----------------------

Number of atoms                             ...     33
Number of basis functions                   ...    371
Number of shells                            ...    221
Maximum angular momentum                    ...      2
Integral batch strategy                     ... SHARK/LIBINT Hybrid
RI-J (if used) integral strategy            ... SPLIT-RIJ (Revised 2003 algorithm where possible)
Printlevel                                  ...      1
Contraction scheme used                     ... SEGMENTED contraction
Coulomb Range Separation                    ... NOT USED
Exchange Range Separation                   ... NOT USED
Finite Nucleus Model                        ... NOT USED
Auxiliary Coulomb fitting basis             ... AVAILABLE
   # of basis functions in Aux-J            ...   2542
   # of shells in Aux-J                     ...   1034
   Maximum angular momentum in Aux-J        ...      3
Auxiliary J/K fitting basis                 ... AVAILABLE
   # of basis functions in Aux-JK           ...   2542
   # of shells in Aux-JK                    ...   1034
   Maximum angular momentum in Aux-JK       ...      3
Auxiliary Correlation fitting basis         ... AVAILABLE
   # of basis functions in Aux-C            ...   2542
   # of shells in Aux-C                     ...   1034
   Maximum angular momentum in Aux-C        ...      3
Auxiliary 'external' fitting basis          ... NOT available
Integral threshold                          ...     1.000000e-10
Primitive cut-off                           ...     1.000000e-11
Primitive pair pre-selection threshold      ...     1.000000e-11

Calculating pre-screening integrals         ... done (  0.0 sec) Dimension = 221
Organizing shell pair data                  ... done (  0.1 sec)
Shell pair information
Total number of shell pairs                 ...     24531
Shell pairs after pre-screening             ...     16064
Total number of primitive shell pairs       ...     64184
Primitive shell pairs kept                  ...     30494
          la=0 lb=0:   7558 shell pairs
          la=1 lb=0:   5478 shell pairs
          la=1 lb=1:    942 shell pairs
          la=2 lb=0:   1477 shell pairs
          la=2 lb=1:    523 shell pairs
          la=2 lb=2:     86 shell pairs

Calculating one electron integrals          ... done (  0.0 sec)
Calculating RI/J V-Matrix + Cholesky decomp.... done (  0.4 sec)
Calculating RI/JK V-Matrix + Cholesky decomp... done (  0.3 sec)
Calculating RI/C V-Matrix + Cholesky decomp.... done (  0.3 sec)
Calculating Nuclear repulsion               ... done (  0.0 sec) ENN=    960.820288084081 Eh

SHARK setup successfully completed in   1.2 seconds

Maximum memory used throughout the entire GTOINT-calculation: 29.2 MB


           ************************************************************
           *        Program running with 16 parallel MPI-processes    *
           *              working on a common directory               *
           ************************************************************
-------------------------------------------------------------------------------
                                 ORCA SCF
-------------------------------------------------------------------------------

------------
SCF SETTINGS
------------
Hamiltonian:
 Density Functional     Method          .... DFT(GTOs)
 Exchange Functional    Exchange        .... B88
   X-Alpha parameter    XAlpha          ....  0.666667
   Becke's b parameter  XBeta           ....  0.004200
 Correlation Functional Correlation     .... LYP
 LDA part of GGA corr.  LDAOpt          .... VWN-5
 Gradients option       PostSCFGGA      .... off
 Hybrid DFT is turned on
   Fraction HF Exchange ScalHFX         ....  0.200000
   Scaling of DF-GGA-X  ScalDFX         ....  0.720000
   Scaling of DF-GGA-C  ScalDFC         ....  0.810000
   Scaling of DF-LDA-C  ScalLDAC        ....  1.000000
   Perturbative correction              ....  0.000000
   Density functional embedding theory  .... OFF
   NL short-range parameter             ....  4.800000
 RI-approximation to the Coulomb term is turned on
   Number of AuxJ basis functions       .... 2542
   RIJ-COSX (HFX calculated with COS-X)).... on


General Settings:
 Integral files         IntName         .... epr_info
 Hartree-Fock type      HFTyp           .... UHF
 Total Charge           Charge          ....    1
 Multiplicity           Mult            ....    2
 Number of Electrons    NEL             ....  109
 Basis Dimension        Dim             ....  371
 Nuclear Repulsion      ENuc            ....    960.8202880841 Eh

Convergence Acceleration:
 DIIS                   CNVDIIS         .... on
   Start iteration      DIISMaxIt       ....    12
   Startup error        DIISStart       ....  0.200000
   # of expansion vecs  DIISMaxEq       ....     5
   Bias factor          DIISBfac        ....   1.050
   Max. coefficient     DIISMaxC        ....  10.000
 Trust-Rad. Augm. Hess. CNVTRAH         .... auto
   Auto Start mean grad. ratio tolernc. ....  1.125000
   Auto Start start iteration           ....    20
   Auto Start num. interpolation iter.  ....    10
   Max. Number of Micro iterations      ....    16
   Max. Number of Macro iterations      .... Maxiter - #DIIS iter
   Number of Davidson start vectors     ....     2
   Converg. threshold I  (grad. norm)   ....   5.000e-05
   Converg. threshold II (energy diff.) ....   1.000e-06
   Grad. Scal. Fac. for Micro threshold ....   0.100
   Minimum threshold for Micro iter.    ....   0.010
   NR start threshold (gradient norm)   ....   0.001
   Initial trust radius                 ....   0.400
   Minimum AH scaling param. (alpha)    ....   1.000
   Maximum AH scaling param. (alpha)    .... 1000.000
   Orbital update algorithm             .... Taylor
   White noise on init. David. guess    .... on
   Maximum white noise                  ....   0.010
   Quad. conv. algorithm                .... NR
 SOSCF                  CNVSOSCF        .... off
 Level Shifting         CNVShift        .... on
   Level shift para.    LevelShift      ....    0.2500
   Turn off err/grad.   ShiftErr        ....    0.0010
 Zerner damping         CNVZerner       .... off
 Static damping         CNVDamp         .... on
   Fraction old density DampFac         ....    0.7000
   Max. Damping (<1)    DampMax         ....    0.9800
   Min. Damping (>=0)   DampMin         ....    0.0000
   Turn off err/grad.   DampErr         ....    0.1000
 Fernandez-Rico         CNVRico         .... off

SCF Procedure:
 Maximum # iterations   MaxIter         ....   125
 SCF integral mode      SCFMode         .... Direct
   Integral package                     .... SHARK and LIBINT hybrid scheme
 Reset frequency        DirectResetFreq ....    20
 Integral Threshold     Thresh          ....  1.000e-10 Eh
 Primitive CutOff       TCut            ....  1.000e-11 Eh

Convergence Tolerance:
 Convergence Check Mode ConvCheckMode   .... Total+1el-Energy
 Convergence forced     ConvForced      .... 0
 Energy Change          TolE            ....  1.000e-06 Eh
 1-El. energy change                    ....  1.000e-03 Eh
 DIIS Error             TolErr          ....  1.000e-06


Diagonalization of the overlap matrix:
Smallest eigenvalue                        ... 5.964e-04
Time for diagonalization                   ...    0.015 sec
Threshold for overlap eigenvalues          ... 1.000e-08
Number of eigenvalues below threshold      ... 0
Time for construction of square roots      ...    0.011 sec
Total time needed                          ...    0.026 sec

Time for model grid setup =    0.117 sec

------------------------------
INITIAL GUESS: MODEL POTENTIAL
------------------------------
Loading Hartree-Fock densities                     ... done
Calculating cut-offs                               ... done
Initializing the effective Hamiltonian             ... done
Setting up the integral package (SHARK)            ... done
Starting the Coulomb interaction                   ... done (   0.1 sec)
Reading the grid                                   ... done
Mapping shells                                     ... done
Starting the XC term evaluation                    ... done (   0.0 sec)
  promolecular density results
     # of electrons  =    109.983611229
     EX              =    -88.089824689
     EC              =     -3.697962437
     EX+EC           =    -91.787787126
Transforming the Hamiltonian                       ... done (   0.0 sec)
Diagonalizing the Hamiltonian                      ... done (   0.0 sec)
Back transforming the eigenvectors                 ... done (   0.0 sec)
Now organizing SCF variables                       ... done
                      ------------------
                      INITIAL GUESS DONE (   0.3 sec)
                      ------------------
-------------------
DFT GRID GENERATION
-------------------

General Integration Accuracy     IntAcc      ... 4.388
Radial Grid Type                 RadialGrid  ... OptM3 with GC (2021)
Angular Grid (max. ang.)         AngularGrid ... 4 (Lebedev-302)
Angular grid pruning method      GridPruning ... 4 (adaptive)
Weight generation scheme         WeightScheme... Becke
Basis function cutoff            BFCut       ... 1.0000e-10
Integration weight cutoff        WCut        ... 1.0000e-14
Angular grids for H and He will be reduced by one unit
Partially contracted basis set               ... off
Rotationally invariant grid construction     ... off

Total number of grid points                  ...   144592
Total number of batches                      ...     2277
Average number of points per batch           ...       63
Average number of grid points per atom       ...     4382
Time for grid setup =    0.597 sec

--------------------
COSX GRID GENERATION
--------------------

GRIDX 1
-------
General Integration Accuracy     IntAcc      ... 3.816
Radial Grid Type                 RadialGrid  ... OptM3 with GC (2021)
Angular Grid (max. ang.)         AngularGrid ... 1 (Lebedev-50)
Angular grid pruning method      GridPruning ... 4 (adaptive)
Weight generation scheme         WeightScheme... Becke
Basis function cutoff            BFCut       ... 1.0000e-10
Integration weight cutoff        WCut        ... 1.0000e-14
Angular grids for H and He will be reduced by one unit
Partially contracted basis set               ... on
Rotationally invariant grid construction     ... off

Total number of grid points                  ...    18439
Total number of batches                      ...      310
Average number of points per batch           ...       59
Average number of grid points per atom       ...      559
UseSFitting                                  ... on

GRIDX 2
-------
General Integration Accuracy     IntAcc      ... 4.020
Radial Grid Type                 RadialGrid  ... OptM3 with GC (2021)
Angular Grid (max. ang.)         AngularGrid ... 2 (Lebedev-110)
Angular grid pruning method      GridPruning ... 4 (adaptive)
Weight generation scheme         WeightScheme... Becke
Basis function cutoff            BFCut       ... 1.0000e-10
Integration weight cutoff        WCut        ... 1.0000e-14
Angular grids for H and He will be reduced by one unit
Partially contracted basis set               ... on
Rotationally invariant grid construction     ... off

Total number of grid points                  ...    38891
Total number of batches                      ...      625
Average number of points per batch           ...       62
Average number of grid points per atom       ...     1179
UseSFitting                                  ... on

GRIDX 3
-------
General Integration Accuracy     IntAcc      ... 4.338
Radial Grid Type                 RadialGrid  ... OptM3 with GC (2021)
Angular Grid (max. ang.)         AngularGrid ... 3 (Lebedev-194)
Angular grid pruning method      GridPruning ... 4 (adaptive)
Weight generation scheme         WeightScheme... Becke
Basis function cutoff            BFCut       ... 1.0000e-10
Integration weight cutoff        WCut        ... 1.0000e-14
Angular grids for H and He will be reduced by one unit
Partially contracted basis set               ... on
Rotationally invariant grid construction     ... off

Total number of grid points                  ...    84838
Total number of batches                      ...     1341
Average number of points per batch           ...       63
Average number of grid points per atom       ...     2571
UseSFitting                                  ... on

Time for X-Grid setup             =    0.696 sec

--------------
SCF ITERATIONS
--------------
ITER       Energy         Delta-E        Max-DP      RMS-DP      [F,P]     Damp
               ***  Starting incremental Fock matrix formation  ***
  0   -668.2024262026   0.000000000000 0.06325476  0.00082603  0.1306277 0.7000
  1   -668.4101062698  -0.207680067185 0.03417277  0.00054197  0.0474751 0.7000
                               ***Turning on DIIS***
  2   -668.4856430339  -0.075536764116 0.04067455  0.00086918  0.0163732 0.0000
  3   -668.6138870359  -0.128244002024 0.02507058  0.00037210  0.0250945 0.0000
  4   -668.6387841298  -0.024897093846 0.00989790  0.00013434  0.0090785 0.0000
  5   -668.6406553781  -0.001871248367 0.00400683  0.00004931  0.0048038 0.0000
  6   -668.6409805507  -0.000325172594 0.00164676  0.00002030  0.0010648 0.0000
  7   -668.6410308166  -0.000050265885 0.00244180  0.00002136  0.0004862 0.0000
               *** Restarting incremental Fock matrix formation ***
                                   *** Resetting DIIS ***
  8   -668.6410716649  -0.000040848338 0.00103101  0.00001033  0.0002567 0.0000
  9   -668.6410725679  -0.000000902932 0.00059812  0.00000572  0.0004940 0.0000
 10   -668.6410776377  -0.000005069858 0.00042442  0.00000307  0.0001792 0.0000
 11   -668.6410781216  -0.000000483816 0.00027600  0.00000201  0.0001952 0.0000
                 **** Energy Check signals convergence ****

               *****************************************************
               *                     SUCCESS                       *
               *           SCF CONVERGED AFTER  12 CYCLES          *
               *****************************************************

Old exchange energy                            =    -17.881501239 Eh
New exchange energy                            =    -17.881498471 Eh
Exchange energy change after final integration =      0.000002768 Eh
Total energy after final integration           =   -668.641075767 Eh
Final COS-X integration done in                =     2.261 sec

----------------
TOTAL SCF ENERGY
----------------

Total Energy       :         -668.64107577 Eh          -18194.64867 eV

Components:
Nuclear Repulsion  :          960.82028808 Eh           26145.24924 eV
Electronic Energy  :        -1629.46136385 Eh          -44339.89791 eV
One Electron Energy:        -2800.26114138 Eh          -76198.97954 eV
Two Electron Energy:         1170.79977753 Eh           31859.08163 eV
Max COSX asymmetry :            0.00000075 Eh               0.00002 eV

Virial components:
Potential Energy   :        -1332.70565622 Eh          -36264.76457 eV
Kinetic Energy     :          664.06458045 Eh           18070.11590 eV
Virial Ratio       :            2.00689164


DFT components:
N(Alpha)           :       55.000023850968 electrons
N(Beta)            :       54.000030555813 electrons
N(Total)           :      109.000054406781 electrons
E(X)               :      -71.035281484032 Eh       
E(C)               :       -4.324313654630 Eh       
E(XC)              :      -75.359595138662 Eh       
DFET-embed. en.    :        0.000000000000 Eh       

---------------
SCF CONVERGENCE
---------------

  Last Energy change         ...   -4.1281e-07  Tolerance :   1.0000e-06
  Last MAX-Density change    ...    0.0000e+00  Tolerance :   1.0000e-05
  Last RMS-Density change    ...    0.0000e+00  Tolerance :   1.0000e-06
  Last DIIS Error            ...    5.9038e-05  Tolerance :   1.0000e-06

             **** THE GBW FILE WAS UPDATED (epr_info.gbw) ****
             **** DENSITY epr_info.scfp WAS UPDATED ****
             **** ENERGY FILE WAS UPDATED (epr_info.en.tmp) ****
----------------------
UHF SPIN CONTAMINATION
----------------------

Warning: in a DFT calculation there is little theoretical justification to 
         calculate <S**2> as in Hartree-Fock theory. We will do it anyways
         but you should keep in mind that the values have only limited relevance

Expectation value of <S**2>     :     0.756206
Ideal value S*(S+1) for S=0.5   :     0.750000
Deviation                       :     0.006206

             **** THE GBW FILE WAS UPDATED (epr_info.gbw) ****
             **** DENSITY epr_info.scfp WAS UPDATED ****
----------------
ORBITAL ENERGIES
----------------
                 SPIN UP ORBITALS
  NO   OCC          E(Eh)            E(eV) 
   0   1.0000     -19.261037      -524.1195 
   1   1.0000     -19.217736      -522.9412 
   2   1.0000     -14.583483      -396.8367 
   3   1.0000     -14.510471      -394.8500 
   4   1.0000     -14.470733      -393.7687 
   5   1.0000     -10.439481      -284.0727 
   6   1.0000     -10.405460      -283.1470 
   7   1.0000     -10.398094      -282.9465 
   8   1.0000     -10.374294      -282.2989 
   9   1.0000     -10.343556      -281.4625 
  10   1.0000     -10.339350      -281.3480 
  11   1.0000     -10.330307      -281.1019 
  12   1.0000     -10.308978      -280.5216 
  13   1.0000     -10.306221      -280.4465 
  14   1.0000      -1.180385       -32.1199 
  15   1.0000      -1.145653       -31.1748 
  16   1.0000      -1.138177       -30.9714 
  17   1.0000      -1.074062       -29.2267 
  18   1.0000      -1.028060       -27.9749 
  19   1.0000      -0.951301       -25.8862 
  20   1.0000      -0.915885       -24.9225 
  21   1.0000      -0.870083       -23.6762 
  22   1.0000      -0.838751       -22.8236 
  23   1.0000      -0.805757       -21.9258 
  24   1.0000      -0.787241       -21.4219 
  25   1.0000      -0.750506       -20.4223 
  26   1.0000      -0.735636       -20.0177 
  27   1.0000      -0.718020       -19.5383 
  28   1.0000      -0.708214       -19.2715 
  29   1.0000      -0.686833       -18.6897 
  30   1.0000      -0.665606       -18.1121 
  31   1.0000      -0.648832       -17.6556 
  32   1.0000      -0.618026       -16.8173 
  33   1.0000      -0.595620       -16.2076 
  34   1.0000      -0.592038       -16.1102 
  35   1.0000      -0.583627       -15.8813 
  36   1.0000      -0.580596       -15.7988 
  37   1.0000      -0.561090       -15.2680 
  38   1.0000      -0.557088       -15.1591 
  39   1.0000      -0.547871       -14.9083 
  40   1.0000      -0.543120       -14.7791 
  41   1.0000      -0.533304       -14.5119 
  42   1.0000      -0.523568       -14.2470 
  43   1.0000      -0.516008       -14.0413 
  44   1.0000      -0.509409       -13.8617 
  45   1.0000      -0.494152       -13.4465 
  46   1.0000      -0.491961       -13.3869 
  47   1.0000      -0.484330       -13.1793 
  48   1.0000      -0.483316       -13.1517 
  49   1.0000      -0.476173       -12.9573 
  50   1.0000      -0.447668       -12.1817 
  51   1.0000      -0.411528       -11.1983 
  52   1.0000      -0.375800       -10.2260 
  53   1.0000      -0.369870       -10.0647 
  54   1.0000      -0.306423        -8.3382 
  55   0.0000      -0.140863        -3.8331 
  56   0.0000      -0.124221        -3.3802 
  57   0.0000      -0.100577        -2.7368 
  58   0.0000      -0.097225        -2.6456 
  59   0.0000      -0.090306        -2.4574 
  60   0.0000      -0.071579        -1.9478 
  61   0.0000      -0.066455        -1.8083 
  62   0.0000      -0.052604        -1.4314 
  63   0.0000      -0.048293        -1.3141 
  64   0.0000      -0.045406        -1.2356 
  65   0.0000      -0.032334        -0.8799 
  66   0.0000      -0.024600        -0.6694 
  67   0.0000      -0.016712        -0.4548 
  68   0.0000      -0.009989        -0.2718 
  69   0.0000       0.002291         0.0624 
  70   0.0000       0.010621         0.2890 
  71   0.0000       0.022312         0.6071 
  72   0.0000       0.027345         0.7441 
  73   0.0000       0.034583         0.9410 
  74   0.0000       0.038702         1.0531 
  75   0.0000       0.047057         1.2805 
  76   0.0000       0.058255         1.5852 
  77   0.0000       0.063133         1.7179 
  78   0.0000       0.073790         2.0079 
  79   0.0000       0.081492         2.2175 
  80   0.0000       0.086053         2.3416 
  81   0.0000       0.086956         2.3662 
  82   0.0000       0.091527         2.4906 
  83   0.0000       0.099128         2.6974 
  84   0.0000       0.107555         2.9267 
  85   0.0000       0.113300         3.0831 
  86   0.0000       0.118242         3.2175 
  87   0.0000       0.119668         3.2563 
  88   0.0000       0.127655         3.4737 
  89   0.0000       0.137154         3.7321 
  90   0.0000       0.140804         3.8315 
  91   0.0000       0.149860         4.0779 
  92   0.0000       0.155563         4.2331 
  93   0.0000       0.161253         4.3879 
  94   0.0000       0.164299         4.4708 
  95   0.0000       0.164589         4.4787 
  96   0.0000       0.174838         4.7576 
  97   0.0000       0.178849         4.8667 
  98   0.0000       0.182969         4.9788 
  99   0.0000       0.194965         5.3053 
 100   0.0000       0.198635         5.4051 
 101   0.0000       0.205933         5.6037 
 102   0.0000       0.208765         5.6808 
 103   0.0000       0.215729         5.8703 
 104   0.0000       0.222613         6.0576 
 105   0.0000       0.227586         6.1929 
 106   0.0000       0.233075         6.3423 
 107   0.0000       0.247461         6.7338 
 108   0.0000       0.258836         7.0433 
 109   0.0000       0.260817         7.0972 
 110   0.0000       0.269054         7.3213 
 111   0.0000       0.280168         7.6237 
 112   0.0000       0.297467         8.0945 
 113   0.0000       0.306986         8.3535 
 114   0.0000       0.319037         8.6814 
 115   0.0000       0.331291         9.0149 
 116   0.0000       0.338538         9.2121 
 117   0.0000       0.339166         9.2292 
 118   0.0000       0.353072         9.6076 
 119   0.0000       0.361405         9.8343 
 120   0.0000       0.364889         9.9291 
 121   0.0000       0.379390        10.3237 
 122   0.0000       0.393242        10.7007 
 123   0.0000       0.408691        11.1211 
 124   0.0000       0.416428        11.3316 
 125   0.0000       0.427003        11.6194 
 126   0.0000       0.432736        11.7754 
 127   0.0000       0.451395        12.2831 
 128   0.0000       0.472512        12.8577 
 129   0.0000       0.490620        13.3504 
 130   0.0000       0.499881        13.6025 
 131   0.0000       0.512389        13.9428 
 132   0.0000       0.528094        14.3702 
 133   0.0000       0.534640        14.5483 
 134   0.0000       0.551574        15.0091 
 135   0.0000       0.589698        16.0465 
 136   0.0000       0.593854        16.1596 
 137   0.0000       0.615363        16.7449 
 138   0.0000       0.625998        17.0343 
 139   0.0000       0.645015        17.5517 
 140   0.0000       0.668079        18.1794 
 141   0.0000       0.675591        18.3838 
 142   0.0000       0.685781        18.6610 
 143   0.0000       0.698323        19.0023 
 144   0.0000       0.705163        19.1885 
 145   0.0000       0.714556        19.4440 
 146   0.0000       0.727511        19.7966 
 147   0.0000       0.733638        19.9633 
 148   0.0000       0.741686        20.1823 
 149   0.0000       0.751181        20.4407 
 150   0.0000       0.754426        20.5290 
 151   0.0000       0.759633        20.6707 
 152   0.0000       0.764614        20.8062 
 153   0.0000       0.771429        20.9917 
 154   0.0000       0.777973        21.1697 
 155   0.0000       0.782027        21.2800 
 156   0.0000       0.797236        21.6939 
 157   0.0000       0.799841        21.7648 
 158   0.0000       0.806682        21.9509 
 159   0.0000       0.816714        22.2239 
 160   0.0000       0.824175        22.4270 
 161   0.0000       0.827820        22.5261 
 162   0.0000       0.842535        22.9265 
 163   0.0000       0.849947        23.1282 
 164   0.0000       0.865199        23.5433 
 165   0.0000       0.870989        23.7008 
 166   0.0000       0.872343        23.7377 
 167   0.0000       0.885593        24.0982 
 168   0.0000       0.897939        24.4342 
 169   0.0000       0.903500        24.5855 
 170   0.0000       0.926634        25.2150 
 171   0.0000       0.930371        25.3167 
 172   0.0000       0.949441        25.8356 
 173   0.0000       0.956993        26.0411 
 174   0.0000       0.967366        26.3234 
 175   0.0000       0.981572        26.7099 
 176   0.0000       0.997289        27.1376 
 177   0.0000       1.005858        27.3708 
 178   0.0000       1.023970        27.8636 
 179   0.0000       1.042268        28.3615 
 180   0.0000       1.053780        28.6748 
 181   0.0000       1.061864        28.8948 
 182   0.0000       1.079355        29.3707 
 183   0.0000       1.093514        29.7560 
 184   0.0000       1.097053        29.8523 
 185   0.0000       1.115974        30.3672 
 186   0.0000       1.157918        31.5086 
 187   0.0000       1.173127        31.9224 
 188   0.0000       1.184247        32.2250 
 189   0.0000       1.194032        32.4913 
 190   0.0000       1.208932        32.8967 
 191   0.0000       1.231382        33.5076 
 192   0.0000       1.241068        33.7712 
 193   0.0000       1.253605        34.1123 
 194   0.0000       1.266573        34.4652 
 195   0.0000       1.299375        35.3578 
 196   0.0000       1.305582        35.5267 
 197   0.0000       1.321697        35.9652 
 198   0.0000       1.326027        36.0830 
 199   0.0000       1.336816        36.3766 
 200   0.0000       1.344339        36.5813 
 201   0.0000       1.363104        37.0920 
 202   0.0000       1.372370        37.3441 
 203   0.0000       1.382471        37.6190 
 204   0.0000       1.389067        37.7984 
 205   0.0000       1.398094        38.0441 
 206   0.0000       1.406214        38.2650 
 207   0.0000       1.410927        38.3933 
 208   0.0000       1.418986        38.6126 
 209   0.0000       1.430038        38.9133 
 210   0.0000       1.435896        39.0727 
 211   0.0000       1.452789        39.5324 
 212   0.0000       1.460215        39.7345 
 213   0.0000       1.472015        40.0556 
 214   0.0000       1.480783        40.2942 
 215   0.0000       1.488339        40.4998 
 216   0.0000       1.503825        40.9212 
 217   0.0000       1.519203        41.3396 
 218   0.0000       1.529050        41.6076 
 219   0.0000       1.548104        42.1261 
 220   0.0000       1.555448        42.3259 
 221   0.0000       1.564553        42.5736 
 222   0.0000       1.571071        42.7510 
 223   0.0000       1.579322        42.9755 
 224   0.0000       1.583828        43.0981 
 225   0.0000       1.600695        43.5571 
 226   0.0000       1.607789        43.7502 
 227   0.0000       1.620372        44.0926 
 228   0.0000       1.623417        44.1754 
 229   0.0000       1.645970        44.7891 
 230   0.0000       1.658249        45.1233 
 231   0.0000       1.667374        45.3715 
 232   0.0000       1.677530        45.6479 
 233   0.0000       1.691551        46.0294 
 234   0.0000       1.716507        46.7085 
 235   0.0000       1.729173        47.0532 
 236   0.0000       1.742385        47.4127 
 237   0.0000       1.750560        47.6352 
 238   0.0000       1.773122        48.2491 
 239   0.0000       1.777661        48.3726 
 240   0.0000       1.799381        48.9637 
 241   0.0000       1.813237        49.3407 
 242   0.0000       1.822284        49.5869 
 243   0.0000       1.860916        50.6381 
 244   0.0000       1.862116        50.6707 
 245   0.0000       1.885486        51.3067 
 246   0.0000       1.904312        51.8190 
 247   0.0000       1.912193        52.0334 
 248   0.0000       1.915703        52.1289 
 249   0.0000       1.931598        52.5615 
 250   0.0000       1.956755        53.2460 
 251   0.0000       1.960481        53.3474 
 252   0.0000       1.989586        54.1394 
 253   0.0000       2.022087        55.0238 
 254   0.0000       2.034445        55.3601 
 255   0.0000       2.042834        55.5883 
 256   0.0000       2.047947        55.7275 
 257   0.0000       2.086201        56.7684 
 258   0.0000       2.096775        57.0562 
 259   0.0000       2.103544        57.2403 
 260   0.0000       2.118818        57.6560 
 261   0.0000       2.131980        58.0141 
 262   0.0000       2.156876        58.6916 
 263   0.0000       2.159860        58.7728 
 264   0.0000       2.174390        59.1682 
 265   0.0000       2.190964        59.6192 
 266   0.0000       2.215012        60.2735 
 267   0.0000       2.238663        60.9171 
 268   0.0000       2.253605        61.3237 
 269   0.0000       2.272621        61.8412 
 270   0.0000       2.276142        61.9370 
 271   0.0000       2.284586        62.1667 
 272   0.0000       2.300535        62.6007 
 273   0.0000       2.310259        62.8654 
 274   0.0000       2.324365        63.2492 
 275   0.0000       2.332878        63.4808 
 276   0.0000       2.340966        63.7009 
 277   0.0000       2.358759        64.1851 
 278   0.0000       2.370713        64.5104 
 279   0.0000       2.382151        64.8216 
 280   0.0000       2.391894        65.0867 
 281   0.0000       2.403267        65.3962 
 282   0.0000       2.416564        65.7581 
 283   0.0000       2.428072        66.0712 
 284   0.0000       2.451718        66.7146 
 285   0.0000       2.471659        67.2573 
 286   0.0000       2.502282        68.0906 
 287   0.0000       2.519844        68.5684 
 288   0.0000       2.563755        69.7633 
 289   0.0000       2.588847        70.4461 
 290   0.0000       2.592017        70.5324 
 291   0.0000       2.609323        71.0033 
 292   0.0000       2.623301        71.3836 
 293   0.0000       2.631145        71.5971 
 294   0.0000       2.681693        72.9726 
 295   0.0000       2.697987        73.4160 
 296   0.0000       2.798129        76.1409 
 297   0.0000       2.915903        79.3458 
 298   0.0000       2.933532        79.8255 
 299   0.0000       2.963513        80.6413 
 300   0.0000       2.971367        80.8550 
 301   0.0000       3.224188        87.7346 
 302   0.0000       3.317999        90.2874 
 303   0.0000       3.333458        90.7080 
 304   0.0000       3.471952        94.4766 
 305   0.0000       4.741563       129.0245 
 306   0.0000       4.818218       131.1104 
 307   0.0000       4.837957       131.6475 
 308   0.0000       4.871603       132.5631 
 309   0.0000       4.871953       132.5726 
 310   0.0000       4.889502       133.0501 
 311   0.0000       4.907586       133.5422 
 312   0.0000       4.914665       133.7348 
 313   0.0000       4.916471       133.7840 
 314   0.0000       4.927691       134.0893 
 315   0.0000       4.966163       135.1362 
 316   0.0000       5.035123       137.0127 
 317   0.0000       5.061326       137.7257 
 318   0.0000       5.071915       138.0138 
 319   0.0000       5.114846       139.1820 
 320   0.0000       5.140337       139.8757 
 321   0.0000       5.154677       140.2659 
 322   0.0000       5.173031       140.7653 
 323   0.0000       5.200551       141.5142 
 324   0.0000       5.211354       141.8081 
 325   0.0000       5.236152       142.4830 
 326   0.0000       5.254814       142.9908 
 327   0.0000       5.370773       146.1462 
 328   0.0000       5.494720       149.5189 
 329   0.0000       5.570322       151.5762 
 330   0.0000       5.594077       152.2226 
 331   0.0000       5.645320       153.6170 
 332   0.0000       5.705510       155.2548 
 333   0.0000       7.167856       195.0473 
 334   0.0000       7.211464       196.2339 
 335   0.0000       7.241461       197.0502 
 336   0.0000       8.932444       243.0642 
 337   0.0000       9.028873       245.6881 
 338   0.0000      29.451388       801.4130 
 339   0.0000      29.528828       803.5203 
 340   0.0000      29.607263       805.6546 
 341   0.0000      29.761629       809.8551 
 342   0.0000      29.838711       811.9526 
 343   0.0000      29.958260       815.2057 
 344   0.0000      29.981489       815.8378 
 345   0.0000      30.032198       817.2176 
 346   0.0000      30.104803       819.1933 
 347   0.0000      36.336009       988.7531 
 348   0.0000      36.455518       992.0051 
 349   0.0000      36.490341       992.9527 
 350   0.0000      36.493798       993.0467 
 351   0.0000      36.512190       993.5472 
 352   0.0000      36.525467       993.9085 
 353   0.0000      36.527873       993.9740 
 354   0.0000      36.532372       994.0964 
 355   0.0000      36.540354       994.3136 
 356   0.0000      36.575587       995.2723 
 357   0.0000      36.596546       995.8426 
 358   0.0000      36.640037       997.0261 
 359   0.0000      36.648972       997.2692 
 360   0.0000      36.682271       998.1753 
 361   0.0000      36.726508       999.3791 
 362   0.0000      36.765888      1000.4507 
 363   0.0000      36.789123      1001.0829 
 364   0.0000      36.811252      1001.6851 
 365   0.0000      36.812938      1001.7310 
 366   0.0000      41.087268      1118.0414 
 367   0.0000      41.161751      1120.0682 
 368   0.0000      41.173444      1120.3864 
 369   0.0000      53.475198      1455.1341 
 370   0.0000      53.561890      1457.4931 

                 SPIN DOWN ORBITALS
  NO   OCC          E(Eh)            E(eV) 
   0   1.0000     -19.258615      -524.0536 
   1   1.0000     -19.215604      -522.8832 
   2   1.0000     -14.583492      -396.8370 
   3   1.0000     -14.510209      -394.8429 
   4   1.0000     -14.469175      -393.7263 
   5   1.0000     -10.437882      -284.0292 
   6   1.0000     -10.406258      -283.1687 
   7   1.0000     -10.398095      -282.9465 
   8   1.0000     -10.363628      -282.0087 
   9   1.0000     -10.343471      -281.4602 
  10   1.0000     -10.340033      -281.3666 
  11   1.0000     -10.329323      -281.0752 
  12   1.0000     -10.309049      -280.5235 
  13   1.0000     -10.306367      -280.4505 
  14   1.0000      -1.175599       -31.9897 
  15   1.0000      -1.141995       -31.0753 
  16   1.0000      -1.137706       -30.9586 
  17   1.0000      -1.068351       -29.0713 
  18   1.0000      -1.024582       -27.8803 
  19   1.0000      -0.949038       -25.8246 
  20   1.0000      -0.908930       -24.7332 
  21   1.0000      -0.867461       -23.6048 
  22   1.0000      -0.834280       -22.7019 
  23   1.0000      -0.804917       -21.9029 
  24   1.0000      -0.782732       -21.2992 
  25   1.0000      -0.749473       -20.3942 
  26   1.0000      -0.734520       -19.9873 
  27   1.0000      -0.717365       -19.5205 
  28   1.0000      -0.705986       -19.2109 
  29   1.0000      -0.683939       -18.6109 
  30   1.0000      -0.661683       -18.0053 
  31   1.0000      -0.648056       -17.6345 
  32   1.0000      -0.616395       -16.7730 
  33   1.0000      -0.592569       -16.1246 
  34   1.0000      -0.586483       -15.9590 
  35   1.0000      -0.579350       -15.7649 
  36   1.0000      -0.575113       -15.6496 
  37   1.0000      -0.558740       -15.2041 
  38   1.0000      -0.550756       -14.9868 
  39   1.0000      -0.545629       -14.8473 
  40   1.0000      -0.541216       -14.7272 
  41   1.0000      -0.532227       -14.4826 
  42   1.0000      -0.518647       -14.1131 
  43   1.0000      -0.514879       -14.0106 
  44   1.0000      -0.503356       -13.6970 
  45   1.0000      -0.492155       -13.3922 
  46   1.0000      -0.488650       -13.2968 
  47   1.0000      -0.482043       -13.1171 
  48   1.0000      -0.478437       -13.0189 
  49   1.0000      -0.474063       -12.8999 
  50   1.0000      -0.433220       -11.7885 
  51   1.0000      -0.409250       -11.1362 
  52   1.0000      -0.372126       -10.1261 
  53   1.0000      -0.357647        -9.7321 
  54   0.0000      -0.211207        -5.7472 
  55   0.0000      -0.140623        -3.8265 
  56   0.0000      -0.110028        -2.9940 
  57   0.0000      -0.098412        -2.6779 
  58   0.0000      -0.096752        -2.6328 
  59   0.0000      -0.089822        -2.4442 
  60   0.0000      -0.071225        -1.9381 
  61   0.0000      -0.066112        -1.7990 
  62   0.0000      -0.049689        -1.3521 
  63   0.0000      -0.045103        -1.2273 
  64   0.0000      -0.035995        -0.9795 
  65   0.0000      -0.031400        -0.8544 
  66   0.0000      -0.023221        -0.6319 
  67   0.0000      -0.013476        -0.3667 
  68   0.0000      -0.008759        -0.2383 
  69   0.0000       0.003499         0.0952 
  70   0.0000       0.012026         0.3272 
  71   0.0000       0.024274         0.6605 
  72   0.0000       0.028931         0.7873 
  73   0.0000       0.035936         0.9779 
  74   0.0000       0.041828         1.1382 
  75   0.0000       0.048598         1.3224 
  76   0.0000       0.059309         1.6139 
  77   0.0000       0.064816         1.7637 
  78   0.0000       0.074818         2.0359 
  79   0.0000       0.084705         2.3050 
  80   0.0000       0.087127         2.3708 
  81   0.0000       0.090632         2.4662 
  82   0.0000       0.092747         2.5238 
  83   0.0000       0.100360         2.7309 
  84   0.0000       0.108728         2.9586 
  85   0.0000       0.115548         3.1442 
  86   0.0000       0.119096         3.2408 
  87   0.0000       0.121631         3.3098 
  88   0.0000       0.129751         3.5307 
  89   0.0000       0.140689         3.8283 
  90   0.0000       0.142292         3.8720 
  91   0.0000       0.150373         4.0918 
  92   0.0000       0.157142         4.2760 
  93   0.0000       0.162422         4.4197 
  94   0.0000       0.164966         4.4889 
  95   0.0000       0.168722         4.5912 
  96   0.0000       0.175970         4.7884 
  97   0.0000       0.180289         4.9059 
  98   0.0000       0.185203         5.0396 
  99   0.0000       0.196463         5.3460 
 100   0.0000       0.201048         5.4708 
 101   0.0000       0.207681         5.6513 
 102   0.0000       0.210075         5.7164 
 103   0.0000       0.216589         5.8937 
 104   0.0000       0.223951         6.0940 
 105   0.0000       0.229861         6.2548 
 106   0.0000       0.234855         6.3907 
 107   0.0000       0.248926         6.7736 
 108   0.0000       0.259884         7.0718 
 109   0.0000       0.265454         7.2234 
 110   0.0000       0.271173         7.3790 
 111   0.0000       0.282699         7.6926 
 112   0.0000       0.298728         8.1288 
 113   0.0000       0.308677         8.3995 
 114   0.0000       0.321041         8.7360 
 115   0.0000       0.332443         9.0462 
 116   0.0000       0.339057         9.2262 
 117   0.0000       0.341415         9.2904 
 118   0.0000       0.354317         9.6415 
 119   0.0000       0.365175         9.9369 
 120   0.0000       0.367256         9.9935 
 121   0.0000       0.386090        10.5060 
 122   0.0000       0.396360        10.7855 
 123   0.0000       0.409383        11.1399 
 124   0.0000       0.419681        11.4201 
 125   0.0000       0.428333        11.6555 
 126   0.0000       0.435010        11.8372 
 127   0.0000       0.453300        12.3349 
 128   0.0000       0.475190        12.9306 
 129   0.0000       0.492962        13.4142 
 130   0.0000       0.503788        13.7088 
 131   0.0000       0.514348        13.9961 
 132   0.0000       0.534095        14.5335 
 133   0.0000       0.537535        14.6271 
 134   0.0000       0.554968        15.1015 
 135   0.0000       0.590546        16.0696 
 136   0.0000       0.595258        16.1978 
 137   0.0000       0.617196        16.7947 
 138   0.0000       0.629264        17.1231 
 139   0.0000       0.647442        17.6178 
 140   0.0000       0.669976        18.2310 
 141   0.0000       0.677990        18.4490 
 142   0.0000       0.687758        18.7148 
 143   0.0000       0.700625        19.0650 
 144   0.0000       0.706777        19.2324 
 145   0.0000       0.715797        19.4778 
 146   0.0000       0.729057        19.8387 
 147   0.0000       0.734797        19.9948 
 148   0.0000       0.744002        20.2453 
 149   0.0000       0.752928        20.4882 
 150   0.0000       0.755788        20.5660 
 151   0.0000       0.760739        20.7008 
 152   0.0000       0.766914        20.8688 
 153   0.0000       0.772348        21.0167 
 154   0.0000       0.779844        21.2206 
 155   0.0000       0.782960        21.3054 
 156   0.0000       0.798188        21.7198 
 157   0.0000       0.800926        21.7943 
 158   0.0000       0.807872        21.9833 
 159   0.0000       0.817606        22.2482 
 160   0.0000       0.825507        22.4632 
 161   0.0000       0.829381        22.5686 
 162   0.0000       0.843582        22.9550 
 163   0.0000       0.851699        23.1759 
 164   0.0000       0.867343        23.6016 
 165   0.0000       0.872880        23.7523 
 166   0.0000       0.876688        23.8559 
 167   0.0000       0.892205        24.2781 
 168   0.0000       0.899962        24.4892 
 169   0.0000       0.913769        24.8649 
 170   0.0000       0.927894        25.2493 
 171   0.0000       0.933051        25.3896 
 172   0.0000       0.950461        25.8634 
 173   0.0000       0.959156        26.1000 
 174   0.0000       0.968823        26.3630 
 175   0.0000       0.983781        26.7700 
 176   0.0000       0.999572        27.1997 
 177   0.0000       1.007012        27.4022 
 178   0.0000       1.026152        27.9230 
 179   0.0000       1.044920        28.4337 
 180   0.0000       1.055335        28.7171 
 181   0.0000       1.063779        28.9469 
 182   0.0000       1.080645        29.4058 
 183   0.0000       1.094188        29.7744 
 184   0.0000       1.098515        29.8921 
 185   0.0000       1.117326        30.4040 
 186   0.0000       1.160928        31.5905 
 187   0.0000       1.174366        31.9561 
 188   0.0000       1.184956        32.2443 
 189   0.0000       1.196660        32.5628 
 190   0.0000       1.212041        32.9813 
 191   0.0000       1.234977        33.6054 
 192   0.0000       1.243076        33.8258 
 193   0.0000       1.254622        34.1400 
 194   0.0000       1.270159        34.5628 
 195   0.0000       1.300411        35.3860 
 196   0.0000       1.308543        35.6073 
 197   0.0000       1.322192        35.9787 
 198   0.0000       1.326906        36.1069 
 199   0.0000       1.337776        36.4027 
 200   0.0000       1.348375        36.6912 
 201   0.0000       1.367667        37.2161 
 202   0.0000       1.374679        37.4069 
 203   0.0000       1.384374        37.6707 
 204   0.0000       1.391423        37.8626 
 205   0.0000       1.399896        38.0931 
 206   0.0000       1.407378        38.2967 
 207   0.0000       1.412698        38.4415 
 208   0.0000       1.420760        38.6608 
 209   0.0000       1.431489        38.9528 
 210   0.0000       1.438152        39.1341 
 211   0.0000       1.454729        39.5852 
 212   0.0000       1.463751        39.8307 
 213   0.0000       1.474357        40.1193 
 214   0.0000       1.483936        40.3799 
 215   0.0000       1.491727        40.5920 
 216   0.0000       1.505450        40.9654 
 217   0.0000       1.520841        41.3842 
 218   0.0000       1.530213        41.6392 
 219   0.0000       1.552051        42.2335 
 220   0.0000       1.556916        42.3658 
 221   0.0000       1.566853        42.6362 
 222   0.0000       1.573399        42.8144 
 223   0.0000       1.581236        43.0276 
 224   0.0000       1.585811        43.1521 
 225   0.0000       1.601792        43.5870 
 226   0.0000       1.608941        43.7815 
 227   0.0000       1.621697        44.1286 
 228   0.0000       1.627429        44.2846 
 229   0.0000       1.648445        44.8565 
 230   0.0000       1.660242        45.1775 
 231   0.0000       1.668559        45.4038 
 232   0.0000       1.679123        45.6913 
 233   0.0000       1.693185        46.0739 
 234   0.0000       1.717934        46.7474 
 235   0.0000       1.732038        47.1311 
 236   0.0000       1.744515        47.4707 
 237   0.0000       1.752757        47.6949 
 238   0.0000       1.775731        48.3201 
 239   0.0000       1.780573        48.4519 
 240   0.0000       1.800163        48.9849 
 241   0.0000       1.815359        49.3984 
 242   0.0000       1.823738        49.6264 
 243   0.0000       1.862596        50.6838 
 244   0.0000       1.866004        50.7766 
 245   0.0000       1.888426        51.3867 
 246   0.0000       1.905902        51.8622 
 247   0.0000       1.913069        52.0572 
 248   0.0000       1.916593        52.1532 
 249   0.0000       1.932631        52.5896 
 250   0.0000       1.958203        53.2854 
 251   0.0000       1.961340        53.3708 
 252   0.0000       1.991886        54.2020 
 253   0.0000       2.023416        55.0600 
 254   0.0000       2.035527        55.3895 
 255   0.0000       2.044470        55.6329 
 256   0.0000       2.050364        55.7932 
 257   0.0000       2.087480        56.8032 
 258   0.0000       2.100252        57.1507 
 259   0.0000       2.104871        57.2764 
 260   0.0000       2.123558        57.7850 
 261   0.0000       2.133288        58.0497 
 262   0.0000       2.160736        58.7966 
 263   0.0000       2.161751        58.8242 
 264   0.0000       2.175014        59.1851 
 265   0.0000       2.193917        59.6995 
 266   0.0000       2.216440        60.3124 
 267   0.0000       2.242512        61.0219 
 268   0.0000       2.255134        61.3653 
 269   0.0000       2.273495        61.8649 
 270   0.0000       2.276721        61.9527 
 271   0.0000       2.285537        62.1926 
 272   0.0000       2.300979        62.6128 
 273   0.0000       2.312401        62.9236 
 274   0.0000       2.325183        63.2715 
 275   0.0000       2.334315        63.5199 
 276   0.0000       2.341420        63.7133 
 277   0.0000       2.359592        64.2078 
 278   0.0000       2.372876        64.5692 
 279   0.0000       2.383162        64.8491 
 280   0.0000       2.393089        65.1193 
 281   0.0000       2.404046        65.4174 
 282   0.0000       2.417228        65.7761 
 283   0.0000       2.428726        66.0890 
 284   0.0000       2.452649        66.7400 
 285   0.0000       2.472739        67.2867 
 286   0.0000       2.504059        68.1389 
 287   0.0000       2.522825        68.6495 
 288   0.0000       2.566541        69.8391 
 289   0.0000       2.594423        70.5978 
 290   0.0000       2.596087        70.6431 
 291   0.0000       2.613868        71.1270 
 292   0.0000       2.625888        71.4540 
 293   0.0000       2.636269        71.7365 
 294   0.0000       2.681882        72.9777 
 295   0.0000       2.699216        73.4494 
 296   0.0000       2.801316        76.2277 
 297   0.0000       2.923182        79.5438 
 298   0.0000       2.935908        79.8901 
 299   0.0000       2.967449        80.7484 
 300   0.0000       2.976795        81.0027 
 301   0.0000       3.226130        87.7875 
 302   0.0000       3.320166        90.3463 
 303   0.0000       3.335402        90.7609 
 304   0.0000       3.474315        94.5409 
 305   0.0000       4.741789       129.0306 
 306   0.0000       4.822482       131.2264 
 307   0.0000       4.839046       131.6771 
 308   0.0000       4.872068       132.5757 
 309   0.0000       4.873436       132.6129 
 310   0.0000       4.890288       133.0715 
 311   0.0000       4.908860       133.5769 
 312   0.0000       4.915263       133.7511 
 313   0.0000       4.918806       133.8475 
 314   0.0000       4.927999       134.0977 
 315   0.0000       4.967247       135.1657 
 316   0.0000       5.035635       137.0266 
 317   0.0000       5.061560       137.7321 
 318   0.0000       5.075860       138.1212 
 319   0.0000       5.115451       139.1985 
 320   0.0000       5.140723       139.8862 
 321   0.0000       5.155278       140.2823 
 322   0.0000       5.173509       140.7783 
 323   0.0000       5.201142       141.5303 
 324   0.0000       5.212037       141.8267 
 325   0.0000       5.238054       142.5347 
 326   0.0000       5.256270       143.0304 
 327   0.0000       5.371377       146.1626 
 328   0.0000       5.499445       149.6475 
 329   0.0000       5.573454       151.6614 
 330   0.0000       5.594982       152.2472 
 331   0.0000       5.647204       153.6682 
 332   0.0000       5.709520       155.3639 
 333   0.0000       7.167951       195.0499 
 334   0.0000       7.214700       196.3220 
 335   0.0000       7.243304       197.1003 
 336   0.0000       8.937798       243.2099 
 337   0.0000       9.033612       245.8171 
 338   0.0000      29.456261       801.5456 
 339   0.0000      29.531270       803.5867 
 340   0.0000      29.607992       805.6744 
 341   0.0000      29.761837       809.8608 
 342   0.0000      29.839602       811.9769 
 343   0.0000      29.962060       815.3091 
 344   0.0000      29.983900       815.9034 
 345   0.0000      30.032965       817.2385 
 346   0.0000      30.105927       819.2239 
 347   0.0000      36.336255       988.7598 
 348   0.0000      36.455642       992.0084 
 349   0.0000      36.492990       993.0247 
 350   0.0000      36.493984       993.0518 
 351   0.0000      36.512236       993.5485 
 352   0.0000      36.526295       993.9310 
 353   0.0000      36.529760       994.0253 
 354   0.0000      36.533742       994.1337 
 355   0.0000      36.541274       994.3386 
 356   0.0000      36.576521       995.2977 
 357   0.0000      36.596747       995.8481 
 358   0.0000      36.639858       997.0212 
 359   0.0000      36.648866       997.2663 
 360   0.0000      36.682343       998.1773 
 361   0.0000      36.727046       999.3937 
 362   0.0000      36.766130      1000.4573 
 363   0.0000      36.791477      1001.1470 
 364   0.0000      36.812787      1001.7269 
 365   0.0000      36.815195      1001.7924 
 366   0.0000      41.087282      1118.0418 
 367   0.0000      41.163308      1120.1106 
 368   0.0000      41.174243      1120.4081 
 369   0.0000      53.478040      1455.2114 
 370   0.0000      53.564408      1457.5616 

                    ********************************
                    * MULLIKEN POPULATION ANALYSIS *
                    ********************************

--------------------------------------------
MULLIKEN ATOMIC CHARGES AND SPIN POPULATIONS
--------------------------------------------
   0 N :    0.021200    0.004680
   1 C :    0.129844    0.693009
   2 C :    0.038278   -0.038944
   3 O :   -0.340854    0.080619
   4 C :   -0.345346   -0.039201
   5 C :   -0.249713    0.029806
   6 C :   -0.251990    0.003633
   7 C :   -0.278267    0.001881
   8 N :   -0.359344   -0.001055
   9 H :    0.141618    0.015480
  10 H :    0.136491    0.003567
  11 H :    0.163768   -0.000770
  12 H :    0.170668   -0.001680
  13 H :    0.166150    0.000056
  14 H :    0.173392    0.000373
  15 H :    0.194274    0.000581
  16 H :    0.207746   -0.000032
  17 H :    0.315732    0.000151
  18 H :    0.333924   -0.001197
  19 H :    0.269043   -0.001776
  20 C :    0.108304    0.092694
  21 N :   -0.109290    0.065693
  22 H :    0.226077   -0.002392
  23 O :   -0.321180    0.084994
  24 H :    0.306789    0.000466
  25 C :   -0.418962   -0.005568
  26 H :    0.194361    0.004702
  27 H :    0.149378    0.000055
  28 H :    0.193988    0.004106
  29 C :   -0.528259   -0.008430
  30 H :    0.197623    0.007434
  31 H :    0.169606   -0.000002
  32 H :    0.194951    0.007067
Sum of atomic charges         :    1.0000000
Sum of atomic spin populations:    1.0000000

-----------------------------------------------------
[...]
 A(ORB)          0.0545               0.1281              -0.0057    A(PC) =   0.0590
 A(DIA)          0.0012               0.0006              -0.0003    A(PC) =   0.0005
             ----------           ----------           ----------
 A(Tot)         -8.6934             -15.2049             128.4592    A(iso)=   34.8537
 Orientation: 
  X          -0.4566784            0.8157278            0.3550113
  Y           0.5586993            0.5735197           -0.5991079
  Z          -0.6923149           -0.0752551           -0.7176606

Notes:  (1) The A matrix conforms to the "SAI" spin Hamiltonian convention.
        (2) Tensor is right-handed.

 -----------------------------------------------------------
 Nucleus  22H : A:ISTP=    1 I=  0.5 P=533.5514 MHz/au**3
                Q:ISTP=    2 I=  1.0 Q=  0.0029 barn     
 -----------------------------------------------------------
 Solving for nuclear perturbation:
Forming RHS of the CP-SCF equations         ... 
Calc. nucleus orbit integrals (SHARK)       ... done

------------------------------------------------------------------------------
                           ORCA CP-SCF CALCULATION
------------------------------------------------------------------------------

Input orbitals are from        ... epr_info.gbw
Input Perturbation             ... epr_info.pin.tmp
Wavefunction output            ... epr_info.pout.tmp
Perturbation mode              ... Imaginary perturbation
Solver                         ... POPLE
Max. number of iterations      ... 64
Convergence tolerance          ... 1.000e-03
Integral handling              ... Direct
DFT GridXC                     ... 1
COSX GridX                     ... 1
COSX IntAccX                   ... 3.067
COSX Algorithm                 ... Auto
Number of perturbations        ... 3
Number of operators            ... 2
Orbital ranges used for CP-SCF:
 Operator 0:  Orbitals   0... 54  to  55...370
 Operator 1:  Orbitals   0... 53  to  54...370
Variables per perturbation     ... 34498
DFT calculation                         ... on
XC functional terms                     ... off
Hybrid DFT                              ... on
   Exchange mixing (SCF)                ...  0.200
   Exchange mixing (CP-SCF)             ...  0.200
   GGA exch. scaling(SCF)               ...  0.720
   GGA exch. scaling (CP-SCF)           ...  0.720
   GGA corr. scaling (SCF)              ...  0.810
   GGA corr. scaling (CP-SCF)           ...  0.810

CP-SCF GRID
-----------

General Integration Accuracy     IntAcc      ... 3.467
Radial Grid Type                 RadialGrid  ... OptM3 with GC (2021)
Angular Grid (max. ang.)         AngularGrid ... 1 (Lebedev-50)
Angular grid pruning method      GridPruning ... 4 (adaptive)
Weight generation scheme         WeightScheme... Becke
Basis function cutoff            BFCut       ... 1.0000e-10
Integration weight cutoff        WCut        ... 1.0000e-14
Angular grids for H and He will be reduced by one unit
Partially contracted basis set               ... off
Rotationally invariant grid construction     ... off

Total number of grid points                  ...    20292
Total number of batches                      ...      334
Average number of points per batch           ...       60
Average number of grid points per atom       ...      615

CP-SCF GRIDX
------------

General Integration Accuracy     IntAcc      ... 3.067
Radial Grid Type                 RadialGrid  ... OptM3 with GC (2021)
Angular Grid (max. ang.)         AngularGrid ... 1 (Lebedev-50)
Angular grid pruning method      GridPruning ... 4 (adaptive)
Weight generation scheme         WeightScheme... Becke
Basis function cutoff            BFCut       ... 1.0000e-10
Integration weight cutoff        WCut        ... 1.0000e-14
Angular grids for H and He will be reduced by one unit
Partially contracted basis set               ... on
Rotationally invariant grid construction     ... off

Total number of grid points                  ...     9608
Total number of batches                      ...      167
Average number of points per batch           ...       57
Average number of grid points per atom       ...      291

Memory available               ... 916.8 MB
Memory needed per perturbation ...   8.2 MB
Perturbations treated per batch... 3
Number of batches              ... 1
     CP-SCF ITERATION   0:   6.8512e-02 (   0.5 sec   0/  3 done)
     CP-SCF ITERATION   1:   4.3117e-03 (   0.5 sec   0/  3 done)
     CP-SCF ITERATION   2:   5.1022e-04 (   0.5 sec   3/  3 done)
                    *** THE CP-SCF HAS CONVERGED ***

Forming final perturbed densities           ... done
Transforming perturbed density to AO basis  ... done

 Raw HFC matrix (all values in MHz): 
 -----------------------------------
                -2.0893               2.6971               0.8123
                 2.6960              -6.4666              -1.0356
                 0.8131              -1.0358              -7.5106

 A(FC)          -5.3647              -5.3647              -5.3647
 A(SD)           4.5567              -0.9958              -3.5608
 A(ORB+DIA)      0.0159               0.0117              -0.0001    A(PC) =   0.0092
 A(ORB)          0.0149               0.0113               0.0004    A(PC) =   0.0089
 A(DIA)          0.0010               0.0004              -0.0005    A(PC) =   0.0003
             ----------           ----------           ----------
 A(Tot)         -0.7922              -6.3488              -8.9256    A(iso)=   -5.3555
 Orientation: 
  X           0.9054073           -0.2557096           -0.3388955
  Y           0.4222166            0.6258212            0.6558056
  Z           0.0443922           -0.7368585            0.6745879

Notes:  (1) The A matrix conforms to the "SAI" spin Hamiltonian convention.
        (2) Tensor is right-handed.

 -----------------------------------------------------------
 Nucleus  23O : A:ISTP=    1 I=  0.5 P=533.5514 MHz/au**3
                Q:ISTP=    2 I=  1.0 Q=  0.0029 barn     
 -----------------------------------------------------------
 Solving for nuclear perturbation:
Forming RHS of the CP-SCF equations         ... 
Calc. nucleus orbit integrals (SHARK)       ... done

------------------------------------------------------------------------------
                           ORCA CP-SCF CALCULATION
------------------------------------------------------------------------------

Input orbitals are from        ... epr_info.gbw
Input Perturbation             ... epr_info.pin.tmp
Wavefunction output            ... epr_info.pout.tmp
Perturbation mode              ... Imaginary perturbation
Solver                         ... POPLE
Max. number of iterations      ... 64
Convergence tolerance          ... 1.000e-03
Integral handling              ... Direct
DFT GridXC                     ... 1
COSX GridX                     ... 1
COSX IntAccX                   ... 3.067
COSX Algorithm                 ... Auto
Number of perturbations        ... 3
Number of operators            ... 2
Orbital ranges used for CP-SCF:
 Operator 0:  Orbitals   0... 54  to  55...370
 Operator 1:  Orbitals   0... 53  to  54...370
Variables per perturbation     ... 34498
DFT calculation                         ... on
XC functional terms                     ... off
Hybrid DFT                              ... on
   Exchange mixing (SCF)                ...  0.200
   Exchange mixing (CP-SCF)             ...  0.200
   GGA exch. scaling(SCF)               ...  0.720
   GGA exch. scaling (CP-SCF)           ...  0.720
   GGA corr. scaling (SCF)              ...  0.810
   GGA corr. scaling (CP-SCF)           ...  0.810

CP-SCF GRID
-----------

General Integration Accuracy     IntAcc      ... 3.467
Radial Grid Type                 RadialGrid  ... OptM3 with GC (2021)
Angular Grid (max. ang.)         AngularGrid ... 1 (Lebedev-50)
Angular grid pruning method      GridPruning ... 4 (adaptive)
Weight generation scheme         WeightScheme... Becke
Basis function cutoff            BFCut       ... 1.0000e-10
Integration weight cutoff        WCut        ... 1.0000e-14
Angular grids for H and He will be reduced by one unit
Partially contracted basis set               ... off
Rotationally invariant grid construction     ... off

Total number of grid points                  ...    20292
Total number of batches                      ...      334
Average number of points per batch           ...       60
Average number of grid points per atom       ...      615

CP-SCF GRIDX
------------

General Integration Accuracy     IntAcc      ... 3.067
Radial Grid Type                 RadialGrid  ... OptM3 with GC (2021)
Angular Grid (max. ang.)         AngularGrid ... 1 (Lebedev-50)
Angular grid pruning method      GridPruning ... 4 (adaptive)
Weight generation scheme         WeightScheme... Becke
Basis function cutoff            BFCut       ... 1.0000e-10
Integration weight cutoff        WCut        ... 1.0000e-14
Angular grids for H and He will be reduced by one unit
Partially contracted basis set               ... on
Rotationally invariant grid construction     ... off

Total number of grid points                  ...     9608
Total number of batches                      ...      167
Average number of points per batch           ...       57
Average number of grid points per atom       ...      291

Memory available               ... 916.4 MB
Memory needed per perturbation ...   8.2 MB
Perturbations treated per batch... 3
Number of batches              ... 1
     CP-SCF ITERATION   0:   3.2366e+00 (   0.5 sec   0/  3 done)
     CP-SCF ITERATION   1:   1.2203e-01 (   0.5 sec   0/  3 done)
     CP-SCF ITERATION   2:   1.1722e-02 (   0.5 sec   0/  3 done)
     CP-SCF ITERATION   3:   8.0823e-04 (   0.5 sec   3/  3 done)
                    *** THE CP-SCF HAS CONVERGED ***

Forming final perturbed densities           ... done
Transforming perturbed density to AO basis  ... done

 Raw HFC matrix (all values in MHz): 
 -----------------------------------
                20.9206             -70.5811             -95.7802
               -70.5211              41.1196             112.9917
               -95.8062             112.9714             121.8056

 A(FC)          60.8865              60.8865              60.8865
 A(SD)         -97.2916            -102.3292             199.6208
 A(ORB+DIA)      0.3158               0.8873              -0.0170    A(PC) =   0.3954
 A(ORB)          0.3147               0.8861              -0.0169    A(PC) =   0.3946
 A(DIA)          0.0011               0.0013              -0.0001    A(PC) =   0.0008
             ----------           ----------           ----------
 A(Tot)        -36.0892             -40.5553             260.4903    A(iso)=   61.2819
 Orientation: 
  X          -0.6612529            0.6041065            0.4447470
  Y           0.3594706            0.7755382           -0.5189618
  Z          -0.6584265           -0.1832915           -0.7299854

Notes:  (1) The A matrix conforms to the "SAI" spin Hamiltonian convention.
        (2) Tensor is right-handed.

 -----------------------------------------------------------
 Nucleus  24H : A:ISTP=    1 I=  0.5 P=533.5514 MHz/au**3
                Q:ISTP=    2 I=  1.0 Q=  0.0029 barn     
 -----------------------------------------------------------
 Solving for nuclear perturbation:
Forming RHS of the CP-SCF equations         ... 
Calc. nucleus orbit integrals (SHARK)       ... done

------------------------------------------------------------------------------
                           ORCA CP-SCF CALCULATION
------------------------------------------------------------------------------

Input orbitals are from        ... epr_info.gbw
Input Perturbation             ... epr_info.pin.tmp
Wavefunction output            ... epr_info.pout.tmp
Perturbation mode              ... Imaginary perturbation
Solver                         ... POPLE
Max. number of iterations      ... 64
Convergence tolerance          ... 1.000e-03
Integral handling              ... Direct
DFT GridXC                     ... 1
COSX GridX                     ... 1
COSX IntAccX                   ... 3.067
COSX Algorithm                 ... Auto
Number of perturbations        ... 3
Number of operators            ... 2
Orbital ranges used for CP-SCF:
 Operator 0:  Orbitals   0... 54  to  55...370
 Operator 1:  Orbitals   0... 53  to  54...370
Variables per perturbation     ... 34498
DFT calculation                         ... on
XC functional terms                     ... off
Hybrid DFT                              ... on
   Exchange mixing (SCF)                ...  0.200
   Exchange mixing (CP-SCF)             ...  0.200
   GGA exch. scaling(SCF)               ...  0.720
   GGA exch. scaling (CP-SCF)           ...  0.720
   GGA corr. scaling (SCF)              ...  0.810
   GGA corr. scaling (CP-SCF)           ...  0.810

CP-SCF GRID
-----------

General Integration Accuracy     IntAcc      ... 3.467
Radial Grid Type                 RadialGrid  ... OptM3 with GC (2021)
Angular Grid (max. ang.)         AngularGrid ... 1 (Lebedev-50)
Angular grid pruning method      GridPruning ... 4 (adaptive)
Weight generation scheme         WeightScheme... Becke
Basis function cutoff            BFCut       ... 1.0000e-10
Integration weight cutoff        WCut        ... 1.0000e-14
Angular grids for H and He will be reduced by one unit
Partially contracted basis set               ... off
Rotationally invariant grid construction     ... off

Total number of grid points                  ...    20292
Total number of batches                      ...      334
Average number of points per batch           ...       60
Average number of grid points per atom       ...      615

CP-SCF GRIDX
------------

General Integration Accuracy     IntAcc      ... 3.067
Radial Grid Type                 RadialGrid  ... OptM3 with GC (2021)
Angular Grid (max. ang.)         AngularGrid ... 1 (Lebedev-50)
Angular grid pruning method      GridPruning ... 4 (adaptive)
Weight generation scheme         WeightScheme... Becke
Basis function cutoff            BFCut       ... 1.0000e-10
Integration weight cutoff        WCut        ... 1.0000e-14
Angular grids for H and He will be reduced by one unit
Partially contracted basis set               ... on
Rotationally invariant grid construction     ... off

Total number of grid points                  ...     9608
Total number of batches                      ...      167
Average number of points per batch           ...       57
Average number of grid points per atom       ...      291

Memory available               ... 916.1 MB
Memory needed per perturbation ...   8.2 MB
Perturbations treated per batch... 3
Number of batches              ... 1
     CP-SCF ITERATION   0:   4.2917e-02 (   0.5 sec   0/  3 done)
     CP-SCF ITERATION   1:   7.6350e-04 (   0.5 sec   3/  3 done)
                    *** THE CP-SCF HAS CONVERGED ***

Forming final perturbed densities           ... done
Transforming perturbed density to AO basis  ... done

 Raw HFC matrix (all values in MHz): 
 -----------------------------------
                -0.3747               0.5405              -0.3680
                 0.5417               0.4268              -1.0594
                -0.3682              -1.0591               0.1406

 A(FC)           0.0640               0.0640               0.0640
 A(SD)          -0.6296              -0.8749               1.5045
 A(ORB+DIA)     -0.0006              -0.0001               0.0014    A(PC) =   0.0002
 A(ORB)         -0.0006              -0.0001               0.0012    A(PC) =   0.0002
 A(DIA)          0.0000              -0.0000               0.0002    A(PC) =   0.0001
             ----------           ----------           ----------
 A(Tot)         -0.5662              -0.8110               1.5699    A(iso)=    0.0642
 Orientation: 
  X           0.8965219           -0.3094358           -0.3170141
  Y          -0.0159081            0.6926593           -0.7210895
  Z           0.4427137            0.6515157            0.6160617

Notes:  (1) The A matrix conforms to the "SAI" spin Hamiltonian convention.
        (2) Tensor is right-handed.


--------------------------------------------------------------------------------
----------------------------------------------------------------------------
                           ORCA EULER ANGLE PROGRAM
----------------------------------------------------------------------------

Only g-tensor available        -->  using g-tensor as reference tensor

Reference tensor               ...  g

g-tensor ordering              ...  |g_min> --> |gx>
                                    |g_mid> --> |gy>
                                    |g_max> --> |gz>

A- and EFG-tensor ordering     ...  the axes |Ax>, |Qx>, |Ay>, etc. are assigned
                                    such that the Euler rotation is minimal. You
                                    can find the respective eigenvalues as Ax,
                                    EFGx, Ay, etc. in the tables below.
                                    The relation of |Ax>, |Ay>,  etc. to Amin, Amid, etc.
                                    (as printed in the ORCA EPR/NMR CALCULATION Output)
                                    is obtained in the detailed printout.

Euler rotation around          ...  z - y - z
   First rotation              -->  by alpha around z
   Second rotation             -->  by beta around y'
   Third rotation              -->  by gamma around z''
   Positive / Negative angle   -->  clockwise / counterclockwise rotation

Plot EFG-tensors                    (-)
Plot HFC-tensors                    (-)
Detailed Printout                   (-)

-------------------------------------------------------------------------
          Euler rotation of hyperfine tensor to g-tensor
-------------------------------------------------------------------------

-------------------------------------------------------------------
 Atom  |   Alpha    Beta    Gamma   |   Ax       Ay       Az 
       |          [degrees]         |           [MHz]         
-------------------------------------------------------------------
  0N      -99.9     25.3     99.7     -29.90   -94.37  -108.62
  3O       98.3     44.1    -96.5     218.67   -47.74   -57.63
  8N      136.5      4.1   -147.8      -0.11     0.28     1.97
  9H     -126.0     25.7    135.2      37.04    38.72    47.63
 10H       43.1     47.8    -22.3       6.26    16.43     5.61
 11H     -165.1     17.8   -153.9       2.10    -6.17    -4.20
 12H       29.9     46.7    -12.2      -5.80    -3.72     2.81
 13H     -111.5     38.4     90.4      -1.10    -1.48     1.43
 14H      -28.6     44.9     51.3       0.87     0.41     2.90
 15H      -78.6     16.9     56.3       0.48     0.60     1.79
 16H      -22.2     25.8      9.0      -0.60    -0.32     1.45
 17H     -162.9      2.8    153.3      -0.53    -0.41     1.39
 18H      -98.8     21.7     94.4      -2.43    -1.35     3.58
 19H       99.1     42.6    -97.7      -7.87     3.11    -3.26
 21N      102.5     36.0    -99.6     128.46   -15.20    -8.69
 22H      117.2     25.8   -113.8      -8.93    -0.79    -6.35
 23O      -94.5     37.8     88.9     260.49   -36.09   -40.56
 24H     -141.6     18.1    142.8      -0.81    -0.57     1.57
-------------------------------------------------------------------


Maximum memory used throughout the entire EPRNMR-calculation: 143.2 MB

Timings for individual modules:

Sum of individual times         ...      562.625 sec (=   9.377 min)
GTO integral calculation        ...        3.585 sec (=   0.060 min)   0.6 %
Spin-Orbit-Coupling Matrices    ...        4.811 sec (=   0.080 min)   0.9 %
SCF iterations                  ...       26.471 sec (=   0.441 min)   4.7 %
EPR/NMR calculation             ...      527.757 sec (=   8.796 min)  93.8 %
                             ****ORCA TERMINATED NORMALLY****
TOTAL RUN TIME: 0 days 0 hours 9 minutes 25 seconds 198 msec
