
                                 *****************
                                 * O   R   C   A *
                                 *****************

                                            #,                                       
                                            ###                                      
                                            ####                                     
                                            #####                                    
                                            ######                                   
                                           ########,                                 
                                     ,,################,,,,,                         
                               ,,#################################,,                 
                          ,,##########################################,,             
                       ,#########################################, ''#####,          
                    ,#############################################,,   '####,        
                  ,##################################################,,,,####,       
                ,###########''''           ''''###############################       
              ,#####''   ,,,,##########,,,,          '''####'''          '####       
            ,##' ,,,,###########################,,,                        '##       
           ' ,,###''''                  '''############,,,                           
         ,,##''                                '''############,,,,        ,,,,,,###''
      ,#''                                            '''#######################'''  
     '                                                          ''''####''''         
             ,#######,   #######,   ,#######,      ##                                
            ,#'     '#,  ##    ##  ,#'     '#,    #''#        ######   ,####,        
            ##       ##  ##   ,#'  ##            #'  '#       #        #'  '#        
            ##       ##  #######   ##           ,######,      #####,   #    #        
            '#,     ,#'  ##    ##  '#,     ,#' ,#      #,         ##   #,  ,#        
             '#######'   ##     ##  '#######'  #'      '#     #####' # '####'        



                  #######################################################
                  #                        -***-                        #
                  #          Department of theory and spectroscopy      #
                  #    Directorship and core code : Frank Neese         #
                  #        Max Planck Institute fuer Kohlenforschung    #
                  #                Kaiser Wilhelm Platz 1               #
                  #                 D-45470 Muelheim/Ruhr               #
                  #                      Germany                        #
                  #                                                     #
                  #                  All rights reserved                #
                  #                        -***-                        #
                  #######################################################


                         Program Version 5.0.4 -  RELEASE  -


 With contributions from (in alphabetic order):
   Daniel Aravena         : Magnetic Suceptibility
   Michael Atanasov       : Ab Initio Ligand Field Theory (pilot matlab implementation)
   Alexander A. Auer      : GIAO ZORA, VPT2 properties, NMR spectrum
   Ute Becker             : Parallelization
   Giovanni Bistoni       : ED, misc. LED, open-shell LED, HFLD
   Martin Brehm           : Molecular dynamics
   Dmytro Bykov           : SCF Hessian
   Vijay G. Chilkuri      : MRCI spin determinant printing, contributions to CSF-ICE
   Dipayan Datta          : RHF DLPNO-CCSD density
   Achintya Kumar Dutta   : EOM-CC, STEOM-CC
   Dmitry Ganyushin       : Spin-Orbit,Spin-Spin,Magnetic field MRCI
   Miquel Garcia          : C-PCM and meta-GGA Hessian, CC/C-PCM, Gaussian charge scheme
   Yang Guo               : DLPNO-NEVPT2, F12-NEVPT2, CIM, IAO-localization
   Andreas Hansen         : Spin unrestricted coupled pair/coupled cluster methods
   Benjamin Helmich-Paris : MC-RPA, TRAH-SCF, COSX integrals
   Lee Huntington         : MR-EOM, pCC
   Robert Izsak           : Overlap fitted RIJCOSX, COSX-SCS-MP3, EOM
   Marcus Kettner         : VPT2
   Christian Kollmar      : KDIIS, OOCD, Brueckner-CCSD(T), CCSD density, CASPT2, CASPT2-K
   Simone Kossmann        : Meta GGA functionals, TD-DFT gradient, OOMP2, MP2 Hessian
   Martin Krupicka        : Initial AUTO-CI
   Lucas Lang             : DCDCAS
   Marvin Lechner         : AUTO-CI (C++ implementation), FIC-MRCC
   Dagmar Lenk            : GEPOL surface, SMD
   Dimitrios Liakos       : Extrapolation schemes; Compound Job, initial MDCI parallelization
   Dimitrios Manganas     : Further ROCIS development; embedding schemes
   Dimitrios Pantazis     : SARC Basis sets
   Anastasios Papadopoulos: AUTO-CI, single reference methods and gradients
   Taras Petrenko         : DFT Hessian,TD-DFT gradient, ASA, ECA, R-Raman, ABS, FL, XAS/XES, NRVS
   Peter Pinski           : DLPNO-MP2, DLPNO-MP2 Gradient
   Christoph Reimann      : Effective Core Potentials
   Marius Retegan         : Local ZFS, SOC
   Christoph Riplinger    : Optimizer, TS searches, QM/MM, DLPNO-CCSD(T), (RO)-DLPNO pert. Triples
   Tobias Risthaus        : Range-separated hybrids, TD-DFT gradient, RPA, STAB
   Michael Roemelt        : Original ROCIS implementation
   Masaaki Saitow         : Open-shell DLPNO-CCSD energy and density
   Barbara Sandhoefer     : DKH picture change effects
   Avijit Sen             : IP-ROCIS
   Kantharuban Sivalingam : CASSCF convergence, NEVPT2, FIC-MRCI
   Bernardo de Souza      : ESD, SOC TD-DFT
   Georgi Stoychev        : AutoAux, RI-MP2 NMR, DLPNO-MP2 response
   Willem Van den Heuvel  : Paramagnetic NMR
   Boris Wezisla          : Elementary symmetry handling
   Frank Wennmohs         : Technical directorship


 We gratefully acknowledge several colleagues who have allowed us to
 interface, adapt or use parts of their codes:
   Stefan Grimme, W. Hujo, H. Kruse, P. Pracht,  : VdW corrections, initial TS optimization,
                  C. Bannwarth, S. Ehlert          DFT functionals, gCP, sTDA/sTD-DF
   Ed Valeev, F. Pavosevic, A. Kumar             : LibInt (2-el integral package), F12 methods
   Garnet Chan, S. Sharma, J. Yang, R. Olivares  : DMRG
   Ulf Ekstrom                                   : XCFun DFT Library
   Mihaly Kallay                                 : mrcc  (arbitrary order and MRCC methods)
   Jiri Pittner, Ondrej Demel                    : Mk-CCSD
   Frank Weinhold                                : gennbo (NPA and NBO analysis)
   Christopher J. Cramer and Donald G. Truhlar   : smd solvation model
   Lars Goerigk                                  : TD-DFT with DH, B97 family of functionals
   V. Asgeirsson, H. Jonsson                     : NEB implementation
   FAccTs GmbH                                   : IRC, NEB, NEB-TS, DLPNO-Multilevel, CI-OPT
                                                   MM, QMMM, 2- and 3-layer-ONIOM, Crystal-QMMM,
                                                   LR-CPCM, SF, NACMEs, symmetry and pop. for TD-DFT,
                                                   nearIR, NL-DFT gradient (VV10), updates on ESD,
                                                   ML-optimized integration grids
   S Lehtola, MJT Oliveira, MAL Marques          : LibXC Library
   Liviu Ungur et al                             : ANISO software


 Your calculation uses the libint2 library for the computation of 2-el integrals
 For citations please refer to: http://libint.valeyev.net

 Your ORCA version has been built with support for libXC version: 5.1.0
 For citations please refer to: https://tddft.org/programs/libxc/

 This ORCA versions uses:
   CBLAS   interface :  Fast vector & matrix operations
   LAPACKE interface :  Fast linear algebra routines
   SCALAPACK package :  Parallel linear algebra routines
   Shared memory     :  Shared parallel matrices
   BLAS/LAPACK       :  OpenBLAS 0.3.15  USE64BITINT DYNAMIC_ARCH NO_AFFINITY Zen SINGLE_THREADED
        Core in use  :  Zen
   Copyright (c) 2011-2014, The OpenBLAS Project




***************************************
The coordinates will be read from file: opt.xyz
***************************************


XCFun DFT library Copyright 2009-2010 Ulf Ekstrom and contributors.
See http://admol.org/xcfun for more information.
This is free software; see the source code for copying conditions.
There is ABSOLUTELY NO WARRANTY; not even for MERCHANTABILITY or FITNESS FOR A PARTICULAR PURPOSE.
For details see the documentation.
Scientific users of this library should cite U. Ekstrom, L. Visscher, R. Bast, A. J. Thorvaldsen and K. Ruud;
J.Chem.Theor.Comp. 2010, DOI: 10.1021/ct100117s
XCFun Version 0.99 

================================================================================

----- Orbital basis set information -----
Your calculation utilizes the basis: def2-TZVP
   F. Weigend and R. Ahlrichs, Phys. Chem. Chem. Phys. 7, 3297 (2005).

----- AuxJ basis set information -----
Your calculation utilizes the auxiliary basis: def2/J
   F. Weigend, Phys. Chem. Chem. Phys. 8, 1057 (2006).

================================================================================
                                        WARNINGS
                       Please study these warnings very carefully!
================================================================================


WARNING: your system is open-shell and RHF/RKS was chosen
  ===> : WILL SWITCH to UHF/UKS


WARNING: Geometry Optimization
  ===> : Switching off AutoStart
         For restart on a previous wavefunction, please use MOREAD

WARNING: Minnesota functionals are quite sensitive to the integration grid.
         see SE Wheeler, KN Houk, JCTC 2010, 6, 395,
             N Mardirossian, M Head-Gordon, JCTC 2016, 12, 4303.
         DEFGRID3 seems to be a minimum grid for reliable results with these functionals!
  ===> : Please increase the integration grid!


INFO   : the flag for use of the SHARK integral package has been found!

================================================================================
                                       INPUT FILE
================================================================================
NAME = freq.inp
|  1> ! M062X def2-TZVP OPT FREQ
|  2> %pal nprocs 16 end
|  3> *XYZFile 1 2 opt.xyz
|  4> 
|  5>                          ****END OF INPUT****
================================================================================

                       *****************************
                       * Geometry Optimization Run *
                       *****************************

Geometry optimization settings:
Update method            Update   .... BFGS
Choice of coordinates    CoordSys .... Z-matrix Internals
Initial Hessian          InHess   .... Almoef's Model

Convergence Tolerances:
Energy Change            TolE     ....  5.0000e-06 Eh
Max. Gradient            TolMAXG  ....  3.0000e-04 Eh/bohr
RMS Gradient             TolRMSG  ....  1.0000e-04 Eh/bohr
Max. Displacement        TolMAXD  ....  4.0000e-03 bohr
RMS Displacement         TolRMSD  ....  2.0000e-03 bohr
Strict Convergence                ....  False
------------------------------------------------------------------------------
                        ORCA OPTIMIZATION COORDINATE SETUP
------------------------------------------------------------------------------

The optimization will be done in new redundant internal coordinates
Making redundant internal coordinates   ...  (new redundants) done
Evaluating the initial hessian          ...  (Almloef) done
Evaluating the coordinates              ...  done
Calculating the B-matrix                .... done
Calculating the G-matrix                .... done
Diagonalizing the G-matrix              .... done
Small eigenvalue found = 3.941e-03
Small eigenvalue found = 6.757e-03
Small eigenvalue found = 1.046e-02
Small eigenvalue found = 1.565e-02
Small eigenvalue found = 1.681e-02
The first mode is                       ....   66
The number of degrees of freedom        ....   93

    -----------------------------------------------------------------
                    Redundant Internal Coordinates


    -----------------------------------------------------------------
         Definition                    Initial Value    Approx d2E/dq
    -----------------------------------------------------------------
      1. B(C   1,N   0)                  1.3863         0.567201   
      2. B(C   2,C   1)                  1.4900         0.432767   
      3. B(O   3,C   2)                  1.2427         0.961255   
      4. B(C   4,C   1)                  1.5014         0.414959   
      5. B(C   5,C   4)                  1.5591         0.335683   
      6. B(C   6,C   5)                  1.5496         0.347583   
      7. B(C   7,C   6)                  1.5349         0.366857   
      8. B(N   8,C   7)                  1.5162         0.351966   
      9. B(H   9,C   4)                  1.0943         0.354405   
     10. B(H  10,C   4)                  1.0950         0.353495   
     11. B(H  11,C   5)                  1.0938         0.355053   
     12. B(H  12,C   5)                  1.0948         0.353770   
     13. B(H  13,C   6)                  1.0983         0.349248   
     14. B(H  14,C   6)                  1.0951         0.353357   
     15. B(H  15,C   7)                  1.0927         0.356607   
     16. B(H  16,C   7)                  1.0927         0.356591   
     17. B(H  17,N   8)                  1.0226         0.413074   
     18. B(H  18,N   8)                  1.0708         0.346145   
     19. B(H  19,N   0)                  1.0268         0.406775   
     20. B(C  20,N   0)                  1.3607         0.623211   
     21. B(N  21,C   2)                  1.3620         0.620287   
     22. B(H  22,N  21)                  1.0061         0.438920   
     23. B(O  23,C  20)                  1.2542         0.921676   
     24. B(H  24,N   8)                  1.0221         0.413853   
     25. B(C  25,N  21)                  1.4647         0.425334   
     26. B(H  26,C  25)                  1.0933         0.355824   
     27. B(H  27,C  25)                  1.0908         0.359106   
     28. B(H  28,C  25)                  1.0930         0.356137   
     29. B(C  29,C  20)                  1.5128         0.397954   
     30. B(H  30,C  29)                  1.0945         0.354146   
     31. B(H  31,C  29)                  1.0914         0.358279   
     32. B(H  32,C  29)                  1.0938         0.355046   
     33. A(C   1,N   0,C  20)          132.5160         0.422031   
     34. A(C   1,N   0,H  19)          108.9155         0.349619   
     35. A(H  19,N   0,C  20)          118.5686         0.355234   
     36. A(N   0,C   1,C   2)          109.5915         0.398190   
     37. A(N   0,C   1,C   4)          122.7725         0.395263   
     38. A(C   2,C   1,C   4)          127.6323         0.379464   
     39. A(O   3,C   2,N  21)          122.5899         0.463866   
     40. A(C   1,C   2,O   3)          118.8381         0.437401   
     41. A(C   1,C   2,N  21)          118.5705         0.404515   
     42. A(C   1,C   4,H   9)          108.2406         0.329114   
     43. A(H   9,C   4,H  10)          105.4261         0.289272   
     44. A(C   1,C   4,H  10)          109.5404         0.328974   
     45. A(C   1,C   4,C   5)          113.7949         0.363234   
     46. A(C   5,C   4,H  10)          108.7134         0.317730   
     47. A(C   5,C   4,H   9)          110.7898         0.317864   
     48. A(C   6,C   5,H  11)          109.0529         0.319771   
     49. A(C   4,C   5,H  11)          108.1633         0.317958   
     50. A(C   4,C   5,C   6)          114.0301         0.352455   
     51. A(H  11,C   5,H  12)          105.9962         0.289390   
     52. A(C   6,C   5,H  12)          109.6352         0.319582   
     53. A(C   4,C   5,H  12)          109.6415         0.317771   
     54. A(C   5,C   6,C   7)          115.2637         0.357804   
     55. A(C   5,C   6,H  14)          109.5343         0.319521   
     56. A(H  13,C   6,H  14)          105.6500         0.288591   
     57. A(C   7,C   6,H  14)          105.0814         0.322354   
     58. A(C   7,C   6,H  13)          109.9152         0.321737   
     59. A(C   5,C   6,H  13)          110.8138         0.318911   
     60. A(H  15,C   7,H  16)          108.5870         0.289949   
     61. A(N   8,C   7,H  16)          105.8097         0.318746   
     62. A(C   6,C   7,H  16)          110.9593         0.322835   
     63. A(C   6,C   7,H  15)          111.0903         0.322838   
     64. A(N   8,C   7,H  15)          107.1906         0.318749   
     65. A(C   6,C   7,N   8)          112.9439         0.356349   
     66. A(H  17,N   8,H  18)          107.1484         0.290572   
     67. A(C   7,N   8,H  18)          111.6910         0.314546   
     68. A(C   7,N   8,H  17)          110.7115         0.323753   
     69. A(H  18,N   8,H  24)          108.7973         0.290658   
     70. A(H  17,N   8,H  24)          107.3099         0.298890   
     71. A(C   7,N   8,H  24)          111.0029         0.323853   
     72. A(O  23,C  20,C  29)          120.1648         0.427612   
     73. A(N   0,C  20,C  29)          116.2313         0.398912   
     74. A(N   0,C  20,O  23)          123.6038         0.460711   
     75. A(H  22,N  21,C  25)          118.7662         0.337421   
     76. A(C   2,N  21,C  25)          121.0222         0.400694   
     77. A(C   2,N  21,H  22)          120.1457         0.359568   
     78. A(H  27,C  25,H  28)          109.3847         0.290209   
     79. A(H  26,C  25,H  28)          108.3325         0.289791   
     80. A(N  21,C  25,H  28)          110.4644         0.328737   
     81. A(H  26,C  25,H  27)          109.4205         0.290169   
     82. A(N  21,C  25,H  27)          108.5800         0.329188   
     83. A(N  21,C  25,H  26)          110.6422         0.328689   
     84. A(H  31,C  29,H  32)          109.3786         0.289964   
     85. A(H  30,C  29,H  32)          107.3627         0.289437   
     86. A(C  20,C  29,H  32)          108.8376         0.326948   
     87. A(H  30,C  29,H  31)          109.1116         0.289849   
     88. A(C  20,C  29,H  31)          113.3172         0.327436   
     89. A(C  20,C  29,H  30)          108.6606         0.326811   
     90. D(C   2,C   1,N   0,H  19)     -1.1157         0.025732   
     91. D(C   2,C   1,N   0,C  20)    178.8742         0.025732   
     92. D(C   4,C   1,N   0,H  19)    179.5328         0.025732   
     93. D(C   4,C   1,N   0,C  20)     -0.4773         0.025732   
     94. D(O   3,C   2,C   1,C   4)    179.3611         0.012791   
     95. D(N  21,C   2,C   1,N   0)   -179.5281         0.012791   
     96. D(N  21,C   2,C   1,C   4)     -0.2166         0.012791   
     97. D(O   3,C   2,C   1,N   0)      0.0496         0.012791   
     98. D(H  10,C   4,C   1,C   2)     22.4055         0.012742   
     99. D(H  10,C   4,C   1,N   0)   -158.3660         0.012742   
    100. D(C   5,C   4,C   1,C   2)    -99.5032         0.012742   
    101. D(H   9,C   4,C   1,C   2)    136.8714         0.012742   
    102. D(H   9,C   4,C   1,N   0)    -43.9001         0.012742   
    103. D(C   5,C   4,C   1,N   0)     79.7253         0.012742   
    104. D(C   6,C   5,C   4,C   1)   -164.5456         0.009145   
    105. D(H  12,C   5,C   4,H   9)     81.0360         0.009145   
    106. D(H  12,C   5,C   4,C   1)    -41.1941         0.009145   
    107. D(H  11,C   5,C   4,H  10)    -48.4066         0.009145   
    108. D(H  11,C   5,C   4,H   9)   -163.8112         0.009145   
    109. D(H  11,C   5,C   4,C   1)     73.9586         0.009145   
    110. D(C   6,C   5,C   4,H  10)     73.0892         0.009145   
    111. D(H  12,C   5,C   4,H  10)   -163.5594         0.009145   
    112. D(C   6,C   5,C   4,H   9)    -42.3154         0.009145   
    113. D(H  14,C   6,C   5,C   4)   -146.6802         0.009745   
    114. D(H  13,C   6,C   5,H  12)   -153.8617         0.009745   
    115. D(H  13,C   6,C   5,H  11)     90.4954         0.009745   
    116. D(H  13,C   6,C   5,C   4)    -30.5068         0.009745   
    117. D(C   7,C   6,C   5,H  12)    -28.2459         0.009745   
    118. D(C   7,C   6,C   5,H  11)   -143.8888         0.009745   
    119. D(H  14,C   6,C   5,H  11)    -25.6780         0.009745   
    120. D(C   7,C   6,C   5,C   4)     95.1091         0.009745   
    121. D(H  14,C   6,C   5,H  12)     89.9649         0.009745   
    122. D(H  16,C   7,C   6,H  14)    -64.8613         0.010770   
    123. D(H  16,C   7,C   6,H  13)   -178.1137         0.010770   
    124. D(H  16,C   7,C   6,C   5)     55.8088         0.010770   
    125. D(H  15,C   7,C   6,H  14)     56.0403         0.010770   
    126. D(H  15,C   7,C   6,H  13)    -57.2121         0.010770   
    127. D(H  15,C   7,C   6,C   5)    176.7104         0.010770   
    128. D(N   8,C   7,C   6,H  14)    176.5210         0.010770   
    129. D(N   8,C   7,C   6,H  13)     63.2686         0.010770   
    130. D(N   8,C   7,C   6,C   5)    -62.8089         0.010770   
    131. D(H  24,N   8,C   7,H  16)    178.4336         0.011413   
    132. D(H  24,N   8,C   7,H  15)     62.6886         0.011413   
    133. D(H  24,N   8,C   7,C   6)    -59.9942         0.011413   
    134. D(H  18,N   8,C   7,H  16)    -59.9542         0.011413   
    135. D(H  18,N   8,C   7,H  15)   -175.6992         0.011413   
    136. D(H  18,N   8,C   7,C   6)     61.6179         0.011413   
    137. D(H  17,N   8,C   7,H  16)     59.3624         0.011413   
    138. D(H  17,N   8,C   7,H  15)    -56.3826         0.011413   
    139. D(H  17,N   8,C   7,C   6)   -179.0654         0.011413   
    140. D(C  29,C  20,N   0,H  19)     -1.6131         0.031476   
    141. D(C  29,C  20,N   0,C   1)    178.3977         0.031476   
    142. D(O  23,C  20,N   0,H  19)    178.4865         0.031476   
    143. D(O  23,C  20,N   0,C   1)     -1.5027         0.031476   
    144. D(C  25,N  21,C   2,O   3)      0.9739         0.031158   
    145. D(C  25,N  21,C   2,C   1)   -179.4652         0.031158   
    146. D(H  22,N  21,C   2,O   3)    177.9844         0.031158   
    147. D(H  22,N  21,C   2,C   1)     -2.4547         0.031158   
    148. D(H  28,C  25,N  21,C   2)    -60.4917         0.015424   
    149. D(H  27,C  25,N  21,H  22)      2.5111         0.015424   
    150. D(H  27,C  25,N  21,C   2)    179.5620         0.015424   
    151. D(H  26,C  25,N  21,H  22)   -117.5868         0.015424   
    152. D(H  26,C  25,N  21,C   2)     59.4642         0.015424   
    153. D(H  28,C  25,N  21,H  22)    122.4574         0.015424   
    154. D(H  32,C  29,C  20,O  23)    -55.4982         0.011759   
    155. D(H  32,C  29,C  20,N   0)    124.5977         0.011759   
    156. D(H  31,C  29,C  20,O  23)   -177.4236         0.011759   
    157. D(H  31,C  29,C  20,N   0)      2.6723         0.011759   
    158. D(H  30,C  29,C  20,O  23)     61.1184         0.011759   
    159. D(H  30,C  29,C  20,N   0)   -118.7857         0.011759   
    -----------------------------------------------------------------

Number of atoms                         .... 33
Number of degrees of freedom            .... 159

         *************************************************************
         *                GEOMETRY OPTIMIZATION CYCLE   1            *
         *************************************************************
---------------------------------
CARTESIAN COORDINATES (ANGSTROEM)
---------------------------------
  N     -7.687084    1.307546   -0.031709
  C     -6.415973    1.462620    0.499447
  C     -6.148160    0.373629    1.480449
  O     -7.029898   -0.477448    1.686798
  C     -5.505057    2.591217    0.111235
  C     -5.830587    3.937207    0.827596
  C     -5.166581    5.176028    0.175084
  C     -6.044092    5.937458   -0.828031
  N     -6.425828    5.100862   -2.033562
  H     -5.549734    2.709038   -0.975825
  H     -4.468060    2.317474    0.332172
  H     -5.497937    3.859581    1.866735
  H     -6.915356    4.079679    0.867908
  H     -4.211128    4.905040   -0.293959
  H     -4.917940    5.908935    0.949919
  H     -5.532324    6.827618   -1.201661
  H     -6.986567    6.244715   -0.368409
  H     -6.995911    5.644821   -2.685411
  H     -6.999933    4.241598   -1.753218
  H     -8.116830    0.467462    0.373191
  C     -8.401689    2.033731   -0.933640
  N     -4.947231    0.356317    2.122661
  H     -4.247960    1.046248    1.905192
  O     -7.980431    3.088699   -1.465178
  H     -5.595194    4.790442   -2.541925
  C     -4.622931   -0.695755    3.088714
  H     -4.663570   -1.680073    2.614724
  H     -3.616819   -0.518525    3.470906
  H     -5.333643   -0.684413    3.919037
  C     -9.772719    1.500064   -1.285796
  H     -9.796681    1.275620   -2.356808
  H    -10.043817    0.602926   -0.726547
  H    -10.514634    2.281947   -1.099455

----------------------------
CARTESIAN COORDINATES (A.U.)
----------------------------
  NO LB      ZA    FRAG     MASS         X           Y           Z
   0 N     7.0000    0    14.007  -14.526484    2.470903   -0.059922
   1 C     6.0000    0    12.011  -12.124431    2.763952    0.943819
   2 C     6.0000    0    12.011  -11.618339    0.706056    2.797643
   3 O     8.0000    0    15.999  -13.284582   -0.902245    3.187586
   4 C     6.0000    0    12.011  -10.403051    4.896690    0.210205
   5 C     6.0000    0    12.011  -11.018213    7.440244    1.563930
   6 C     6.0000    0    12.011   -9.763424    9.781276    0.330861
   7 C     6.0000    0    12.011  -11.421680   11.220170   -1.564751
   8 N     7.0000    0    14.007  -12.143054    9.639232   -3.842875
   9 H     1.0000    0     1.008  -10.487477    5.119340   -1.844042
  10 H     1.0000    0     1.008   -8.443410    4.379391    0.627714
  11 H     1.0000    0     1.008  -10.389594    7.293552    3.527617
  12 H     1.0000    0     1.008  -13.068130    7.709475    1.640109
  13 H     1.0000    0     1.008   -7.957879    9.269182   -0.555502
  14 H     1.0000    0     1.008   -9.293560   11.166269    1.795087
  15 H     1.0000    0     1.008  -10.454578   12.902327   -2.270811
  16 H     1.0000    0     1.008  -13.202699   11.800802   -0.696193
  17 H     1.0000    0     1.008  -13.220355   10.667165   -5.074691
  18 H     1.0000    0     1.008  -13.227956    8.015458   -3.313101
  19 H     1.0000    0     1.008  -15.338585    0.883375    0.705229
  20 C     6.0000    0    12.011  -15.876891    3.843194   -1.764323
  21 N     7.0000    0    14.007   -9.348911    0.673341    4.011247
  22 H     1.0000    0     1.008   -8.027481    1.977123    3.600292
  23 O     8.0000    0    15.999  -15.080830    5.836796   -2.768786
  24 H     1.0000    0     1.008  -10.573384    9.052624   -4.803542
  25 C     6.0000    0    12.011   -8.736073   -1.314787    5.836824
  26 H     1.0000    0     1.008   -8.812870   -3.174877    4.941113
  27 H     1.0000    0     1.008   -6.834798   -0.979870    6.559061
  28 H     1.0000    0     1.008  -10.079125   -1.293354    7.405906
  29 C     6.0000    0    12.011  -18.467762    2.834710   -2.429803
  30 H     1.0000    0     1.008  -18.513044    2.410572   -4.453721
  31 H     1.0000    0     1.008  -18.980063    1.139365   -1.372975
  32 H     1.0000    0     1.008  -19.869778    4.312255   -2.077668

--------------------------------
INTERNAL COORDINATES (ANGSTROEM)
--------------------------------
 N      0   0   0     0.000000000000     0.00000000     0.00000000
 C      1   0   0     1.386326214254     0.00000000     0.00000000
 C      2   1   0     1.489963202689   109.59145927     0.00000000
 O      3   2   1     1.242727845891   118.83810769     0.04959132
 C      2   1   3     1.501400847112   122.77254567   180.64848604
 C      5   2   1     1.559113059129   113.79492093    79.72533200
 C      6   5   2     1.549630009900   114.03008606   195.45437956
 C      7   6   5     1.534939847416   115.26374086    95.10905542
 N      8   7   6     1.516219145181   112.94393226   297.19106710
 H      5   2   1     1.094339101354   108.24063095   316.09994234
 H      5   2   1     1.095039373025   109.54037158   201.63401484
 H      6   5   2     1.093842189241   108.16333997    73.95861830
 H      6   5   2     1.094827796177   109.64151516   318.80585193
 H      7   6   5     1.098329505612   110.81378541   329.49320718
 H      7   6   5     1.095145383075   109.53426421   213.31981677
 H      8   7   6     1.092652979550   111.09029894   176.71038658
 H      8   7   6     1.092665430786   110.95930654    55.80879564
 H      9   8   7     1.022640174850   110.71151232   180.93455686
 H      9   8   7     1.070758513151   111.69104091    61.61791408
 H      1   2   3     1.026823430375   108.91547593   358.88427757
 C      1   2   3     1.360691796924   132.51597162   178.87424947
 N      3   2   1     1.361971801408   118.57053314   180.47192958
 H     22   3   2     1.006120105859   120.14574252   357.54530646
 O     21   1   2     1.254173332947   123.60379372   358.49726265
 H      9   8   7     1.022127781957   111.00290271   300.00577288
 C     22   3   2     1.464679178916   121.02216047   180.53480270
 H     26  22   3     1.093251693018   110.64215767    59.46416528
 H     26  22   3     1.090752538321   108.57996042   179.56198375
 H     26  22   3     1.093012256953   110.46440316   299.50833853
 C     21   1   2     1.512791447303   116.23133378   178.39772047
 H     30  21   1     1.094538342224   108.66059385   241.21432819
 H     30  21   1     1.091379689073   113.31719977     2.67231849
 H     30  21   1     1.093847192188   108.83759158   124.59771042

---------------------------
INTERNAL COORDINATES (A.U.)
---------------------------
 N      0   0   0     0.000000000000     0.00000000     0.00000000
 C      1   0   0     2.619776877215     0.00000000     0.00000000
 C      2   1   0     2.815622402703   109.59145927     0.00000000
 O      3   2   1     2.348415287732   118.83810769     0.04959132
 C      2   1   3     2.837236418279   122.77254567   180.64848604
 C      5   2   1     2.946296693575   113.79492093    79.72533200
 C      6   5   2     2.928376327616   114.03008606   195.45437956
 C      7   6   5     2.900615943660   115.26374086    95.10905542
 N      8   7   6     2.865238943399   112.94393226   297.19106710
 H      5   2   1     2.068001199200   108.24063095   316.09994234
 H      5   2   1     2.069324520878   109.54037158   201.63401484
 H      6   5   2     2.067062171394   108.16333997    73.95861830
 H      6   5   2     2.068924698580   109.64151516   318.80585193
 H      7   6   5     2.075541970412   110.81378541   329.49320718
 H      7   6   5     2.069524850840   109.53426421   213.31981677
 H      8   7   6     2.064814890762   111.09029894   176.71038658
 H      8   7   6     2.064838420188   110.95930654    55.80879564
 H      9   8   7     1.932509864012   110.71151232   180.93455686
 H      9   8   7     2.023440345419   111.69104091    61.61791408
 H      1   2   3     1.940415071302   108.91547593   358.88427757
 C      1   2   3     2.571334848860   132.51597162   178.87424947
 N      3   2   1     2.573753706785   118.57053314   180.47192958
 H     22   3   2     1.901291457906   120.14574252   357.54530646
 O     21   1   2     2.370044123737   123.60379372   358.49726265
 H      9   8   7     1.931541581771   111.00290271   300.00577288
 C     22   3   2     2.767842522208   121.02216047   180.53480270
 H     26  22   3     2.065946295249   110.64215767    59.46416528
 H     26  22   3     2.061223577305   108.57996042   179.56198375
 H     26  22   3     2.065493826660   110.46440316   299.50833853
 C     21   1   2     2.858761533140   116.23133378   178.39772047
 H     30  21   1     2.068377709880   108.66059385   241.21432819
 H     30  21   1     2.062408720473   113.31719977     2.67231849
 H     30  21   1     2.067071625594   108.83759158   124.59771042

---------------------
BASIS SET INFORMATION
---------------------
There are 4 groups of distinct atoms

 Group   1 Type N   : 11s6p2d1f contracted to 5s3p2d1f pattern {62111/411/11/1}
 Group   2 Type C   : 11s6p2d1f contracted to 5s3p2d1f pattern {62111/411/11/1}
 Group   3 Type O   : 11s6p2d1f contracted to 5s3p2d1f pattern {62111/411/11/1}
 Group   4 Type H   : 5s1p contracted to 3s1p pattern {311/1}

Atom   0N    basis set group =>   1
Atom   1C    basis set group =>   2
Atom   2C    basis set group =>   2
Atom   3O    basis set group =>   3
Atom   4C    basis set group =>   2
Atom   5C    basis set group =>   2
Atom   6C    basis set group =>   2
Atom   7C    basis set group =>   2
Atom   8N    basis set group =>   1
Atom   9H    basis set group =>   4
Atom  10H    basis set group =>   4
Atom  11H    basis set group =>   4
Atom  12H    basis set group =>   4
Atom  13H    basis set group =>   4
Atom  14H    basis set group =>   4
Atom  15H    basis set group =>   4
Atom  16H    basis set group =>   4
Atom  17H    basis set group =>   4
Atom  18H    basis set group =>   4
Atom  19H    basis set group =>   4
Atom  20C    basis set group =>   2
Atom  21N    basis set group =>   1
Atom  22H    basis set group =>   4
Atom  23O    basis set group =>   3
Atom  24H    basis set group =>   4
Atom  25C    basis set group =>   2
Atom  26H    basis set group =>   4
Atom  27H    basis set group =>   4
Atom  28H    basis set group =>   4
Atom  29C    basis set group =>   2
Atom  30H    basis set group =>   4
Atom  31H    basis set group =>   4
Atom  32H    basis set group =>   4
---------------------------------
AUXILIARY/J BASIS SET INFORMATION
---------------------------------
There are 4 groups of distinct atoms

 Group   1 Type N   : 12s5p4d2f1g contracted to 6s4p3d1f1g pattern {711111/2111/211/2/1}
 Group   2 Type C   : 12s5p4d2f1g contracted to 6s4p3d1f1g pattern {711111/2111/211/2/1}
 Group   3 Type O   : 12s5p4d2f1g contracted to 6s4p3d1f1g pattern {711111/2111/211/2/1}
 Group   4 Type H   : 5s2p1d contracted to 3s1p1d pattern {311/2/1}

Atom   0N    basis set group =>   1
Atom   1C    basis set group =>   2
Atom   2C    basis set group =>   2
Atom   3O    basis set group =>   3
Atom   4C    basis set group =>   2
Atom   5C    basis set group =>   2
Atom   6C    basis set group =>   2
Atom   7C    basis set group =>   2
Atom   8N    basis set group =>   1
Atom   9H    basis set group =>   4
Atom  10H    basis set group =>   4
Atom  11H    basis set group =>   4
Atom  12H    basis set group =>   4
Atom  13H    basis set group =>   4
Atom  14H    basis set group =>   4
Atom  15H    basis set group =>   4
Atom  16H    basis set group =>   4
Atom  17H    basis set group =>   4
Atom  18H    basis set group =>   4
Atom  19H    basis set group =>   4
Atom  20C    basis set group =>   2
Atom  21N    basis set group =>   1
Atom  22H    basis set group =>   4
Atom  23O    basis set group =>   3
Atom  24H    basis set group =>   4
Atom  25C    basis set group =>   2
Atom  26H    basis set group =>   4
Atom  27H    basis set group =>   4
Atom  28H    basis set group =>   4
Atom  29C    basis set group =>   2
Atom  30H    basis set group =>   4
Atom  31H    basis set group =>   4
Atom  32H    basis set group =>   4


           ************************************************************
           *        Program running with 16 parallel MPI-processes    *
           *              working on a common directory               *
           ************************************************************
------------------------------------------------------------------------------
                           ORCA GTO INTEGRAL CALCULATION
                           -- RI-GTO INTEGRALS CHOSEN --
------------------------------------------------------------------------------
------------------------------------------------------------------------------
                   ___                                                        
                  /   \      - P O W E R E D   B Y -                         
                 /     \                                                     
                 |  |  |   _    _      __       _____    __    __             
                 |  |  |  | |  | |    /  \     |  _  \  |  |  /  |          
                  \  \/   | |  | |   /    \    | | | |  |  | /  /          
                 / \  \   | |__| |  /  /\  \   | |_| |  |  |/  /          
                |  |  |   |  __  | /  /__\  \  |    /   |      \           
                |  |  |   | |  | | |   __   |  |    \   |  |\   \          
                \     /   | |  | | |  |  |  |  | |\  \  |  | \   \       
                 \___/    |_|  |_| |__|  |__|  |_| \__\ |__|  \__/        
                                                                              
                      - O R C A' S   B I G   F R I E N D -                    
                                      &                                       
                       - I N T E G R A L  F E E D E R -                       
                                                                              
 v1 FN, 2020, v2 2021                                                         
------------------------------------------------------------------------------


Reading SHARK input file freq.SHARKINP.tmp ... ok
----------------------
SHARK INTEGRAL PACKAGE
----------------------

Number of atoms                             ...     33
Number of basis functions                   ...    548
Number of shells                            ...    230
Maximum angular momentum                    ...      3
Integral batch strategy                     ... SHARK/LIBINT Hybrid
RI-J (if used) integral strategy            ... SPLIT-RIJ (Revised 2003 algorithm where possible)
Printlevel                                  ...      1
Contraction scheme used                     ... SEGMENTED contraction
Coulomb Range Separation                    ... NOT USED
Exchange Range Separation                   ... NOT USED
Finite Nucleus Model                        ... NOT USED
Auxiliary Coulomb fitting basis             ... AVAILABLE
   # of basis functions in Aux-J            ...    895
   # of shells in Aux-J                     ...    305
   Maximum angular momentum in Aux-J        ...      4
Auxiliary J/K fitting basis                 ... NOT available
Auxiliary Correlation fitting basis         ... NOT available
Auxiliary 'external' fitting basis          ... NOT available
Integral threshold                          ...     2.500000e-11
Primitive cut-off                           ...     2.500000e-12
Primitive pair pre-selection threshold      ...     2.500000e-12

Calculating pre-screening integrals         ... done (  0.0 sec) Dimension = 230
Organizing shell pair data                  ... done (  0.1 sec)
Shell pair information
Total number of shell pairs                 ...     26565
Shell pairs after pre-screening             ...     20558
Total number of primitive shell pairs       ...     78180
Primitive shell pairs kept                  ...     42105
          la=0 lb=0:   6179 shell pairs
          la=1 lb=0:   6101 shell pairs
          la=1 lb=1:   1538 shell pairs
          la=2 lb=0:   2733 shell pairs
          la=2 lb=1:   1356 shell pairs
          la=2 lb=2:    326 shell pairs
          la=3 lb=0:   1301 shell pairs
          la=3 lb=1:    650 shell pairs
          la=3 lb=2:    296 shell pairs
          la=3 lb=3:     78 shell pairs

Calculating one electron integrals          ... done (  0.0 sec)
Calculating RI/J V-Matrix + Cholesky decomp.... done (  0.0 sec)
Calculating Nuclear repulsion               ... done (  0.0 sec) ENN=    960.820288084081 Eh

SHARK setup successfully completed in   0.4 seconds

Maximum memory used throughout the entire GTOINT-calculation: 32.0 MB


           ************************************************************
           *        Program running with 16 parallel MPI-processes    *
           *              working on a common directory               *
           ************************************************************
-------------------------------------------------------------------------------
                                 ORCA SCF
-------------------------------------------------------------------------------

------------
SCF SETTINGS
------------
Hamiltonian:
 Density Functional     Method          .... DFT(GTOs)
 Exchange Functional    Exchange        .... M062X
 Correlation Functional Correlation     .... M062X
 Gradients option       PostSCFGGA      .... off
 Hybrid DFT is turned on
   Fraction HF Exchange ScalHFX         ....  0.540000
   Scaling of DF-GGA-X  ScalDFX         ....  0.460000
   Scaling of DF-GGA-C  ScalDFC         ....  1.000000
   Scaling of DF-LDA-C  ScalLDAC        ....  1.000000
   Perturbative correction              ....  0.000000
   Density functional embedding theory  .... OFF
 RI-approximation to the Coulomb term is turned on
   Number of AuxJ basis functions       .... 895
   RIJ-COSX (HFX calculated with COS-X)).... on


General Settings:
 Integral files         IntName         .... freq
 Hartree-Fock type      HFTyp           .... UHF
 Total Charge           Charge          ....    1
 Multiplicity           Mult            ....    2
 Number of Electrons    NEL             ....  109
 Basis Dimension        Dim             ....  548
 Nuclear Repulsion      ENuc            ....    960.8202880841 Eh

Convergence Acceleration:
 DIIS                   CNVDIIS         .... on
   Start iteration      DIISMaxIt       ....    12
   Startup error        DIISStart       ....  0.200000
   # of expansion vecs  DIISMaxEq       ....     5
   Bias factor          DIISBfac        ....   1.050
   Max. coefficient     DIISMaxC        ....  10.000
 Trust-Rad. Augm. Hess. CNVTRAH         .... auto
   Auto Start mean grad. ratio tolernc. ....  1.125000
   Auto Start start iteration           ....    20
   Auto Start num. interpolation iter.  ....    10
   Max. Number of Micro iterations      ....    16
   Max. Number of Macro iterations      .... Maxiter - #DIIS iter
   Number of Davidson start vectors     ....     2
   Converg. threshold I  (grad. norm)   ....   1.000e-05
   Converg. threshold II (energy diff.) ....   1.000e-08
   Grad. Scal. Fac. for Micro threshold ....   0.100
   Minimum threshold for Micro iter.    ....   0.010
   NR start threshold (gradient norm)   ....   0.001
   Initial trust radius                 ....   0.400
   Minimum AH scaling param. (alpha)    ....   1.000
   Maximum AH scaling param. (alpha)    .... 1000.000
   Orbital update algorithm             .... Taylor
   White noise on init. David. guess    .... on
   Maximum white noise                  ....   0.010
   Quad. conv. algorithm                .... NR
 SOSCF                  CNVSOSCF        .... off
 Level Shifting         CNVShift        .... on
   Level shift para.    LevelShift      ....    0.2500
   Turn off err/grad.   ShiftErr        ....    0.0010
 Zerner damping         CNVZerner       .... off
 Static damping         CNVDamp         .... on
   Fraction old density DampFac         ....    0.7000
   Max. Damping (<1)    DampMax         ....    0.9800
   Min. Damping (>=0)   DampMin         ....    0.0000
   Turn off err/grad.   DampErr         ....    0.1000
 Fernandez-Rico         CNVRico         .... off

SCF Procedure:
 Maximum # iterations   MaxIter         ....   125
 SCF integral mode      SCFMode         .... Direct
   Integral package                     .... SHARK and LIBINT hybrid scheme
 Reset frequency        DirectResetFreq ....    20
 Integral Threshold     Thresh          ....  2.500e-11 Eh
 Primitive CutOff       TCut            ....  2.500e-12 Eh

Convergence Tolerance:
 Convergence Check Mode ConvCheckMode   .... Total+1el-Energy
 Convergence forced     ConvForced      .... 0
 Energy Change          TolE            ....  1.000e-08 Eh
 1-El. energy change                    ....  1.000e-05 Eh
 DIIS Error             TolErr          ....  5.000e-07


Diagonalization of the overlap matrix:
Smallest eigenvalue                        ... 5.495e-05
Time for diagonalization                   ...    0.036 sec
Threshold for overlap eigenvalues          ... 1.000e-08
Number of eigenvalues below threshold      ... 0
Time for construction of square roots      ...    0.024 sec
Total time needed                          ...    0.062 sec

Time for model grid setup =    0.127 sec

------------------------------
INITIAL GUESS: MODEL POTENTIAL
------------------------------
Loading Hartree-Fock densities                     ... done
Calculating cut-offs                               ... done
Initializing the effective Hamiltonian             ... done
Setting up the integral package (SHARK)            ... done
Starting the Coulomb interaction                   ... done (   0.1 sec)
Reading the grid                                   ... done
Mapping shells                                     ... done
Starting the XC term evaluation                    ... done (   0.1 sec)
  promolecular density results
     # of electrons  =    109.983612079
     EX              =    -87.607779760
     EC              =     -3.663080447
     EX+EC           =    -91.270860207
Transforming the Hamiltonian                       ... done (   0.0 sec)
Diagonalizing the Hamiltonian                      ... done (   0.0 sec)
Back transforming the eigenvectors                 ... done (   0.0 sec)
Now organizing SCF variables                       ... done
                      ------------------
                      INITIAL GUESS DONE (   0.4 sec)
                      ------------------
-------------------
DFT GRID GENERATION
-------------------

General Integration Accuracy     IntAcc      ... 4.388
Radial Grid Type                 RadialGrid  ... OptM3 with GC (2021)
Angular Grid (max. ang.)         AngularGrid ... 4 (Lebedev-302)
Angular grid pruning method      GridPruning ... 4 (adaptive)
Weight generation scheme         WeightScheme... Becke
Basis function cutoff            BFCut       ... 1.0000e-11
Integration weight cutoff        WCut        ... 1.0000e-14
Angular grids for H and He will be reduced by one unit
Partially contracted basis set               ... off
Rotationally invariant grid construction     ... off

Total number of grid points                  ...   144592
Total number of batches                      ...     2277
Average number of points per batch           ...       63
Average number of grid points per atom       ...     4382
Time for grid setup =    0.633 sec

--------------------
COSX GRID GENERATION
--------------------

GRIDX 1
-------
General Integration Accuracy     IntAcc      ... 3.816
Radial Grid Type                 RadialGrid  ... OptM3 with GC (2021)
Angular Grid (max. ang.)         AngularGrid ... 1 (Lebedev-50)
Angular grid pruning method      GridPruning ... 4 (adaptive)
Weight generation scheme         WeightScheme... Becke
Basis function cutoff            BFCut       ... 1.0000e-11
Integration weight cutoff        WCut        ... 1.0000e-14
Angular grids for H and He will be reduced by one unit
Partially contracted basis set               ... on
Rotationally invariant grid construction     ... off

Total number of grid points                  ...    18439
Total number of batches                      ...      310
Average number of points per batch           ...       59
Average number of grid points per atom       ...      559
UseSFitting                                  ... on

GRIDX 2
-------
General Integration Accuracy     IntAcc      ... 4.020
Radial Grid Type                 RadialGrid  ... OptM3 with GC (2021)
Angular Grid (max. ang.)         AngularGrid ... 2 (Lebedev-110)
Angular grid pruning method      GridPruning ... 4 (adaptive)
Weight generation scheme         WeightScheme... Becke
Basis function cutoff            BFCut       ... 1.0000e-11
Integration weight cutoff        WCut        ... 1.0000e-14
Angular grids for H and He will be reduced by one unit
Partially contracted basis set               ... on
Rotationally invariant grid construction     ... off

Total number of grid points                  ...    38891
Total number of batches                      ...      625
Average number of points per batch           ...       62
Average number of grid points per atom       ...     1179
UseSFitting                                  ... on

GRIDX 3
-------
General Integration Accuracy     IntAcc      ... 4.338
Radial Grid Type                 RadialGrid  ... OptM3 with GC (2021)
Angular Grid (max. ang.)         AngularGrid ... 3 (Lebedev-194)
Angular grid pruning method      GridPruning ... 4 (adaptive)
Weight generation scheme         WeightScheme... Becke
Basis function cutoff            BFCut       ... 1.0000e-11
Integration weight cutoff        WCut        ... 1.0000e-14
Angular grids for H and He will be reduced by one unit
Partially contracted basis set               ... on
Rotationally invariant grid construction     ... off

Total number of grid points                  ...    84838
Total number of batches                      ...     1341
Average number of points per batch           ...       63
Average number of grid points per atom       ...     2571
UseSFitting                                  ... on

Time for X-Grid setup             =    0.853 sec

--------------
SCF ITERATIONS
--------------
ITER       Energy         Delta-E        Max-DP      RMS-DP      [F,P]     Damp
               ***  Starting incremental Fock matrix formation  ***
  0   -668.4170694601   0.000000000000 0.05098285  0.00045179  0.1481807 0.7000
  1   -668.6072204234  -0.190150963345 0.05074484  0.00037991  0.0676015 0.7000
                               ***Turning on DIIS***
  2   -668.6923373936  -0.085116970185 0.10070867  0.00078128  0.0243150 0.0000
  3   -668.8309587879  -0.138621394313 0.03464919  0.00023353  0.0359649 0.0000
  4   -668.8550895799  -0.024130792017 0.00825459  0.00007095  0.0064206 0.0000
  5   -668.8562757425  -0.001186162574 0.00362078  0.00003258  0.0034044 0.0000
  6   -668.8565737424  -0.000297999857 0.00132179  0.00001749  0.0015117 0.0000
  7   -668.8566941295  -0.000120387144 0.00172987  0.00002033  0.0009015 0.0000
               *** Restarting incremental Fock matrix formation ***
                                   *** Resetting DIIS ***
  8   -668.8567628057  -0.000068676176 0.00145491  0.00000809  0.0004618 0.0000
  9   -668.8567703506  -0.000007544972 0.00028264  0.00000280  0.0005785 0.0000
 10   -668.8567747951  -0.000004444465 0.00035144  0.00000317  0.0001718 0.0000
 11   -668.8567772027  -0.000002407549 0.00015528  0.00000160  0.0001944 0.0000
 12   -668.8567777637  -0.000000561080 0.00006780  0.00000061  0.0000927 0.0000
 13   -668.8567778714  -0.000000107686 0.00002416  0.00000024  0.0000400 0.0000
 14   -668.8567778987  -0.000000027245 0.00001793  0.00000018  0.0000149 0.0000
 15   -668.8567779123  -0.000000013641 0.00001292  0.00000014  0.0000100 0.0000
 16   -668.8567779227  -0.000000010401 0.00000744  0.00000007  0.0000053 0.0000
 17   -668.8567779318  -0.000000009083 0.00000374  0.00000004  0.0000031 0.0000
 18   -668.8567779312   0.000000000566 0.00000231  0.00000002  0.0000011 0.0000
                            ***DIIS convergence achieved***

               *****************************************************
               *                     SUCCESS                       *
               *           SCF CONVERGED AFTER  19 CYCLES          *
               *****************************************************

Old exchange energy                            =    -48.312839908 Eh
New exchange energy                            =    -48.312830179 Eh
Exchange energy change after final integration =      0.000009729 Eh
Total energy after final integration           =   -668.856768211 Eh
Final COS-X integration done in                =     5.055 sec

----------------
TOTAL SCF ENERGY
----------------

Total Energy       :         -668.85676821 Eh          -18200.51796 eV

Components:
Nuclear Repulsion  :          960.82028808 Eh           26145.24924 eV
Electronic Energy  :        -1629.67705629 Eh          -44345.76720 eV
One Electron Energy:        -2800.01150249 Eh          -76192.18652 eV
Two Electron Energy:         1170.33444620 Eh           31846.41932 eV
Max COSX asymmetry :            0.00000071 Eh               0.00002 eV

Virial components:
Potential Energy   :        -1334.01181105 Eh          -36300.30685 eV
Kinetic Energy     :          665.15504284 Eh           18099.78889 eV
Virial Ratio       :            2.00556521


DFT components:
N(Alpha)           :       55.000039953191 electrons
N(Beta)            :       54.000046419370 electrons
N(Total)           :      109.000086372561 electrons
E(XC)              :      -45.070204678837 Eh       
DFET-embed. en.    :        0.000000000000 Eh       

---------------
SCF CONVERGENCE
---------------

  Last Energy change         ...   -8.3924e-09  Tolerance :   1.0000e-08
  Last MAX-Density change    ...    0.0000e+00  Tolerance :   1.0000e-07
  Last RMS-Density change    ...    0.0000e+00  Tolerance :   5.0000e-09
  Last DIIS Error            ...    5.4531e-07  Tolerance :   5.0000e-07

             **** THE GBW FILE WAS UPDATED (freq.gbw) ****
             **** DENSITY freq.scfp WAS UPDATED ****
             **** ENERGY FILE WAS UPDATED (freq.en.tmp) ****
----------------------
UHF SPIN CONTAMINATION
----------------------

Warning: in a DFT calculation there is little theoretical justification to 
         calculate <S**2> as in Hartree-Fock theory. We will do it anyways
         but you should keep in mind that the values have only limited relevance

Expectation value of <S**2>     :     0.759114
Ideal value S*(S+1) for S=0.5   :     0.750000
Deviation                       :     0.009114

             **** THE GBW FILE WAS UPDATED (freq.gbw) ****
             **** DENSITY freq.scfp WAS UPDATED ****
----------------
ORBITAL ENERGIES
----------------
                 SPIN UP ORBITALS
  NO   OCC          E(Eh)            E(eV) 
   0   1.0000     -19.750423      -537.4363 
   1   1.0000     -19.703280      -536.1535 
   2   1.0000     -15.002819      -408.2474 
   3   1.0000     -14.930242      -406.2725 
   4   1.0000     -14.886921      -405.0937 
   5   1.0000     -10.798120      -293.8318 
   6   1.0000     -10.760399      -292.8054 
   7   1.0000     -10.752680      -292.5953 
   8   1.0000     -10.729937      -291.9764 
   9   1.0000     -10.696269      -291.0603 
  10   1.0000     -10.693263      -290.9785 
  11   1.0000     -10.683950      -290.7251 
  12   1.0000     -10.663935      -290.1804 
  13   1.0000     -10.661534      -290.1151 
  14   1.0000      -1.307631       -35.5824 
  15   1.0000      -1.270580       -34.5743 
  16   1.0000      -1.248649       -33.9775 
  17   1.0000      -1.188235       -32.3335 
  18   1.0000      -1.139680       -31.0123 
  19   1.0000      -1.054756       -28.7014 
  20   1.0000      -1.016682       -27.6653 
  21   1.0000      -0.968404       -26.3516 
  22   1.0000      -0.935162       -25.4470 
  23   1.0000      -0.898233       -24.4422 
  24   1.0000      -0.877943       -23.8900 
  25   1.0000      -0.835079       -22.7236 
  26   1.0000      -0.819687       -22.3048 
  27   1.0000      -0.795724       -21.6527 
  28   1.0000      -0.791454       -21.5365 
  29   1.0000      -0.770364       -20.9627 
  30   1.0000      -0.746655       -20.3175 
  31   1.0000      -0.724163       -19.7055 
  32   1.0000      -0.695256       -18.9189 
  33   1.0000      -0.676887       -18.4190 
  34   1.0000      -0.668082       -18.1794 
  35   1.0000      -0.659545       -17.9471 
  36   1.0000      -0.654315       -17.8048 
  37   1.0000      -0.638583       -17.3767 
  38   1.0000      -0.634517       -17.2661 
  39   1.0000      -0.621533       -16.9128 
  40   1.0000      -0.614135       -16.7115 
  41   1.0000      -0.603454       -16.4208 
  42   1.0000      -0.595572       -16.2063 
  43   1.0000      -0.584865       -15.9150 
  44   1.0000      -0.579789       -15.7769 
  45   1.0000      -0.565271       -15.3818 
  46   1.0000      -0.558621       -15.2008 
  47   1.0000      -0.552542       -15.0354 
  48   1.0000      -0.548128       -14.9153 
  49   1.0000      -0.540058       -14.6957 
  50   1.0000      -0.520518       -14.1640 
  51   1.0000      -0.491771       -13.3818 
  52   1.0000      -0.457305       -12.4439 
  53   1.0000      -0.438423       -11.9301 
  54   1.0000      -0.359331        -9.7779 
  55   0.0000      -0.111209        -3.0261 
  56   0.0000      -0.091066        -2.4780 
  57   0.0000      -0.063792        -1.7359 
  58   0.0000      -0.062216        -1.6930 
  59   0.0000      -0.051783        -1.4091 
  60   0.0000      -0.041053        -1.1171 
  61   0.0000      -0.021633        -0.5887 
  62   0.0000      -0.016818        -0.4576 
  63   0.0000      -0.013889        -0.3779 
  64   0.0000      -0.010152        -0.2762 
  65   0.0000      -0.005878        -0.1599 
  66   0.0000       0.002970         0.0808 
  67   0.0000       0.008839         0.2405 
  68   0.0000       0.012897         0.3510 
  69   0.0000       0.022240         0.6052 
  70   0.0000       0.032950         0.8966 
  71   0.0000       0.034688         0.9439 
  72   0.0000       0.045999         1.2517 
  73   0.0000       0.051987         1.4146 
  74   0.0000       0.052605         1.4315 
  75   0.0000       0.060122         1.6360 
  76   0.0000       0.067977         1.8497 
  77   0.0000       0.079922         2.1748 
  78   0.0000       0.083075         2.2606 
  79   0.0000       0.087969         2.3938 
  80   0.0000       0.091337         2.4854 
  81   0.0000       0.098498         2.6803 
  82   0.0000       0.103160         2.8071 
  83   0.0000       0.111915         3.0454 
  84   0.0000       0.120035         3.2663 
  85   0.0000       0.124625         3.3912 
  86   0.0000       0.129297         3.5183 
  87   0.0000       0.135857         3.6969 
  88   0.0000       0.142611         3.8806 
  89   0.0000       0.146472         3.9857 
  90   0.0000       0.151713         4.1283 
  91   0.0000       0.158959         4.3255 
  92   0.0000       0.163751         4.4559 
  93   0.0000       0.167406         4.5554 
  94   0.0000       0.172985         4.7072 
  95   0.0000       0.176122         4.7925 
  96   0.0000       0.178536         4.8582 
  97   0.0000       0.198801         5.4097 
  98   0.0000       0.208270         5.6673 
  99   0.0000       0.216854         5.9009 
 100   0.0000       0.222390         6.0515 
 101   0.0000       0.227492         6.1904 
 102   0.0000       0.241038         6.5590 
 103   0.0000       0.251413         6.8413 
 104   0.0000       0.257607         7.0098 
 105   0.0000       0.270176         7.3519 
 106   0.0000       0.281013         7.6467 
 107   0.0000       0.282883         7.6976 
 108   0.0000       0.289937         7.8896 
 109   0.0000       0.295592         8.0435 
 110   0.0000       0.300130         8.1670 
 111   0.0000       0.305350         8.3090 
 112   0.0000       0.313230         8.5234 
 113   0.0000       0.314720         8.5640 
 114   0.0000       0.317834         8.6487 
 115   0.0000       0.324483         8.8296 
 116   0.0000       0.326396         8.8817 
 117   0.0000       0.330686         8.9984 
 118   0.0000       0.338140         9.2013 
 119   0.0000       0.340589         9.2679 
 120   0.0000       0.351353         9.5608 
 121   0.0000       0.356461         9.6998 
 122   0.0000       0.359799         9.7906 
 123   0.0000       0.365151         9.9363 
 124   0.0000       0.376421        10.2429 
 125   0.0000       0.382486        10.4080 
 126   0.0000       0.385012        10.4767 
 127   0.0000       0.391741        10.6598 
 128   0.0000       0.395533        10.7630 
 129   0.0000       0.400913        10.9094 
 130   0.0000       0.404998        11.0205 
 131   0.0000       0.408857        11.1256 
 132   0.0000       0.427860        11.6427 
 133   0.0000       0.432684        11.7739 
 134   0.0000       0.437296        11.8994 
 135   0.0000       0.443958        12.0807 
 136   0.0000       0.448468        12.2034 
 137   0.0000       0.466754        12.7010 
 138   0.0000       0.472313        12.8523 
 139   0.0000       0.472750        12.8642 
 140   0.0000       0.483731        13.1630 
 141   0.0000       0.488928        13.3044 
 142   0.0000       0.503652        13.7051 
 143   0.0000       0.515262        14.0210 
 144   0.0000       0.519112        14.1258 
 145   0.0000       0.521644        14.1947 
 146   0.0000       0.525713        14.3054 
 147   0.0000       0.534037        14.5319 
 148   0.0000       0.538263        14.6469 
 149   0.0000       0.547576        14.9003 
 150   0.0000       0.560146        15.2423 
 151   0.0000       0.566842        15.4246 
 152   0.0000       0.569780        15.5045 
 153   0.0000       0.583521        15.8784 
 154   0.0000       0.595620        16.2076 
 155   0.0000       0.602262        16.3884 
 156   0.0000       0.607047        16.5186 
 157   0.0000       0.620302        16.8793 
 158   0.0000       0.650678        17.7058 
 159   0.0000       0.658324        17.9139 
 160   0.0000       0.668098        18.1799 
 161   0.0000       0.675160        18.3720 
 162   0.0000       0.689366        18.7586 
 163   0.0000       0.700864        19.0715 
 164   0.0000       0.714042        19.4301 
 165   0.0000       0.717318        19.5192 
 166   0.0000       0.744634        20.2625 
 167   0.0000       0.749090        20.3838 
 168   0.0000       0.765759        20.8374 
 169   0.0000       0.777964        21.1695 
 170   0.0000       0.786348        21.3976 
 171   0.0000       0.792406        21.5625 
 172   0.0000       0.808792        22.0083 
 173   0.0000       0.817167        22.2362 
 174   0.0000       0.826752        22.4971 
 175   0.0000       0.841398        22.8956 
 176   0.0000       0.857974        23.3466 
 177   0.0000       0.858290        23.3552 
 178   0.0000       0.866756        23.5856 
 179   0.0000       0.882000        24.0004 
 180   0.0000       0.889908        24.2156 
 181   0.0000       0.901809        24.5395 
 182   0.0000       0.916791        24.9472 
 183   0.0000       0.926815        25.2199 
 184   0.0000       0.937471        25.5099 
 185   0.0000       0.952897        25.9296 
 186   0.0000       0.956710        26.0334 
 187   0.0000       0.968579        26.3564 
 188   0.0000       0.976454        26.5707 
 189   0.0000       0.991499        26.9800 
 190   0.0000       0.997501        27.1434 
 191   0.0000       1.010933        27.5089 
 192   0.0000       1.019270        27.7357 
 193   0.0000       1.033917        28.1343 
 194   0.0000       1.055265        28.7152 
 195   0.0000       1.060980        28.8707 
 196   0.0000       1.066819        29.0296 
 197   0.0000       1.082653        29.4605 
 198   0.0000       1.085076        29.5264 
 199   0.0000       1.121788        30.5254 
 200   0.0000       1.130475        30.7618 
 201   0.0000       1.133621        30.8474 
 202   0.0000       1.150629        31.3102 
 203   0.0000       1.160039        31.5663 
 204   0.0000       1.181489        32.1499 
 205   0.0000       1.193044        32.4644 
 206   0.0000       1.212718        32.9997 
 207   0.0000       1.217953        33.1422 
 208   0.0000       1.227537        33.4030 
 209   0.0000       1.248795        33.9814 
 210   0.0000       1.260635        34.3036 
 211   0.0000       1.266499        34.4632 
 212   0.0000       1.279516        34.8174 
 213   0.0000       1.284842        34.9623 
 214   0.0000       1.323335        36.0098 
 215   0.0000       1.357802        36.9477 
 216   0.0000       1.365928        37.1688 
 217   0.0000       1.377443        37.4821 
 218   0.0000       1.390367        37.8338 
 219   0.0000       1.397655        38.0321 
 220   0.0000       1.399695        38.0876 
 221   0.0000       1.418720        38.6053 
 222   0.0000       1.429680        38.9036 
 223   0.0000       1.434261        39.0282 
 224   0.0000       1.446637        39.3650 
 225   0.0000       1.451910        39.5085 
 226   0.0000       1.457743        39.6672 
 227   0.0000       1.464803        39.8593 
 228   0.0000       1.471523        40.0422 
 229   0.0000       1.475761        40.1575 
 230   0.0000       1.482944        40.3530 
 231   0.0000       1.484480        40.3948 
 232   0.0000       1.489462        40.5303 
 233   0.0000       1.493117        40.6298 
 234   0.0000       1.500966        40.8434 
 235   0.0000       1.512363        41.1535 
 236   0.0000       1.522533        41.4302 
 237   0.0000       1.524966        41.4964 
 238   0.0000       1.537435        41.8357 
 239   0.0000       1.542619        41.9768 
 240   0.0000       1.551602        42.2213 
 241   0.0000       1.559340        42.4318 
 242   0.0000       1.574816        42.8529 
 243   0.0000       1.589421        43.2504 
 244   0.0000       1.591216        43.2992 
 245   0.0000       1.603765        43.6407 
 246   0.0000       1.608201        43.7614 
 247   0.0000       1.628880        44.3241 
 248   0.0000       1.652552        44.9682 
 249   0.0000       1.661567        45.2135 
 250   0.0000       1.672239        45.5039 
 251   0.0000       1.684475        45.8369 
 252   0.0000       1.696756        46.1711 
 253   0.0000       1.699481        46.2452 
 254   0.0000       1.700561        46.2746 
 255   0.0000       1.713376        46.6233 
 256   0.0000       1.716604        46.7112 
 257   0.0000       1.726634        46.9841 
 258   0.0000       1.753714        47.7210 
 259   0.0000       1.757946        47.8361 
 260   0.0000       1.771311        48.1998 
 261   0.0000       1.782926        48.5159 
 262   0.0000       1.802557        49.0501 
 263   0.0000       1.821410        49.5631 
 264   0.0000       1.828814        49.7646 
 265   0.0000       1.838213        50.0203 
 266   0.0000       1.850375        50.3513 
 267   0.0000       1.852431        50.4072 
 268   0.0000       1.856956        50.5303 
 269   0.0000       1.870154        50.8895 
 270   0.0000       1.886521        51.3349 
 271   0.0000       1.903757        51.8039 
 272   0.0000       1.912661        52.0461 
 273   0.0000       1.914235        52.0890 
 274   0.0000       1.922718        52.3198 
 275   0.0000       1.941528        52.8317 
 276   0.0000       1.950637        53.0795 
 277   0.0000       1.965324        53.4792 
 278   0.0000       1.968013        53.5523 
 279   0.0000       1.982185        53.9380 
 280   0.0000       1.992318        54.2137 
 281   0.0000       1.994268        54.2668 
 282   0.0000       2.018373        54.9227 
 283   0.0000       2.041185        55.5435 
 284   0.0000       2.054809        55.9142 
 285   0.0000       2.077504        56.5318 
 286   0.0000       2.085391        56.7464 
 287   0.0000       2.092179        56.9311 
 288   0.0000       2.105721        57.2996 
 289   0.0000       2.107508        57.3482 
 290   0.0000       2.127383        57.8890 
 291   0.0000       2.143977        58.3406 
 292   0.0000       2.160347        58.7860 
 293   0.0000       2.166947        58.9656 
 294   0.0000       2.182999        59.4024 
 295   0.0000       2.207617        60.0723 
 296   0.0000       2.210980        60.1638 
 297   0.0000       2.219205        60.3876 
 298   0.0000       2.224521        60.5323 
 299   0.0000       2.228617        60.6438 
 300   0.0000       2.237233        60.8782 
 301   0.0000       2.256783        61.4102 
 302   0.0000       2.269103        61.7454 
 303   0.0000       2.282717        62.1159 
 304   0.0000       2.297140        62.5084 
 305   0.0000       2.301749        62.6338 
 306   0.0000       2.306943        62.7751 
 307   0.0000       2.311038        62.8865 
 308   0.0000       2.320775        63.1515 
 309   0.0000       2.330186        63.4076 
 310   0.0000       2.350965        63.9730 
 311   0.0000       2.369789        64.4852 
 312   0.0000       2.384865        64.8955 
 313   0.0000       2.390039        65.0363 
 314   0.0000       2.408328        65.5339 
 315   0.0000       2.413933        65.6865 
 316   0.0000       2.433286        66.2131 
 317   0.0000       2.441692        66.4418 
 318   0.0000       2.452007        66.7225 
 319   0.0000       2.459875        66.9366 
 320   0.0000       2.466102        67.1061 
 321   0.0000       2.477192        67.4078 
 322   0.0000       2.484627        67.6102 
 323   0.0000       2.499275        68.0087 
 324   0.0000       2.502574        68.0985 
 325   0.0000       2.509565        68.2887 
 326   0.0000       2.514955        68.4354 
 327   0.0000       2.521113        68.6030 
 328   0.0000       2.532259        68.9063 
 329   0.0000       2.536703        69.0272 
 330   0.0000       2.553056        69.4722 
 331   0.0000       2.565318        69.8059 
 332   0.0000       2.570521        69.9474 
 333   0.0000       2.592329        70.5409 
 334   0.0000       2.596554        70.6558 
 335   0.0000       2.615486        71.1710 
 336   0.0000       2.627250        71.4911 
 337   0.0000       2.634239        71.6813 
 338   0.0000       2.642822        71.9148 
 339   0.0000       2.658141        72.3317 
 340   0.0000       2.665583        72.5342 
 341   0.0000       2.674934        72.7887 
 342   0.0000       2.682534        72.9955 
 343   0.0000       2.695119        73.3379 
 344   0.0000       2.699534        73.4580 
 345   0.0000       2.725616        74.1678 
 346   0.0000       2.729953        74.2858 
 347   0.0000       2.738068        74.5066 
 348   0.0000       2.755100        74.9701 
 349   0.0000       2.760420        75.1149 
 350   0.0000       2.780793        75.6692 
 351   0.0000       2.797967        76.1365 
 352   0.0000       2.804468        76.3134 
 353   0.0000       2.813639        76.5630 
 354   0.0000       2.828819        76.9761 
 355   0.0000       2.833675        77.1082 
 356   0.0000       2.848156        77.5023 
 357   0.0000       2.864168        77.9380 
 358   0.0000       2.877089        78.2896 
 359   0.0000       2.887801        78.5811 
 360   0.0000       2.892025        78.6960 
 361   0.0000       2.900869        78.9367 
 362   0.0000       2.923292        79.5468 
 363   0.0000       2.927465        79.6604 
 364   0.0000       2.936365        79.9025 
 365   0.0000       2.953572        80.3708 
 366   0.0000       2.971020        80.8456 
 367   0.0000       2.985716        81.2455 
 368   0.0000       2.991908        81.4140 
 369   0.0000       2.995968        81.5244 
 370   0.0000       3.007112        81.8277 
 371   0.0000       3.013871        82.0116 
 372   0.0000       3.021445        82.2177 
 373   0.0000       3.033224        82.5382 
 374   0.0000       3.039765        82.7162 
 375   0.0000       3.041227        82.7560 
 376   0.0000       3.052865        83.0727 
 377   0.0000       3.054730        83.1234 
 378   0.0000       3.067193        83.4626 
 379   0.0000       3.077910        83.7542 
 380   0.0000       3.084306        83.9282 
 381   0.0000       3.098743        84.3211 
 382   0.0000       3.102166        84.4142 
 383   0.0000       3.110501        84.6410 
 384   0.0000       3.121899        84.9512 
 385   0.0000       3.140894        85.4681 
 386   0.0000       3.149022        85.6893 
 387   0.0000       3.162811        86.0645 
 388   0.0000       3.174719        86.3885 
 389   0.0000       3.175267        86.4034 
 390   0.0000       3.185109        86.6712 
 391   0.0000       3.200708        87.0957 
 392   0.0000       3.207226        87.2731 
 393   0.0000       3.210121        87.3518 
 394   0.0000       3.223545        87.7171 
 395   0.0000       3.225142        87.7606 
 396   0.0000       3.232658        87.9651 
 397   0.0000       3.235721        88.0484 
 398   0.0000       3.248009        88.3828 
 399   0.0000       3.254177        88.5507 
 400   0.0000       3.276779        89.1657 
 401   0.0000       3.284618        89.3790 
 402   0.0000       3.295564        89.6769 
 403   0.0000       3.305910        89.9584 
 404   0.0000       3.322457        90.4086 
 405   0.0000       3.336064        90.7789 
 406   0.0000       3.347130        91.0800 
 407   0.0000       3.363801        91.5337 
 408   0.0000       3.377979        91.9195 
 409   0.0000       3.383809        92.0781 
 410   0.0000       3.403015        92.6008 
 411   0.0000       3.410432        92.8026 
 412   0.0000       3.422255        93.1243 
 413   0.0000       3.433255        93.4236 
 414   0.0000       3.442292        93.6695 
 415   0.0000       3.448408        93.8359 
 416   0.0000       3.463611        94.2496 
 417   0.0000       3.479351        94.6779 
 418   0.0000       3.528082        96.0040 
 419   0.0000       3.553681        96.7006 
 420   0.0000       3.557638        96.8083 
 421   0.0000       3.584821        97.5479 
 422   0.0000       3.590719        97.7084 
 423   0.0000       3.626254        98.6754 
 424   0.0000       3.635033        98.9143 
 425   0.0000       3.647098        99.2426 
 426   0.0000       3.656426        99.4964 
 427   0.0000       3.665646        99.7473 
 428   0.0000       3.691856       100.4605 
 429   0.0000       3.700598       100.6984 
 430   0.0000       3.702396       100.7473 
 431   0.0000       3.722979       101.3074 
 432   0.0000       3.734141       101.6111 
 433   0.0000       3.741852       101.8210 
 434   0.0000       3.754951       102.1774 
 435   0.0000       3.769455       102.5721 
 436   0.0000       3.794188       103.2451 
 437   0.0000       3.806493       103.5799 
 438   0.0000       3.830605       104.2361 
 439   0.0000       3.845043       104.6289 
 440   0.0000       3.878223       105.5318 
 441   0.0000       3.901207       106.1572 
 442   0.0000       3.928089       106.8887 
 443   0.0000       3.946893       107.4004 
 444   0.0000       3.952004       107.5395 
 445   0.0000       3.975052       108.1667 
 446   0.0000       3.998916       108.8160 
 447   0.0000       4.014893       109.2508 
 448   0.0000       4.031533       109.7036 
 449   0.0000       4.055346       110.3516 
 450   0.0000       4.081555       111.0648 
 451   0.0000       4.116268       112.0093 
 452   0.0000       4.132109       112.4404 
 453   0.0000       4.141344       112.6917 
 454   0.0000       4.166331       113.3716 
 455   0.0000       4.174011       113.5806 
 456   0.0000       4.199110       114.2636 
 457   0.0000       4.253462       115.7426 
 458   0.0000       4.267805       116.1329 
 459   0.0000       4.279695       116.4564 
 460   0.0000       4.288876       116.7063 
 461   0.0000       4.314256       117.3969 
 462   0.0000       4.318311       117.5072 
 463   0.0000       4.352058       118.4255 
 464   0.0000       4.361171       118.6735 
 465   0.0000       4.383646       119.2851 
 466   0.0000       4.408016       119.9482 
 467   0.0000       4.429082       120.5214 
 468   0.0000       4.449231       121.0697 
 469   0.0000       4.461012       121.3903 
 470   0.0000       4.551284       123.8467 
 471   0.0000       4.566922       124.2723 
 472   0.0000       4.569158       124.3331 
 473   0.0000       4.576175       124.5241 
 474   0.0000       4.587699       124.8376 
 475   0.0000       4.601544       125.2144 
 476   0.0000       4.619204       125.6949 
 477   0.0000       4.630431       126.0004 
 478   0.0000       4.649299       126.5139 
 479   0.0000       4.661414       126.8435 
 480   0.0000       4.669718       127.0695 
 481   0.0000       4.682602       127.4201 
 482   0.0000       4.703791       127.9967 
 483   0.0000       4.736993       128.9001 
 484   0.0000       4.810382       130.8972 
 485   0.0000       4.846882       131.8904 
 486   0.0000       4.869031       132.4931 
 487   0.0000       4.891782       133.1122 
 488   0.0000       4.911180       133.6400 
 489   0.0000       4.921310       133.9156 
 490   0.0000       4.934832       134.2836 
 491   0.0000       4.967913       135.1838 
 492   0.0000       4.976346       135.4133 
 493   0.0000       4.993079       135.8686 
 494   0.0000       5.016199       136.4977 
 495   0.0000       5.023493       136.6962 
 496   0.0000       5.041674       137.1909 
 497   0.0000       5.073398       138.0542 
 498   0.0000       5.116989       139.2404 
 499   0.0000       5.120153       139.3265 
 500   0.0000       5.155601       140.2910 
 501   0.0000       5.176820       140.8684 
 502   0.0000       5.202334       141.5627 
 503   0.0000       5.218890       142.0132 
 504   0.0000       5.273101       143.4884 
 505   0.0000       5.313787       144.5955 
 506   0.0000       5.323234       144.8526 
 507   0.0000       5.367732       146.0634 
 508   0.0000       5.413925       147.3204 
 509   0.0000       5.464883       148.7070 
 510   0.0000       5.472728       148.9205 
 511   0.0000       5.542036       150.8065 
 512   0.0000       5.568701       151.5321 
 513   0.0000       5.604460       152.5051 
 514   0.0000       5.688756       154.7989 
 515   0.0000       5.710576       155.3927 
 516   0.0000       5.794041       157.6639 
 517   0.0000       5.866012       159.6223 
 518   0.0000       5.887636       160.2107 
 519   0.0000       5.952833       161.9848 
 520   0.0000       6.182521       168.2349 
 521   0.0000       6.237600       169.7337 
 522   0.0000       6.269663       170.6062 
 523   0.0000       6.293999       171.2684 
 524   0.0000       6.424268       174.8132 
 525   0.0000       6.500139       176.8778 
 526   0.0000       6.547352       178.1625 
 527   0.0000       6.626126       180.3061 
 528   0.0000       6.664670       181.3549 
 529   0.0000       6.714720       182.7168 
 530   0.0000       6.915974       188.1932 
 531   0.0000       6.961228       189.4246 
 532   0.0000       7.054287       191.9569 
 533   0.0000       7.150259       194.5684 
 534   0.0000      22.283552       606.3663 
 535   0.0000      22.316405       607.2603 
 536   0.0000      22.385014       609.1272 
 537   0.0000      22.405357       609.6808 
 538   0.0000      22.451132       610.9264 
 539   0.0000      22.492577       612.0541 
 540   0.0000      22.876835       622.5103 
 541   0.0000      23.238079       632.3403 
 542   0.0000      23.287548       633.6864 
 543   0.0000      31.914745       868.4444 
 544   0.0000      32.423554       882.2898 
 545   0.0000      32.639290       888.1602 
 546   0.0000      44.033419      1198.2103 
 547   0.0000      44.066864      1199.1203 

                 SPIN DOWN ORBITALS
  NO   OCC          E(Eh)            E(eV) 
   0   1.0000     -19.748590      -537.3864 
   1   1.0000     -19.701651      -536.1092 
   2   1.0000     -15.002824      -408.2476 
   3   1.0000     -14.930296      -406.2740 
   4   1.0000     -14.885894      -405.0658 
   5   1.0000     -10.797731      -293.8212 
   6   1.0000     -10.761021      -292.8223 
   7   1.0000     -10.752681      -292.5953 
   8   1.0000     -10.724529      -291.8293 
   9   1.0000     -10.696222      -291.0590 
  10   1.0000     -10.693799      -290.9931 
  11   1.0000     -10.683226      -290.7054 
  12   1.0000     -10.663979      -290.1816 
  13   1.0000     -10.661623      -290.1175 
  14   1.0000      -1.302479       -35.4423 
  15   1.0000      -1.266107       -34.4525 
[...]
     47       0.003854  -0.000141  -0.000043
     48      -0.013081   0.013631  -0.000057
     49       0.006198  -0.006947   0.000034
     50       0.009950  -0.009185  -0.000052
     51       0.389234   0.376139   0.000048
     52      -0.377301  -0.378238  -0.000007
     53       0.448085   0.463272   0.000011
     54      -0.006930  -0.009921   0.000928
     55      -0.011391   0.011003   0.001236
     56      -0.004270  -0.003129  -0.000343
     57       0.021314  -0.000049   0.000879
     58       0.038648  -0.000199   0.002796
     59      -0.014669   0.000068  -0.001337
     60       0.000043   0.000046  -0.000006
     61       0.000659  -0.000067   0.000237
     62      -0.000361   0.000069  -0.000149
     63       0.000008   0.000013  -0.045437
     64      -0.000051   0.000021  -0.057440
     65       0.000037  -0.000008   0.008143
     66      -0.000116  -0.000200   0.608559
     67       0.000226  -0.000296   0.781588
     68      -0.000110  -0.000021  -0.114081
     69      -0.000361  -0.000032  -0.000071
     70      -0.000633   0.000084  -0.000144
     71       0.000208  -0.000026   0.000056
     72      -0.575514   0.568361   0.000380
     73       0.247507  -0.234742  -0.000077
     74       0.326650  -0.339999  -0.000194
     75      -0.000019   0.000011  -0.000926
     76       0.000025   0.000000   0.000584
     77      -0.000010  -0.000016  -0.001303
     78       0.000014   0.000018  -0.001337
     79      -0.000129  -0.000009   0.007005
     80       0.000008  -0.000020   0.001331
     81       0.000120   0.000003   0.008233
     82       0.000021  -0.000005   0.001956
     83       0.000102  -0.000027   0.004454
     84      -0.000019  -0.000025   0.003173
     85      -0.000018  -0.000015   0.001813
     86       0.000077   0.000028  -0.005574
     87      -0.000041  -0.000011   0.000003
     88      -0.000052  -0.000000  -0.000009
     89      -0.000021   0.000005   0.000022
     90      -0.000028   0.000005   0.000058
     91      -0.000016  -0.000072   0.000023
     92       0.000394   0.000005   0.000041
     93      -0.000403  -0.000002  -0.000027
     94      -0.000008   0.000065  -0.000006
     95      -0.000198  -0.000042   0.000004
     96       0.000252  -0.000066   0.000093
     97      -0.000266  -0.000009  -0.000030
     98       0.000029   0.000088   0.000004


-----------
IR SPECTRUM
-----------

 Mode   freq       eps      Int      T**2         TX        TY        TZ
       cm**-1   L/(mol*cm) km/mol    a.u.
----------------------------------------------------------------------------
  6:     14.54   0.001647    8.32  0.035348  (-0.125861  0.074400  0.118203)
  7:     44.24   0.000604    3.05  0.004260  ( 0.049720 -0.038129 -0.018283)
  8:     77.70   0.001143    5.77  0.004589  (-0.023398  0.034408  0.053455)
  9:     91.58   0.001500    7.58  0.005112  ( 0.048017 -0.036213 -0.038667)
 10:     96.47   0.001780    9.00  0.005759  (-0.022312  0.057694  0.043961)
 11:    104.00   0.002331   11.78  0.006995  ( 0.025698 -0.062139 -0.049728)
 12:    128.48   0.000081    0.41  0.000197  ( 0.001462 -0.004642  0.013173)
 13:    135.53   0.001678    8.48  0.003864  ( 0.032471 -0.037830  0.037124)
 14:    153.88   0.003911   19.76  0.007930  ( 0.016787 -0.061857  0.061824)
 15:    172.16   0.001353    6.84  0.002453  ( 0.030357 -0.017718 -0.034886)
 16:    221.88   0.003397   17.17  0.004778  ( 0.043700  0.051063 -0.016135)
 17:    245.78   0.012744   64.40  0.016181  (-0.050521 -0.106258  0.048352)
 18:    260.11   0.002483   12.55  0.002979  (-0.044369  0.021786 -0.023154)
 19:    280.50   0.005184   26.20  0.005767  ( 0.036219 -0.018578 -0.064113)
 20:    283.31   0.002672   13.51  0.002944  ( 0.044674 -0.029461 -0.008945)
 21:    308.25   0.002478   12.52  0.002509  (-0.032776  0.033904  0.016885)
 22:    314.97   0.000061    0.31  0.000060  ( 0.001810 -0.006025  0.004562)
 23:    374.20   0.005202   26.29  0.004338  (-0.001477 -0.042458  0.050329)
 24:    389.28   0.000101    0.51  0.000081  ( 0.005012 -0.006881  0.002976)
 25:    400.13   0.001567    7.92  0.001222  ( 0.022102  0.021882  0.015954)
 26:    430.77   0.001002    5.06  0.000726  ( 0.013582 -0.018636 -0.013923)
 27:    490.58   0.000338    1.71  0.000215  (-0.009803  0.009104 -0.005999)
 28:    544.50   0.009056   45.76  0.005190  (-0.060735 -0.038327 -0.005680)
 29:    612.63   0.001295    6.55  0.000660  ( 0.009556 -0.002076  0.023753)
 30:    628.99   0.001207    6.10  0.000599  ( 0.019042 -0.015360 -0.000408)
 31:    720.48   0.000971    4.91  0.000420  ( 0.015312  0.010639  0.008534)
 32:    743.33   0.000771    3.89  0.000324  ( 0.009320 -0.007927 -0.013185)
 33:    762.13   0.000966    4.88  0.000395  ( 0.003224  0.001933  0.019525)
 34:    828.47   0.001006    5.08  0.000379  ( 0.011334 -0.014138  0.007115)
 35:    854.39   0.000906    4.58  0.000331  ( 0.015269  0.000763 -0.009867)
 36:    860.99   0.008533   43.12  0.003093  ( 0.020152 -0.032141 -0.040667)
 37:    880.29   0.001662    8.40  0.000589  (-0.002930 -0.020670  0.012381)
 38:    917.36   0.001266    6.40  0.000431  (-0.009454  0.001418 -0.018419)
 39:    954.58   0.001607    8.12  0.000525  (-0.016097  0.004369 -0.015720)
 40:    974.05   0.001225    6.19  0.000393  ( 0.016367 -0.011100 -0.001240)
 41:   1009.19   0.002378   12.02  0.000735  ( 0.007475  0.021353 -0.014949)
 42:   1037.46   0.003096   15.64  0.000931  (-0.008446  0.016757 -0.024063)
 43:   1054.46   0.003548   17.93  0.001050  ( 0.001916  0.024828 -0.020731)
 44:   1063.76   0.001936    9.78  0.000568  ( 0.000349 -0.018835 -0.014595)
 45:   1067.56   0.002346   11.86  0.000686  ( 0.015349 -0.014363  0.015618)
 46:   1084.55   0.001723    8.71  0.000496  (-0.008729 -0.011054 -0.017247)
 47:   1110.55   0.000674    3.41  0.000189  (-0.007076  0.010049 -0.006200)
 48:   1140.96   0.001887    9.54  0.000516  ( 0.009061 -0.020085  0.005542)
 49:   1156.79   0.000008    0.04  0.000002  (-0.000817 -0.001047  0.000560)
 50:   1187.18   0.000485    2.45  0.000127  ( 0.005274 -0.008345  0.005477)
 51:   1188.21   0.000314    1.58  0.000082  (-0.009008  0.000573 -0.000935)
 52:   1237.61   0.001491    7.54  0.000376  ( 0.007797 -0.013053  0.012033)
 53:   1276.68   0.016697   84.38  0.004081  ( 0.017215 -0.049820  0.036095)
 54:   1279.46   0.000696    3.52  0.000170  ( 0.000590  0.007750 -0.010457)
 55:   1311.18   0.002754   13.92  0.000656  (-0.007676  0.016658 -0.017864)
 56:   1320.24   0.007147   36.12  0.001689  ( 0.020659 -0.027064  0.023025)
 57:   1350.75   0.000526    2.66  0.000122  (-0.009363  0.004829 -0.003248)
 58:   1361.13   0.021233  107.30  0.004868  (-0.039552  0.037384 -0.043660)
 59:   1375.12   0.000446    2.26  0.000101  (-0.007829 -0.005533 -0.003067)
 60:   1398.00   0.000664    3.35  0.000148  (-0.005533  0.005476 -0.009358)
 61:   1413.95   0.000653    3.30  0.000144  ( 0.003031 -0.009549  0.006617)
 62:   1417.35   0.007658   38.70  0.001686  ( 0.030972 -0.010954  0.024634)
 63:   1427.52   0.001687    8.53  0.000369  (-0.014521 -0.009575 -0.008141)
 64:   1460.68   0.005072   25.63  0.001084  ( 0.026663 -0.008601  0.017285)
 65:   1472.20   0.003023   15.28  0.000641  ( 0.008619 -0.022834 -0.006723)
 66:   1482.24   0.002445   12.36  0.000515  ( 0.010131 -0.009976 -0.017680)
 67:   1485.19   0.003020   15.26  0.000635  ( 0.017966  0.017611  0.001283)
 68:   1494.52   0.010300   52.05  0.002151  ( 0.001967 -0.036690  0.028295)
 69:   1497.20   0.002733   13.81  0.000570  (-0.006336  0.022020 -0.006683)
 70:   1506.15   0.006996   35.36  0.001450  ( 0.001549 -0.023439  0.029963)
 71:   1510.99   0.004018   20.31  0.000830  (-0.010739 -0.001800  0.026670)
 72:   1513.65   0.004696   23.73  0.000968  ( 0.017044 -0.021893  0.014083)
 73:   1556.11   0.013308   67.25  0.002669  ( 0.005217 -0.044626 -0.025497)
 74:   1559.47   0.152388  770.10  0.030494  (-0.112849  0.067423 -0.114949)
 75:   1590.92   0.013794   69.71  0.002706  ( 0.046120  0.007452  0.022871)
 76:   1651.80   0.004899   24.76  0.000926  (-0.012970 -0.008688  0.026113)
 77:   1678.70   0.046334  234.15  0.008613  (-0.049815 -0.070981  0.033068)
 78:   1685.98   0.120386  608.38  0.022283  ( 0.021289  0.133347 -0.063623)
 79:   1737.08   0.020358  102.88  0.003657  ( 0.052446  0.025303  0.016324)
 80:   2594.30   0.366896  1854.14  0.044133  ( 0.098061  0.176276 -0.058686)
 81:   3065.01   0.001182    5.97  0.000120  ( 0.009998  0.001732 -0.004169)
 82:   3084.68   0.000141    0.71  0.000014  ( 0.002418  0.002695  0.001067)
 83:   3088.16   0.003503   17.70  0.000354  ( 0.008329 -0.010624  0.013105)
 84:   3089.24   0.000118    0.59  0.000012  (-0.002581  0.000173 -0.002280)
 85:   3094.43   0.004322   21.84  0.000436  ( 0.015766  0.002960 -0.013362)
 86:   3113.49   0.000270    1.36  0.000027  ( 0.002299 -0.004586  0.000869)
 87:   3120.42   0.000556    2.81  0.000056  (-0.002031 -0.001896  0.006922)
 88:   3133.52   0.000892    4.51  0.000089  ( 0.005160 -0.007736  0.001551)
 89:   3140.73   0.001991   10.06  0.000198  (-0.006846  0.004309 -0.011505)
 90:   3159.08   0.000851    4.30  0.000084  (-0.004853  0.005060  0.005906)
 91:   3165.00   0.000082    0.41  0.000008  (-0.000767 -0.002179 -0.001645)
 92:   3172.48   0.000341    1.72  0.000033  (-0.003551 -0.003833  0.002489)
 93:   3195.69   0.000216    1.09  0.000021  ( 0.002856  0.003460 -0.000987)
 94:   3196.27   0.000819    4.14  0.000080  (-0.007873 -0.002559 -0.003382)
 95:   3448.37   0.035262  178.20  0.003191  (-0.000648 -0.047107  0.031171)
 96:   3464.21   0.014132   71.42  0.001273  (-0.005049 -0.013711  0.032550)
 97:   3526.99   0.015151   76.56  0.001340  ( 0.030127 -0.019843  0.006255)
 98:   3694.11   0.009014   45.55  0.000761  ( 0.023206  0.013972  0.005270)

* The epsilon (eps) is given for a Dirac delta lineshape.
** The dipole moment derivative (T) already includes vibrational overlap.

The first frequency considered to be a vibration is 6
The total number of vibrations considered is 93


--------------------------
THERMOCHEMISTRY AT 298.15K
--------------------------

Temperature         ... 298.15 K
Pressure            ... 1.00 atm
Total Mass          ... 201.27 AMU

Throughout the following assumptions are being made:
  (1) The electronic state is orbitally nondegenerate
      but the spin degeneracy is treated
  (2) There are no thermally accessible electronically excited states
  (3) Hindered rotations indicated by low frequency modes are not
      treated as such but are treated as vibrations and this may
      cause some error
  (4) All equations used are the standard statistical mechanics
      equations for an ideal gas
  (5) All vibrations are strictly harmonic

freq.      14.54  E(vib)   ...       0.57 
freq.      44.24  E(vib)   ...       0.53 
freq.      77.70  E(vib)   ...       0.49 
freq.      91.58  E(vib)   ...       0.47 
freq.      96.47  E(vib)   ...       0.47 
freq.     104.00  E(vib)   ...       0.46 
freq.     128.48  E(vib)   ...       0.43 
freq.     135.53  E(vib)   ...       0.42 
freq.     153.88  E(vib)   ...       0.40 
freq.     172.16  E(vib)   ...       0.38 
freq.     221.88  E(vib)   ...       0.33 
freq.     245.78  E(vib)   ...       0.31 
freq.     260.11  E(vib)   ...       0.30 
freq.     280.50  E(vib)   ...       0.28 
freq.     283.31  E(vib)   ...       0.28 
freq.     308.25  E(vib)   ...       0.26 
freq.     314.97  E(vib)   ...       0.25 
freq.     374.20  E(vib)   ...       0.21 
freq.     389.28  E(vib)   ...       0.20 
freq.     400.13  E(vib)   ...       0.19 
freq.     430.77  E(vib)   ...       0.18 
freq.     490.58  E(vib)   ...       0.15 
freq.     544.50  E(vib)   ...       0.12 
freq.     612.63  E(vib)   ...       0.10 
freq.     628.99  E(vib)   ...       0.09 
freq.     720.48  E(vib)   ...       0.07 
freq.     743.33  E(vib)   ...       0.06 
freq.     762.13  E(vib)   ...       0.06 
freq.     828.47  E(vib)   ...       0.04 
freq.     854.39  E(vib)   ...       0.04 
freq.     860.99  E(vib)   ...       0.04 
freq.     880.29  E(vib)   ...       0.04 
freq.     917.36  E(vib)   ...       0.03 
freq.     954.58  E(vib)   ...       0.03 
freq.     974.05  E(vib)   ...       0.03 
freq.    1009.19  E(vib)   ...       0.02 
freq.    1037.46  E(vib)   ...       0.02 
freq.    1054.46  E(vib)   ...       0.02 
freq.    1063.76  E(vib)   ...       0.02 
freq.    1067.56  E(vib)   ...       0.02 
freq.    1084.55  E(vib)   ...       0.02 
freq.    1110.55  E(vib)   ...       0.02 
freq.    1140.96  E(vib)   ...       0.01 
freq.    1156.79  E(vib)   ...       0.01 
freq.    1187.18  E(vib)   ...       0.01 
freq.    1188.21  E(vib)   ...       0.01 
freq.    1237.61  E(vib)   ...       0.01 
freq.    1276.68  E(vib)   ...       0.01 
freq.    1279.46  E(vib)   ...       0.01 
freq.    1311.18  E(vib)   ...       0.01 
freq.    1320.24  E(vib)   ...       0.01 
freq.    1350.75  E(vib)   ...       0.01 
freq.    1361.13  E(vib)   ...       0.01 
freq.    1375.12  E(vib)   ...       0.01 
freq.    1398.00  E(vib)   ...       0.00 
freq.    1413.95  E(vib)   ...       0.00 
freq.    1417.35  E(vib)   ...       0.00 
freq.    1427.52  E(vib)   ...       0.00 
freq.    1460.68  E(vib)   ...       0.00 
freq.    1472.20  E(vib)   ...       0.00 
freq.    1482.24  E(vib)   ...       0.00 
freq.    1485.19  E(vib)   ...       0.00 
freq.    1494.52  E(vib)   ...       0.00 
freq.    1497.20  E(vib)   ...       0.00 
freq.    1506.15  E(vib)   ...       0.00 
freq.    1510.99  E(vib)   ...       0.00 
freq.    1513.65  E(vib)   ...       0.00 
freq.    1556.11  E(vib)   ...       0.00 
freq.    1559.47  E(vib)   ...       0.00 
freq.    1590.92  E(vib)   ...       0.00 
freq.    1651.80  E(vib)   ...       0.00 
freq.    1678.70  E(vib)   ...       0.00 
freq.    1685.98  E(vib)   ...       0.00 
freq.    1737.08  E(vib)   ...       0.00 
freq.    2594.30  E(vib)   ...       0.00 
freq.    3065.01  E(vib)   ...       0.00 
freq.    3084.68  E(vib)   ...       0.00 
freq.    3088.16  E(vib)   ...       0.00 
freq.    3089.24  E(vib)   ...       0.00 
freq.    3094.43  E(vib)   ...       0.00 
freq.    3113.49  E(vib)   ...       0.00 
freq.    3120.42  E(vib)   ...       0.00 
freq.    3133.52  E(vib)   ...       0.00 
freq.    3140.73  E(vib)   ...       0.00 
freq.    3159.08  E(vib)   ...       0.00 
freq.    3165.00  E(vib)   ...       0.00 
freq.    3172.48  E(vib)   ...       0.00 
freq.    3195.69  E(vib)   ...       0.00 
freq.    3196.27  E(vib)   ...       0.00 
freq.    3448.37  E(vib)   ...       0.00 
freq.    3464.21  E(vib)   ...       0.00 
freq.    3526.99  E(vib)   ...       0.00 
freq.    3694.11  E(vib)   ...       0.00 

------------
INNER ENERGY
------------

The inner energy is: U= E(el) + E(ZPE) + E(vib) + E(rot) + E(trans)
    E(el)   - is the total energy from the electronic structure calculation
              = E(kin-el) + E(nuc-el) + E(el-el) + E(nuc-nuc)
    E(ZPE)  - the the zero temperature vibrational energy from the frequency calculation
    E(vib)  - the the finite temperature correction to E(ZPE) due to population
              of excited vibrational states
    E(rot)  - is the rotational thermal energy
    E(trans)- is the translational thermal energy

Summary of contributions to the inner energy U:
Electronic energy                ...   -668.86007466 Eh
Zero point energy                ...      0.29388195 Eh     184.41 kcal/mol
Thermal vibrational correction   ...      0.01364965 Eh       8.57 kcal/mol
Thermal rotational correction    ...      0.00141627 Eh       0.89 kcal/mol
Thermal translational correction ...      0.00141627 Eh       0.89 kcal/mol
-----------------------------------------------------------------------
Total thermal energy                   -668.54971052 Eh


Summary of corrections to the electronic energy:
(perhaps to be used in another calculation)
Total thermal correction                  0.01648219 Eh      10.34 kcal/mol
Non-thermal (ZPE) correction              0.29388195 Eh     184.41 kcal/mol
-----------------------------------------------------------------------
Total correction                          0.31036414 Eh     194.76 kcal/mol


--------
ENTHALPY
--------

The enthalpy is H = U + kB*T
                kB is Boltzmann's constant
Total free energy                 ...   -668.54971052 Eh 
Thermal Enthalpy correction       ...      0.00094421 Eh       0.59 kcal/mol
-----------------------------------------------------------------------
Total Enthalpy                    ...   -668.54876632 Eh


Note: Only C1 symmetry has been detected, increase convergence thresholds 
      if your molecule has a higher symmetry. Symmetry factor of 1.0 is   
      used for the rotational entropy correction. 
 

Note: Rotational entropy computed according to Herzberg 
Infrared and Raman Spectra, Chapter V,1, Van Nostrand Reinhold, 1945 
Point Group:  C1, Symmetry Number:   1  
Rotational constants in cm-1:     0.028144     0.014468     0.009975 

Vibrational entropy computed according to the QRRHO of S. Grimme
Chem.Eur.J. 2012 18 9955


-------
ENTROPY
-------

The entropy contributions are T*S = T*(S(el)+S(vib)+S(rot)+S(trans))
     S(el)   - electronic entropy
     S(vib)  - vibrational entropy
     S(rot)  - rotational entropy
     S(trans)- translational entropy
The entropies will be listed as multiplied by the temperature to get
units of energy

Electronic entropy                ...      0.00065446 Eh      0.41 kcal/mol
Vibrational entropy               ...      0.02473570 Eh     15.52 kcal/mol
Rotational entropy                ...      0.01537132 Eh      9.65 kcal/mol
Translational entropy             ...      0.01986189 Eh     12.46 kcal/mol
-----------------------------------------------------------------------
Final entropy term                ...      0.06062337 Eh     38.04 kcal/mol

In case the symmetry of your molecule has not been determined correctly
or in case you have a reason to use a different symmetry number we print 
out the resulting rotational entropy values for sn=1,12 :
 --------------------------------------------------------
|  sn= 1 | S(rot)=       0.01537132 Eh      9.65 kcal/mol|
|  sn= 2 | S(rot)=       0.01471686 Eh      9.23 kcal/mol|
|  sn= 3 | S(rot)=       0.01433403 Eh      8.99 kcal/mol|
|  sn= 4 | S(rot)=       0.01406240 Eh      8.82 kcal/mol|
|  sn= 5 | S(rot)=       0.01385171 Eh      8.69 kcal/mol|
|  sn= 6 | S(rot)=       0.01367957 Eh      8.58 kcal/mol|
|  sn= 7 | S(rot)=       0.01353402 Eh      8.49 kcal/mol|
|  sn= 8 | S(rot)=       0.01340795 Eh      8.41 kcal/mol|
|  sn= 9 | S(rot)=       0.01329674 Eh      8.34 kcal/mol|
|  sn=10 | S(rot)=       0.01319726 Eh      8.28 kcal/mol|
|  sn=11 | S(rot)=       0.01310727 Eh      8.22 kcal/mol|
|  sn=12 | S(rot)=       0.01302511 Eh      8.17 kcal/mol|
 --------------------------------------------------------


-------------------
GIBBS FREE ENERGY
-------------------

The Gibbs free energy is G = H - T*S

Total enthalpy                    ...   -668.54876632 Eh 
Total entropy correction          ...     -0.06062337 Eh    -38.04 kcal/mol
-----------------------------------------------------------------------
Final Gibbs free energy         ...   -668.60938968 Eh

For completeness - the Gibbs free energy minus the electronic energy
G-E(el)                           ...      0.25068498 Eh    157.31 kcal/mol


Timings for individual modules:

Sum of individual times         ...     1995.426 sec (=  33.257 min)
GTO integral calculation        ...       46.474 sec (=   0.775 min)   2.3 %
SCF iterations                  ...      822.020 sec (=  13.700 min)  41.2 %
SCF Gradient evaluation         ...      223.061 sec (=   3.718 min)  11.2 %
Geometry relaxation             ...        0.806 sec (=   0.013 min)   0.0 %
Analytical frequency calculation...      903.065 sec (=  15.051 min)  45.3 %
                             ****ORCA TERMINATED NORMALLY****
TOTAL RUN TIME: 0 days 0 hours 33 minutes 55 seconds 19 msec
