33
Energy: -668.571231746
N      -7.695462000000000      1.309024000000000     -0.026120000000000
C      -6.423234000000000      1.454310000000000      0.476754000000000
C      -6.133171000000000      0.376526000000000      1.461011000000000
O      -6.983128000000000     -0.480506000000000      1.672976000000000
C      -5.524112000000000      2.587995000000000      0.086508000000000
C      -5.877411000000000      3.917409000000000      0.812881000000000
C      -5.189163000000000      5.162473000000000      0.205164000000000
C      -6.031285000000000      5.912554000000000     -0.833387000000000
N      -6.356067000000000      5.063177000000000     -2.029116000000000
H      -5.568773000000000      2.709265000000000     -1.002334000000000
H      -4.483743000000000      2.324502000000000      0.311803000000000
H      -5.581762000000000      3.816823000000000      1.863792000000000
H      -6.966035000000000      4.058861000000000      0.812354000000000
H      -4.210485000000000      4.897669000000000     -0.223248000000000
H      -4.983980000000000      5.895072000000000      0.995843000000000
H      -5.510648000000000      6.804876000000000     -1.196388000000000
H      -6.994651000000000      6.215802000000000     -0.408555000000000
H      -6.893706000000000      5.592849000000000     -2.719130000000000
H      -6.944383000000000      4.221925000000000     -1.758167000000000
H      -8.132428000000001      0.474557000000000      0.373707000000000
C      -8.407323999999999      2.039111000000000     -0.915330000000000
N      -4.939011000000000      0.382158000000000      2.092602000000000
H      -4.259755000000000      1.098537000000000      1.903755000000000
O      -7.979104000000000      3.069870000000000     -1.447207000000000
H      -5.505208000000000      4.735493000000000     -2.491179000000000
C      -4.612665000000000     -0.658183000000000      3.055585000000000
H      -4.634127000000000     -1.643282000000000      2.575542000000000
H      -3.612533000000000     -0.468285000000000      3.453872000000000
H      -5.338861000000000     -0.659827000000000      3.876435000000000
C      -9.792094000000001      1.529552000000000     -1.241763000000000
H      -9.834802000000000      1.297407000000000     -2.312936000000000
H     -10.070402000000000      0.642046000000000     -0.667089000000000
H     -10.512786999999999      2.332546000000000     -1.047999000000000
