
                                 *****************
                                 * O   R   C   A *
                                 *****************

                                            #,                                       
                                            ###                                      
                                            ####                                     
                                            #####                                    
                                            ######                                   
                                           ########,                                 
                                     ,,################,,,,,                         
                               ,,#################################,,                 
                          ,,##########################################,,             
                       ,#########################################, ''#####,          
                    ,#############################################,,   '####,        
                  ,##################################################,,,,####,       
                ,###########''''           ''''###############################       
              ,#####''   ,,,,##########,,,,          '''####'''          '####       
            ,##' ,,,,###########################,,,                        '##       
           ' ,,###''''                  '''############,,,                           
         ,,##''                                '''############,,,,        ,,,,,,###''
      ,#''                                            '''#######################'''  
     '                                                          ''''####''''         
             ,#######,   #######,   ,#######,      ##                                
            ,#'     '#,  ##    ##  ,#'     '#,    #''#        ######   ,####,        
            ##       ##  ##   ,#'  ##            #'  '#       #        #'  '#        
            ##       ##  #######   ##           ,######,      #####,   #    #        
            '#,     ,#'  ##    ##  '#,     ,#' ,#      #,         ##   #,  ,#        
             '#######'   ##     ##  '#######'  #'      '#     #####' # '####'        



                  #######################################################
                  #                        -***-                        #
                  #          Department of theory and spectroscopy      #
                  #    Directorship and core code : Frank Neese         #
                  #        Max Planck Institute fuer Kohlenforschung    #
                  #                Kaiser Wilhelm Platz 1               #
                  #                 D-45470 Muelheim/Ruhr               #
                  #                      Germany                        #
                  #                                                     #
                  #                  All rights reserved                #
                  #                        -***-                        #
                  #######################################################


                         Program Version 5.0.4 -  RELEASE  -


 With contributions from (in alphabetic order):
   Daniel Aravena         : Magnetic Suceptibility
   Michael Atanasov       : Ab Initio Ligand Field Theory (pilot matlab implementation)
   Alexander A. Auer      : GIAO ZORA, VPT2 properties, NMR spectrum
   Ute Becker             : Parallelization
   Giovanni Bistoni       : ED, misc. LED, open-shell LED, HFLD
   Martin Brehm           : Molecular dynamics
   Dmytro Bykov           : SCF Hessian
   Vijay G. Chilkuri      : MRCI spin determinant printing, contributions to CSF-ICE
   Dipayan Datta          : RHF DLPNO-CCSD density
   Achintya Kumar Dutta   : EOM-CC, STEOM-CC
   Dmitry Ganyushin       : Spin-Orbit,Spin-Spin,Magnetic field MRCI
   Miquel Garcia          : C-PCM and meta-GGA Hessian, CC/C-PCM, Gaussian charge scheme
   Yang Guo               : DLPNO-NEVPT2, F12-NEVPT2, CIM, IAO-localization
   Andreas Hansen         : Spin unrestricted coupled pair/coupled cluster methods
   Benjamin Helmich-Paris : MC-RPA, TRAH-SCF, COSX integrals
   Lee Huntington         : MR-EOM, pCC
   Robert Izsak           : Overlap fitted RIJCOSX, COSX-SCS-MP3, EOM
   Marcus Kettner         : VPT2
   Christian Kollmar      : KDIIS, OOCD, Brueckner-CCSD(T), CCSD density, CASPT2, CASPT2-K
   Simone Kossmann        : Meta GGA functionals, TD-DFT gradient, OOMP2, MP2 Hessian
   Martin Krupicka        : Initial AUTO-CI
   Lucas Lang             : DCDCAS
   Marvin Lechner         : AUTO-CI (C++ implementation), FIC-MRCC
   Dagmar Lenk            : GEPOL surface, SMD
   Dimitrios Liakos       : Extrapolation schemes; Compound Job, initial MDCI parallelization
   Dimitrios Manganas     : Further ROCIS development; embedding schemes
   Dimitrios Pantazis     : SARC Basis sets
   Anastasios Papadopoulos: AUTO-CI, single reference methods and gradients
   Taras Petrenko         : DFT Hessian,TD-DFT gradient, ASA, ECA, R-Raman, ABS, FL, XAS/XES, NRVS
   Peter Pinski           : DLPNO-MP2, DLPNO-MP2 Gradient
   Christoph Reimann      : Effective Core Potentials
   Marius Retegan         : Local ZFS, SOC
   Christoph Riplinger    : Optimizer, TS searches, QM/MM, DLPNO-CCSD(T), (RO)-DLPNO pert. Triples
   Tobias Risthaus        : Range-separated hybrids, TD-DFT gradient, RPA, STAB
   Michael Roemelt        : Original ROCIS implementation
   Masaaki Saitow         : Open-shell DLPNO-CCSD energy and density
   Barbara Sandhoefer     : DKH picture change effects
   Avijit Sen             : IP-ROCIS
   Kantharuban Sivalingam : CASSCF convergence, NEVPT2, FIC-MRCI
   Bernardo de Souza      : ESD, SOC TD-DFT
   Georgi Stoychev        : AutoAux, RI-MP2 NMR, DLPNO-MP2 response
   Willem Van den Heuvel  : Paramagnetic NMR
   Boris Wezisla          : Elementary symmetry handling
   Frank Wennmohs         : Technical directorship


 We gratefully acknowledge several colleagues who have allowed us to
 interface, adapt or use parts of their codes:
   Stefan Grimme, W. Hujo, H. Kruse, P. Pracht,  : VdW corrections, initial TS optimization,
                  C. Bannwarth, S. Ehlert          DFT functionals, gCP, sTDA/sTD-DF
   Ed Valeev, F. Pavosevic, A. Kumar             : LibInt (2-el integral package), F12 methods
   Garnet Chan, S. Sharma, J. Yang, R. Olivares  : DMRG
   Ulf Ekstrom                                   : XCFun DFT Library
   Mihaly Kallay                                 : mrcc  (arbitrary order and MRCC methods)
   Jiri Pittner, Ondrej Demel                    : Mk-CCSD
   Frank Weinhold                                : gennbo (NPA and NBO analysis)
   Christopher J. Cramer and Donald G. Truhlar   : smd solvation model
   Lars Goerigk                                  : TD-DFT with DH, B97 family of functionals
   V. Asgeirsson, H. Jonsson                     : NEB implementation
   FAccTs GmbH                                   : IRC, NEB, NEB-TS, DLPNO-Multilevel, CI-OPT
                                                   MM, QMMM, 2- and 3-layer-ONIOM, Crystal-QMMM,
                                                   LR-CPCM, SF, NACMEs, symmetry and pop. for TD-DFT,
                                                   nearIR, NL-DFT gradient (VV10), updates on ESD,
                                                   ML-optimized integration grids
   S Lehtola, MJT Oliveira, MAL Marques          : LibXC Library
   Liviu Ungur et al                             : ANISO software


 Your calculation uses the libint2 library for the computation of 2-el integrals
 For citations please refer to: http://libint.valeyev.net

 Your ORCA version has been built with support for libXC version: 5.1.0
 For citations please refer to: https://tddft.org/programs/libxc/

 This ORCA versions uses:
   CBLAS   interface :  Fast vector & matrix operations
   LAPACKE interface :  Fast linear algebra routines
   SCALAPACK package :  Parallel linear algebra routines
   Shared memory     :  Shared parallel matrices
   BLAS/LAPACK       :  OpenBLAS 0.3.15  USE64BITINT DYNAMIC_ARCH NO_AFFINITY Zen SINGLE_THREADED
        Core in use  :  Zen
   Copyright (c) 2011-2014, The OpenBLAS Project




***************************************
The coordinates will be read from file: model.xyz
***************************************


================================================================================

----- Orbital basis set information -----
Your calculation utilizes the basis: EPR-II
   V. Barone, in Recent Advances in Density Functional Methods, Part 1 (ed. D. P. Chong), World Scientific, Singapore, 1995, p. 287.

----- AuxJ basis set information -----
Your calculation utilizes the auxiliary basis: def2/J
   F. Weigend, Phys. Chem. Chem. Phys. 8, 1057 (2006).

================================================================================
                                        WARNINGS
                       Please study these warnings very carefully!
================================================================================


WARNING: your system is open-shell and RHF/RKS was chosen
  ===> : WILL SWITCH to UHF/UKS


WARNING: Geometry Optimization
  ===> : Switching off AutoStart
         For restart on a previous wavefunction, please use MOREAD

INFO   : the flag for use of the SHARK integral package has been found!

================================================================================
                                       INPUT FILE
================================================================================
NAME = opt.inp
|  1> ! B3LYP EPR-II OPT
|  2> %pal nprocs 16 end
|  3> *XYZFile 1 2 model.xyz
|  4> 
|  5>                          ****END OF INPUT****
================================================================================

                       *****************************
                       * Geometry Optimization Run *
                       *****************************

Geometry optimization settings:
Update method            Update   .... BFGS
Choice of coordinates    CoordSys .... Z-matrix Internals
Initial Hessian          InHess   .... Almoef's Model

Convergence Tolerances:
Energy Change            TolE     ....  5.0000e-06 Eh
Max. Gradient            TolMAXG  ....  3.0000e-04 Eh/bohr
RMS Gradient             TolRMSG  ....  1.0000e-04 Eh/bohr
Max. Displacement        TolMAXD  ....  4.0000e-03 bohr
RMS Displacement         TolRMSD  ....  2.0000e-03 bohr
Strict Convergence                ....  False
------------------------------------------------------------------------------
                        ORCA OPTIMIZATION COORDINATE SETUP
------------------------------------------------------------------------------

The optimization will be done in new redundant internal coordinates
Making redundant internal coordinates   ...  (new redundants) done
Evaluating the initial hessian          ...  (Almloef) done
Evaluating the coordinates              ...  done
Calculating the B-matrix                .... done
Calculating the G-matrix                .... done
Diagonalizing the G-matrix              .... done
Small eigenvalue found = 3.992e-03
Small eigenvalue found = 6.802e-03
Small eigenvalue found = 1.049e-02
Small eigenvalue found = 1.587e-02
Small eigenvalue found = 1.705e-02
The first mode is                       ....   66
The number of degrees of freedom        ....   93

    -----------------------------------------------------------------
                    Redundant Internal Coordinates


    -----------------------------------------------------------------
         Definition                    Initial Value    Approx d2E/dq
    -----------------------------------------------------------------
      1. B(C   1,N   0)                  1.3757         0.589777   
      2. B(C   2,C   1)                  1.4881         0.435698   
      3. B(O   3,C   2)                  1.2255         1.024044   
      4. B(C   4,C   1)                  1.4987         0.419173   
      5. B(C   5,C   4)                  1.5556         0.340088   
      6. B(C   6,C   5)                  1.5470         0.350966   
      7. B(C   7,C   6)                  1.5331         0.369352   
      8. B(N   8,C   7)                  1.5022         0.370528   
      9. B(H   9,C   4)                  1.0965         0.351623   
     10. B(H  10,C   4)                  1.0966         0.351461   
     11. B(H  11,C   5)                  1.0963         0.351823   
     12. B(H  12,C   5)                  1.0978         0.349959   
     13. B(H  13,C   6)                  1.1007         0.346261   
     14. B(H  14,C   6)                  1.0973         0.350626   
     15. B(H  15,C   7)                  1.0950         0.353519   
     16. B(H  16,C   7)                  1.0957         0.352663   
     17. B(H  17,N   8)                  1.0226         0.413123   
     18. B(H  18,N   8)                  1.0617         0.357841   
     19. B(H  19,N   0)                  1.0233         0.412079   
     20. B(C  20,N   0)                  1.3529         0.641194   
     21. B(N  21,C   2)                  1.3509         0.646013   
     22. B(H  22,N  21)                  1.0051         0.440548   
     23. B(O  23,C  20)                  1.2364         0.983797   
     24. B(H  24,N   8)                  1.0222         0.413782   
     25. B(C  25,N  21)                  1.4547         0.441218   
     26. B(H  26,C  25)                  1.0960         0.352187   
     27. B(H  27,C  25)                  1.0931         0.355968   
     28. B(H  28,C  25)                  1.0960         0.352284   
     29. B(C  29,C  20)                  1.5112         0.400252   
     30. B(H  30,C  29)                  1.0969         0.351124   
     31. B(H  31,C  29)                  1.0933         0.355720   
     32. B(H  32,C  29)                  1.0962         0.351939   
     33. A(C   1,N   0,C  20)          132.0546         0.427156   
     34. A(C   1,N   0,H  19)          109.7669         0.352704   
     35. A(H  19,N   0,C  20)          118.1753         0.357740   
     36. A(N   0,C   1,C   2)          110.2148         0.401410   
     37. A(N   0,C   1,C   4)          122.6518         0.398688   
     38. A(C   2,C   1,C   4)          127.0970         0.380574   
     39. A(O   3,C   2,N  21)          122.3529         0.472787   
     40. A(C   1,C   2,O   3)          119.0587         0.442967   
     41. A(C   1,C   2,N  21)          118.5881         0.407917   
     42. A(C   1,C   4,H   9)          108.5306         0.329235   
     43. A(H   9,C   4,H  10)          105.6185         0.288654   
     44. A(C   1,C   4,H  10)          109.5070         0.329209   
     45. A(C   1,C   4,C   5)          112.8698         0.364674   
     46. A(C   5,C   4,H  10)          108.9586         0.318107   
     47. A(C   5,C   4,H   9)          111.0957         0.318131   
     48. A(C   6,C   5,H  11)          109.2948         0.319799   
     49. A(C   4,C   5,H  11)          107.9357         0.318160   
     50. A(C   4,C   5,C   6)          113.7872         0.353813   
     51. A(H  11,C   5,H  12)          106.2426         0.288486   
     52. A(C   6,C   5,H  12)          109.7120         0.319522   
     53. A(C   4,C   5,H  12)          109.5800         0.317885   
     54. A(C   5,C   6,C   7)          114.5513         0.358807   
     55. A(C   5,C   6,H  14)          109.7229         0.319621   
     56. A(H  13,C   6,H  14)          105.9522         0.287853   
     57. A(C   7,C   6,H  14)          105.3196         0.322302   
     58. A(C   7,C   6,H  13)          110.0263         0.321641   
     59. A(C   5,C   6,H  13)          110.7848         0.318968   
     60. A(H  15,C   7,H  16)          108.7259         0.289051   
     61. A(N   8,C   7,H  16)          105.9632         0.320853   
     62. A(C   6,C   7,H  16)          110.8372         0.322608   
     63. A(C   6,C   7,H  15)          111.2287         0.322736   
     64. A(N   8,C   7,H  15)          107.4382         0.320980   
     65. A(C   6,C   7,N   8)          112.4162         0.359892   
     66. A(H  17,N   8,H  18)          106.9344         0.292099   
     67. A(C   7,N   8,H  18)          111.3876         0.318908   
     68. A(C   7,N   8,H  17)          110.9709         0.326506   
     69. A(H  18,N   8,H  24)          108.8203         0.292173   
     70. A(H  17,N   8,H  24)          107.3775         0.298887   
     71. A(C   7,N   8,H  24)          111.1679         0.326592   
     72. A(O  23,C  20,C  29)          120.3670         0.433097   
     73. A(N   0,C  20,C  29)          116.2407         0.401321   
     74. A(N   0,C  20,O  23)          123.3922         0.468676   
     75. A(H  22,N  21,C  25)          118.8480         0.339701   
     76. A(C   2,N  21,C  25)          120.3196         0.406195   
     77. A(C   2,N  21,H  22)          120.8315         0.362297   
     78. A(H  27,C  25,H  28)          109.4874         0.289316   
     79. A(H  26,C  25,H  28)          108.2828         0.288832   
     80. A(N  21,C  25,H  28)          110.3790         0.330140   
     81. A(H  26,C  25,H  27)          109.4889         0.289303   
     82. A(N  21,C  25,H  27)          108.7966         0.330709   
     83. A(N  21,C  25,H  26)          110.3920         0.330125   
     84. A(H  31,C  29,H  32)          109.5330         0.289240   
     85. A(H  30,C  29,H  32)          107.5803         0.288651   
     86. A(C  20,C  29,H  32)          108.4965         0.326785   
     87. A(H  30,C  29,H  31)          109.3654         0.289134   
     88. A(C  20,C  29,H  31)          113.1675         0.327360   
     89. A(C  20,C  29,H  30)          108.5411         0.326660   
     90. D(C   2,C   1,N   0,H  19)     -1.8212         0.027961   
     91. D(C   2,C   1,N   0,C  20)    178.8542         0.027961   
     92. D(C   4,C   1,N   0,H  19)   -179.7692         0.027961   
     93. D(C   4,C   1,N   0,C  20)      0.9063         0.027961   
     94. D(O   3,C   2,C   1,C   4)    179.6821         0.012960   
     95. D(N  21,C   2,C   1,N   0)   -177.9658         0.012960   
     96. D(N  21,C   2,C   1,C   4)     -0.1320         0.012960   
     97. D(O   3,C   2,C   1,N   0)      1.8483         0.012960   
     98. D(H  10,C   4,C   1,C   2)     22.1718         0.012994   
     99. D(H  10,C   4,C   1,N   0)   -160.2427         0.012994   
    100. D(C   5,C   4,C   1,C   2)    -99.3955         0.012994   
    101. D(H   9,C   4,C   1,C   2)    137.0056         0.012994   
    102. D(H   9,C   4,C   1,N   0)    -45.4089         0.012994   
    103. D(C   5,C   4,C   1,N   0)     78.1900         0.012994   
    104. D(C   6,C   5,C   4,C   1)   -166.9325         0.009364   
    105. D(H  12,C   5,C   4,H   9)     78.4675         0.009364   
    106. D(H  12,C   5,C   4,C   1)    -43.7019         0.009364   
    107. D(H  11,C   5,C   4,H  10)    -50.2908         0.009364   
    108. D(H  11,C   5,C   4,H   9)   -166.2446         0.009364   
    109. D(H  11,C   5,C   4,C   1)     71.5860         0.009364   
    110. D(C   6,C   5,C   4,H  10)     71.1907         0.009364   
    111. D(H  12,C   5,C   4,H  10)   -165.5786         0.009364   
    112. D(C   6,C   5,C   4,H   9)    -44.7631         0.009364   
    113. D(H  14,C   6,C   5,C   4)   -147.7513         0.009920   
    114. D(H  13,C   6,C   5,H  12)   -154.2714         0.009920   
    115. D(H  13,C   6,C   5,H  11)     89.6099         0.009920   
    116. D(H  13,C   6,C   5,C   4)    -31.1127         0.009920   
    117. D(C   7,C   6,C   5,H  12)    -29.0957         0.009920   
    118. D(C   7,C   6,C   5,H  11)   -145.2144         0.009920   
    119. D(H  14,C   6,C   5,H  11)    -27.0287         0.009920   
    120. D(C   7,C   6,C   5,C   4)     94.0629         0.009920   
    121. D(H  14,C   6,C   5,H  12)     89.0900         0.009920   
    122. D(H  16,C   7,C   6,H  14)    -64.0982         0.010908   
    123. D(H  16,C   7,C   6,H  13)   -177.8733         0.010908   
    124. D(H  16,C   7,C   6,C   5)     56.5536         0.010908   
    125. D(H  15,C   7,C   6,H  14)     56.9904         0.010908   
    126. D(H  15,C   7,C   6,H  13)    -56.7847         0.010908   
    127. D(H  15,C   7,C   6,C   5)    177.6422         0.010908   
    128. D(N   8,C   7,C   6,H  14)    177.5216         0.010908   
    129. D(N   8,C   7,C   6,H  13)     63.7465         0.010908   
    130. D(N   8,C   7,C   6,C   5)    -61.8266         0.010908   
    131. D(H  24,N   8,C   7,H  16)    179.9083         0.012592   
    132. D(H  24,N   8,C   7,H  15)     63.8136         0.012592   
    133. D(H  24,N   8,C   7,C   6)    -58.8788         0.012592   
    134. D(H  18,N   8,C   7,H  16)    -58.5455         0.012592   
    135. D(H  18,N   8,C   7,H  15)   -174.6402         0.012592   
    136. D(H  18,N   8,C   7,C   6)     62.6673         0.012592   
    137. D(H  17,N   8,C   7,H  16)     60.4749         0.012592   
    138. D(H  17,N   8,C   7,H  15)    -55.6198         0.012592   
    139. D(H  17,N   8,C   7,C   6)   -178.3123         0.012592   
    140. D(C  29,C  20,N   0,H  19)     -0.6157         0.033474   
    141. D(C  29,C  20,N   0,C   1)    178.6632         0.033474   
    142. D(O  23,C  20,N   0,H  19)    179.2947         0.033474   
    143. D(O  23,C  20,N   0,C   1)     -1.4264         0.033474   
    144. D(C  25,N  21,C   2,O   3)      0.5844         0.034022   
    145. D(C  25,N  21,C   2,C   1)   -179.6080         0.034022   
    146. D(H  22,N  21,C   2,O   3)   -179.7606         0.034022   
    147. D(H  22,N  21,C   2,C   1)      0.0470         0.034022   
    148. D(H  28,C  25,N  21,C   2)    -59.4460         0.016601   
    149. D(H  27,C  25,N  21,H  22)      0.7360         0.016601   
    150. D(H  27,C  25,N  21,C   2)   -179.6022         0.016601   
    151. D(H  26,C  25,N  21,H  22)   -119.4300         0.016601   
    152. D(H  26,C  25,N  21,C   2)     60.2318         0.016601   
    153. D(H  28,C  25,N  21,H  22)    120.8922         0.016601   
    154. D(H  32,C  29,C  20,O  23)    -55.1715         0.011888   
    155. D(H  32,C  29,C  20,N   0)    124.7418         0.011888   
    156. D(H  31,C  29,C  20,O  23)   -176.9503         0.011888   
    157. D(H  31,C  29,C  20,N   0)      2.9630         0.011888   
    158. D(H  30,C  29,C  20,O  23)     61.4522         0.011888   
    159. D(H  30,C  29,C  20,N   0)   -118.6345         0.011888   
    -----------------------------------------------------------------

Number of atoms                         .... 33
Number of degrees of freedom            .... 159

         *************************************************************
         *                GEOMETRY OPTIMIZATION CYCLE   1            *
         *************************************************************
---------------------------------
CARTESIAN COORDINATES (ANGSTROEM)
---------------------------------
  N     -7.695462    1.309024   -0.026120
  C     -6.423234    1.454310    0.476754
  C     -6.133171    0.376526    1.461011
  O     -6.983128   -0.480506    1.672976
  C     -5.524112    2.587995    0.086508
  C     -5.877411    3.917409    0.812881
  C     -5.189163    5.162473    0.205164
  C     -6.031285    5.912554   -0.833387
  N     -6.356067    5.063177   -2.029116
  H     -5.568773    2.709265   -1.002334
  H     -4.483743    2.324502    0.311803
  H     -5.581762    3.816823    1.863792
  H     -6.966035    4.058861    0.812354
  H     -4.210485    4.897669   -0.223248
  H     -4.983980    5.895072    0.995843
  H     -5.510648    6.804876   -1.196388
  H     -6.994651    6.215802   -0.408555
  H     -6.893706    5.592849   -2.719130
  H     -6.944383    4.221925   -1.758167
  H     -8.132428    0.474557    0.373707
  C     -8.407324    2.039111   -0.915330
  N     -4.939011    0.382158    2.092602
  H     -4.259755    1.098537    1.903755
  O     -7.979104    3.069870   -1.447207
  H     -5.505208    4.735493   -2.491179
  C     -4.612665   -0.658183    3.055585
  H     -4.634127   -1.643282    2.575542
  H     -3.612533   -0.468285    3.453872
  H     -5.338861   -0.659827    3.876435
  C     -9.792094    1.529552   -1.241763
  H     -9.834802    1.297407   -2.312936
  H    -10.070402    0.642046   -0.667089
  H    -10.512787    2.332546   -1.047999

----------------------------
CARTESIAN COORDINATES (A.U.)
----------------------------
  NO LB      ZA    FRAG     MASS         X           Y           Z
   0 N     7.0000    0    14.007  -14.542316    2.473697   -0.049360
   1 C     6.0000    0    12.011  -12.138153    2.748248    0.900934
   2 C     6.0000    0    12.011  -11.590014    0.711531    2.760911
   3 O     8.0000    0    15.999  -13.196199   -0.908025    3.161466
   4 C     6.0000    0    12.011  -10.439059    4.890602    0.163476
   5 C     6.0000    0    12.011  -11.106697    7.402830    1.536122
   6 C     6.0000    0    12.011   -9.806097    9.755660    0.387704
   7 C     6.0000    0    12.011  -11.397477   11.173108   -1.574873
   8 N     7.0000    0    14.007  -12.011226    9.568018   -3.834474
   9 H     1.0000    0     1.008  -10.523456    5.119769   -1.894137
  10 H     1.0000    0     1.008   -8.473046    4.392672    0.589222
  11 H     1.0000    0     1.008  -10.548002    7.212750    3.522056
  12 H     1.0000    0     1.008  -13.163898    7.670136    1.535127
  13 H     1.0000    0     1.008   -7.956664    9.255253   -0.421878
  14 H     1.0000    0     1.008   -9.418357   11.140072    1.881871
  15 H     1.0000    0     1.008  -10.413616   12.859352   -2.260846
  16 H     1.0000    0     1.008  -13.217975   11.746163   -0.772057
  17 H     1.0000    0     1.008  -13.027216   10.568953   -5.138411
  18 H     1.0000    0     1.008  -13.122982    7.978282   -3.322454
  19 H     1.0000    0     1.008  -15.368062    0.896783    0.706204
  20 C     6.0000    0    12.011  -15.887540    3.853361   -1.729723
  21 N     7.0000    0    14.007   -9.333378    0.722174    3.954445
  22 H     1.0000    0     1.008   -8.049770    2.075934    3.597576
  23 O     8.0000    0    15.999  -15.078321    5.801214   -2.734825
  24 H     1.0000    0     1.008  -10.403335    8.948785   -4.707646
  25 C     6.0000    0    12.011   -8.716674   -1.243786    5.774219
  26 H     1.0000    0     1.008   -8.757231   -3.105353    4.867069
  27 H     1.0000    0     1.008   -6.826698   -0.884930    6.526872
  28 H     1.0000    0     1.008  -10.088985   -1.246892    7.325401
  29 C     6.0000    0    12.011  -18.504376    2.890434   -2.346592
  30 H     1.0000    0     1.008  -18.585082    2.451744   -4.370816
  31 H     1.0000    0     1.008  -19.030302    1.213291   -1.260616
  32 H     1.0000    0     1.008  -19.866288    4.407873   -1.980431

--------------------------------
INTERNAL COORDINATES (ANGSTROEM)
--------------------------------
 N      0   0   0     0.000000000000     0.00000000     0.00000000
 C      1   0   0     1.375701408612     0.00000000     0.00000000
 C      2   1   0     1.488125242268   110.21481012     0.00000000
 O      3   2   1     1.225503942098   119.05869035     1.84830789
 C      2   1   3     1.498650723359   122.65182724   182.05205683
 C      5   2   1     1.555564046231   112.86984249    78.19003910
 C      6   5   2     1.546993738090   113.78720435   193.06748137
 C      7   6   5     1.533094631471   114.55130944    94.06293512
 N      8   7   6     1.502229169299   112.41620861   298.17339169
 H      5   2   1     1.096484344979   108.53061473   314.59111476
 H      5   2   1     1.096610256306   109.50702706   199.75729377
 H      6   5   2     1.096330153064   107.93569208    71.58598720
 H      6   5   2     1.097775550561   109.57998348   316.29814092
 H      7   6   5     1.100667355673   110.78484026   328.88725118
 H      7   6   5     1.097257781622   109.72286492   212.24868182
 H      8   7   6     1.095021079000   111.22870780   177.64219557
 H      8   7   6     1.095680440495   110.83723435    56.55358557
 H      9   8   7     1.022608156676   110.97092262   181.68770747
 H      9   8   7     1.061712769049   111.38757238    62.66732325
 H      1   2   3     1.023296677007   109.76693787   358.17878537
 C      1   2   3     1.352948246872   132.05464899   178.85421555
 N      3   2   1     1.350909699538   118.58812775   182.03422996
 H     22   3   2     1.005112319388   120.83149183     0.04704771
 O     21   1   2     1.236418063444   123.39224842   358.57364664
 H      9   8   7     1.022174181686   111.16785604   301.12118159
 C     22   3   2     1.454698376395   120.31961913   180.39200279
 H     26  22   3     1.096048328813   110.39200425    60.23178930
 H     26  22   3     1.093141254458   108.79657704   180.39784487
 H     26  22   3     1.095973565216   110.37897135   300.55404718
 C     21   1   2     1.511223620405   116.24073689   178.66322657
 H     30  21   1     1.096871400948   108.54114261   241.36551725
 H     30  21   1     1.093330896470   113.16753064     2.96297329
 H     30  21   1     1.096240052170   108.49646631   124.74176953

---------------------------
INTERNAL COORDINATES (A.U.)
---------------------------
 N      0   0   0     0.000000000000     0.00000000     0.00000000
 C      1   0   0     2.599698904326     0.00000000     0.00000000
 C      2   1   0     2.812149160861   110.21481012     0.00000000
 O      3   2   1     2.315866826606   119.05869035     1.84830789
 C      2   1   3     2.832039437552   122.65182724   182.05205683
 C      5   2   1     2.939590031151   112.86984249    78.19003910
 C      6   5   2     2.923394495881   113.78720435   193.06748137
 C      7   6   5     2.897128990866   114.55130944    94.06293512
 N      8   7   6     2.838801720364   112.41620861   298.17339169
 H      5   2   1     2.072055122143   108.53061473   314.59111476
 H      5   2   1     2.072293060067   109.50702706   199.75729377
 H      6   5   2     2.071763741652   107.93569208    71.58598720
 H      6   5   2     2.074495147074   109.57998348   316.29814092
 H      7   6   5     2.079959866769   110.78484026   328.88725118
 H      7   6   5     2.073516705580   109.72286492   212.24868182
 H      8   7   6     2.069289950181   111.22870780   177.64219557
 H      8   7   6     2.070535962830   110.83723435    56.55358557
 H      9   8   7     1.932449358432   110.97092262   181.68770747
 H      9   8   7     2.006346366389   111.38757238    62.66732325
 H      1   2   3     1.933750473295   109.76693787   358.17878537
 C      1   2   3     2.556701659956   132.05464899   178.85421555
 N      3   2   1     2.552849363784   118.58812775   182.03422996
 H     22   3   2     1.899387017474   120.83149183     0.04704771
 O     21   1   2     2.336491526942   123.39224842   358.57364664
 H      9   8   7     1.931629264552   111.16785604   301.12118159
 C     22   3   2     2.748981538846   120.31961913   180.39200279
 H     26  22   3     2.071231170999   110.39200425    60.23178930
 H     26  22   3     2.065737596616   108.79657704   180.39784487
 H     26  22   3     2.071089888275   110.37897135   300.55404718
 C     21   1   2     2.855798769678   116.24073689   178.66322657
 H     30  21   1     2.072786551923   108.54114261   241.36551725
 H     30  21   1     2.066095968083   113.16753064     2.96297329
 H     30  21   1     2.071593475636   108.49646631   124.74176953

---------------------
BASIS SET INFORMATION
---------------------
There are 4 groups of distinct atoms

 Group   1 Type N   : 10s5p1d contracted to 6s2p1d pattern {511111/41/1}
 Group   2 Type C   : 10s5p1d contracted to 6s2p1d pattern {511111/41/1}
 Group   3 Type O   : 10s5p1d contracted to 6s2p1d pattern {511111/41/1}
 Group   4 Type H   : 6s1p contracted to 4s1p pattern {3111/1}

Atom   0N    basis set group =>   1
Atom   1C    basis set group =>   2
Atom   2C    basis set group =>   2
Atom   3O    basis set group =>   3
Atom   4C    basis set group =>   2
Atom   5C    basis set group =>   2
Atom   6C    basis set group =>   2
Atom   7C    basis set group =>   2
Atom   8N    basis set group =>   1
Atom   9H    basis set group =>   4
Atom  10H    basis set group =>   4
Atom  11H    basis set group =>   4
Atom  12H    basis set group =>   4
Atom  13H    basis set group =>   4
Atom  14H    basis set group =>   4
Atom  15H    basis set group =>   4
Atom  16H    basis set group =>   4
Atom  17H    basis set group =>   4
Atom  18H    basis set group =>   4
Atom  19H    basis set group =>   4
Atom  20C    basis set group =>   2
Atom  21N    basis set group =>   1
Atom  22H    basis set group =>   4
Atom  23O    basis set group =>   3
Atom  24H    basis set group =>   4
Atom  25C    basis set group =>   2
Atom  26H    basis set group =>   4
Atom  27H    basis set group =>   4
Atom  28H    basis set group =>   4
Atom  29C    basis set group =>   2
Atom  30H    basis set group =>   4
Atom  31H    basis set group =>   4
Atom  32H    basis set group =>   4
---------------------------------
AUXILIARY/J BASIS SET INFORMATION
---------------------------------
There are 4 groups of distinct atoms

 Group   1 Type N   : 12s5p4d2f1g contracted to 6s4p3d1f1g pattern {711111/2111/211/2/1}
 Group   2 Type C   : 12s5p4d2f1g contracted to 6s4p3d1f1g pattern {711111/2111/211/2/1}
 Group   3 Type O   : 12s5p4d2f1g contracted to 6s4p3d1f1g pattern {711111/2111/211/2/1}
 Group   4 Type H   : 5s2p1d contracted to 3s1p1d pattern {311/2/1}

Atom   0N    basis set group =>   1
Atom   1C    basis set group =>   2
Atom   2C    basis set group =>   2
Atom   3O    basis set group =>   3
Atom   4C    basis set group =>   2
Atom   5C    basis set group =>   2
Atom   6C    basis set group =>   2
Atom   7C    basis set group =>   2
Atom   8N    basis set group =>   1
Atom   9H    basis set group =>   4
Atom  10H    basis set group =>   4
Atom  11H    basis set group =>   4
Atom  12H    basis set group =>   4
Atom  13H    basis set group =>   4
Atom  14H    basis set group =>   4
Atom  15H    basis set group =>   4
Atom  16H    basis set group =>   4
Atom  17H    basis set group =>   4
Atom  18H    basis set group =>   4
Atom  19H    basis set group =>   4
Atom  20C    basis set group =>   2
Atom  21N    basis set group =>   1
Atom  22H    basis set group =>   4
Atom  23O    basis set group =>   3
Atom  24H    basis set group =>   4
Atom  25C    basis set group =>   2
Atom  26H    basis set group =>   4
Atom  27H    basis set group =>   4
Atom  28H    basis set group =>   4
Atom  29C    basis set group =>   2
Atom  30H    basis set group =>   4
Atom  31H    basis set group =>   4
Atom  32H    basis set group =>   4


           ************************************************************
           *        Program running with 16 parallel MPI-processes    *
           *              working on a common directory               *
           ************************************************************
------------------------------------------------------------------------------
                           ORCA GTO INTEGRAL CALCULATION
                           -- RI-GTO INTEGRALS CHOSEN --
------------------------------------------------------------------------------
------------------------------------------------------------------------------
                   ___                                                        
                  /   \      - P O W E R E D   B Y -                         
                 /     \                                                     
                 |  |  |   _    _      __       _____    __    __             
                 |  |  |  | |  | |    /  \     |  _  \  |  |  /  |          
                  \  \/   | |  | |   /    \    | | | |  |  | /  /          
                 / \  \   | |__| |  /  /\  \   | |_| |  |  |/  /          
                |  |  |   |  __  | /  /__\  \  |    /   |      \           
                |  |  |   | |  | | |   __   |  |    \   |  |\   \          
                \     /   | |  | | |  |  |  |  | |\  \  |  | \   \       
                 \___/    |_|  |_| |__|  |__|  |_| \__\ |__|  \__/        
                                                                              
                      - O R C A' S   B I G   F R I E N D -                    
                                      &                                       
                       - I N T E G R A L  F E E D E R -                       
                                                                              
 v1 FN, 2020, v2 2021                                                         
------------------------------------------------------------------------------


Reading SHARK input file opt.SHARKINP.tmp ... ok
----------------------
SHARK INTEGRAL PACKAGE
----------------------

Number of atoms                             ...     33
Number of basis functions                   ...    371
Number of shells                            ...    221
Maximum angular momentum                    ...      2
Integral batch strategy                     ... SHARK/LIBINT Hybrid
RI-J (if used) integral strategy            ... SPLIT-RIJ (Revised 2003 algorithm where possible)
Printlevel                                  ...      1
Contraction scheme used                     ... SEGMENTED contraction
Coulomb Range Separation                    ... NOT USED
Exchange Range Separation                   ... NOT USED
Finite Nucleus Model                        ... NOT USED
Auxiliary Coulomb fitting basis             ... AVAILABLE
   # of basis functions in Aux-J            ...    895
   # of shells in Aux-J                     ...    305
   Maximum angular momentum in Aux-J        ...      4
Auxiliary J/K fitting basis                 ... NOT available
Auxiliary Correlation fitting basis         ... NOT available
Auxiliary 'external' fitting basis          ... NOT available
Integral threshold                          ...     2.500000e-11
Primitive cut-off                           ...     2.500000e-12
Primitive pair pre-selection threshold      ...     2.500000e-12

Calculating pre-screening integrals         ... done (  0.0 sec) Dimension = 221
Organizing shell pair data                  ... done (  0.1 sec)
Shell pair information
Total number of shell pairs                 ...     24531
Shell pairs after pre-screening             ...     16415
Total number of primitive shell pairs       ...     64184
Primitive shell pairs kept                  ...     31320
          la=0 lb=0:   7727 shell pairs
          la=1 lb=0:   5594 shell pairs
          la=1 lb=1:    956 shell pairs
          la=2 lb=0:   1518 shell pairs
          la=2 lb=1:    532 shell pairs
          la=2 lb=2:     88 shell pairs

Calculating one electron integrals          ... done (  0.0 sec)
Calculating RI/J V-Matrix + Cholesky decomp.... done (  0.0 sec)
Calculating Nuclear repulsion               ... done (  0.0 sec) ENN=    966.275692571975 Eh

SHARK setup successfully completed in   0.2 seconds

Maximum memory used throughout the entire GTOINT-calculation: 23.4 MB


           ************************************************************
           *        Program running with 16 parallel MPI-processes    *
           *              working on a common directory               *
           ************************************************************
-------------------------------------------------------------------------------
                                 ORCA SCF
-------------------------------------------------------------------------------

------------
SCF SETTINGS
------------
Hamiltonian:
 Density Functional     Method          .... DFT(GTOs)
 Exchange Functional    Exchange        .... B88
   X-Alpha parameter    XAlpha          ....  0.666667
   Becke's b parameter  XBeta           ....  0.004200
 Correlation Functional Correlation     .... LYP
 LDA part of GGA corr.  LDAOpt          .... VWN-5
 Gradients option       PostSCFGGA      .... off
 Hybrid DFT is turned on
   Fraction HF Exchange ScalHFX         ....  0.200000
   Scaling of DF-GGA-X  ScalDFX         ....  0.720000
   Scaling of DF-GGA-C  ScalDFC         ....  0.810000
   Scaling of DF-LDA-C  ScalLDAC        ....  1.000000
   Perturbative correction              ....  0.000000
   Density functional embedding theory  .... OFF
   NL short-range parameter             ....  4.800000
 RI-approximation to the Coulomb term is turned on
   Number of AuxJ basis functions       .... 895
   RIJ-COSX (HFX calculated with COS-X)).... on


General Settings:
 Integral files         IntName         .... opt
 Hartree-Fock type      HFTyp           .... UHF
 Total Charge           Charge          ....    1
 Multiplicity           Mult            ....    2
 Number of Electrons    NEL             ....  109
 Basis Dimension        Dim             ....  371
 Nuclear Repulsion      ENuc            ....    966.2756925720 Eh

Convergence Acceleration:
 DIIS                   CNVDIIS         .... on
   Start iteration      DIISMaxIt       ....    12
   Startup error        DIISStart       ....  0.200000
   # of expansion vecs  DIISMaxEq       ....     5
   Bias factor          DIISBfac        ....   1.050
   Max. coefficient     DIISMaxC        ....  10.000
 Trust-Rad. Augm. Hess. CNVTRAH         .... auto
   Auto Start mean grad. ratio tolernc. ....  1.125000
   Auto Start start iteration           ....    20
   Auto Start num. interpolation iter.  ....    10
   Max. Number of Micro iterations      ....    16
   Max. Number of Macro iterations      .... Maxiter - #DIIS iter
   Number of Davidson start vectors     ....     2
   Converg. threshold I  (grad. norm)   ....   1.000e-05
   Converg. threshold II (energy diff.) ....   1.000e-08
   Grad. Scal. Fac. for Micro threshold ....   0.100
   Minimum threshold for Micro iter.    ....   0.010
   NR start threshold (gradient norm)   ....   0.001
   Initial trust radius                 ....   0.400
   Minimum AH scaling param. (alpha)    ....   1.000
   Maximum AH scaling param. (alpha)    .... 1000.000
   Orbital update algorithm             .... Taylor
   White noise on init. David. guess    .... on
   Maximum white noise                  ....   0.010
   Quad. conv. algorithm                .... NR
 SOSCF                  CNVSOSCF        .... off
 Level Shifting         CNVShift        .... on
   Level shift para.    LevelShift      ....    0.2500
   Turn off err/grad.   ShiftErr        ....    0.0010
 Zerner damping         CNVZerner       .... off
 Static damping         CNVDamp         .... on
   Fraction old density DampFac         ....    0.7000
   Max. Damping (<1)    DampMax         ....    0.9800
   Min. Damping (>=0)   DampMin         ....    0.0000
   Turn off err/grad.   DampErr         ....    0.1000
 Fernandez-Rico         CNVRico         .... off

SCF Procedure:
 Maximum # iterations   MaxIter         ....   125
 SCF integral mode      SCFMode         .... Direct
   Integral package                     .... SHARK and LIBINT hybrid scheme
 Reset frequency        DirectResetFreq ....    20
 Integral Threshold     Thresh          ....  2.500e-11 Eh
 Primitive CutOff       TCut            ....  2.500e-12 Eh

Convergence Tolerance:
 Convergence Check Mode ConvCheckMode   .... Total+1el-Energy
 Convergence forced     ConvForced      .... 0
 Energy Change          TolE            ....  1.000e-08 Eh
 1-El. energy change                    ....  1.000e-05 Eh
 DIIS Error             TolErr          ....  5.000e-07


Diagonalization of the overlap matrix:
Smallest eigenvalue                        ... 5.800e-04
Time for diagonalization                   ...    0.015 sec
Threshold for overlap eigenvalues          ... 1.000e-08
Number of eigenvalues below threshold      ... 0
Time for construction of square roots      ...    0.012 sec
Total time needed                          ...    0.028 sec

Time for model grid setup =    0.126 sec

------------------------------
INITIAL GUESS: MODEL POTENTIAL
------------------------------
Loading Hartree-Fock densities                     ... done
Calculating cut-offs                               ... done
Initializing the effective Hamiltonian             ... done
Setting up the integral package (SHARK)            ... done
Starting the Coulomb interaction                   ... done (   0.1 sec)
Reading the grid                                   ... done
Mapping shells                                     ... done
Starting the XC term evaluation                    ... done (   0.0 sec)
  promolecular density results
     # of electrons  =    109.984763677
     EX              =    -88.123323908
     EC              =     -3.701482418
     EX+EC           =    -91.824806326
Transforming the Hamiltonian                       ... done (   0.0 sec)
Diagonalizing the Hamiltonian                      ... done (   0.0 sec)
Back transforming the eigenvectors                 ... done (   0.0 sec)
Now organizing SCF variables                       ... done
                      ------------------
                      INITIAL GUESS DONE (   0.3 sec)
                      ------------------
-------------------
DFT GRID GENERATION
-------------------

General Integration Accuracy     IntAcc      ... 4.388
Radial Grid Type                 RadialGrid  ... OptM3 with GC (2021)
Angular Grid (max. ang.)         AngularGrid ... 4 (Lebedev-302)
Angular grid pruning method      GridPruning ... 4 (adaptive)
Weight generation scheme         WeightScheme... Becke
Basis function cutoff            BFCut       ... 1.0000e-11
Integration weight cutoff        WCut        ... 1.0000e-14
Angular grids for H and He will be reduced by one unit
Partially contracted basis set               ... off
Rotationally invariant grid construction     ... off

Total number of grid points                  ...   144531
Total number of batches                      ...     2276
Average number of points per batch           ...       63
Average number of grid points per atom       ...     4380
Time for grid setup =    0.619 sec

--------------------
COSX GRID GENERATION
--------------------

GRIDX 1
-------
General Integration Accuracy     IntAcc      ... 3.816
Radial Grid Type                 RadialGrid  ... OptM3 with GC (2021)
Angular Grid (max. ang.)         AngularGrid ... 1 (Lebedev-50)
Angular grid pruning method      GridPruning ... 4 (adaptive)
Weight generation scheme         WeightScheme... Becke
Basis function cutoff            BFCut       ... 1.0000e-11
Integration weight cutoff        WCut        ... 1.0000e-14
Angular grids for H and He will be reduced by one unit
Partially contracted basis set               ... on
Rotationally invariant grid construction     ... off

Total number of grid points                  ...    18437
Total number of batches                      ...      308
Average number of points per batch           ...       59
Average number of grid points per atom       ...      559
UseSFitting                                  ... on

GRIDX 2
-------
General Integration Accuracy     IntAcc      ... 4.020
Radial Grid Type                 RadialGrid  ... OptM3 with GC (2021)
Angular Grid (max. ang.)         AngularGrid ... 2 (Lebedev-110)
Angular grid pruning method      GridPruning ... 4 (adaptive)
Weight generation scheme         WeightScheme... Becke
Basis function cutoff            BFCut       ... 1.0000e-11
Integration weight cutoff        WCut        ... 1.0000e-14
Angular grids for H and He will be reduced by one unit
Partially contracted basis set               ... on
Rotationally invariant grid construction     ... off

Total number of grid points                  ...    38848
Total number of batches                      ...      625
Average number of points per batch           ...       62
Average number of grid points per atom       ...     1177
UseSFitting                                  ... on

GRIDX 3
-------
General Integration Accuracy     IntAcc      ... 4.338
Radial Grid Type                 RadialGrid  ... OptM3 with GC (2021)
Angular Grid (max. ang.)         AngularGrid ... 3 (Lebedev-194)
Angular grid pruning method      GridPruning ... 4 (adaptive)
Weight generation scheme         WeightScheme... Becke
Basis function cutoff            BFCut       ... 1.0000e-11
Integration weight cutoff        WCut        ... 1.0000e-14
Angular grids for H and He will be reduced by one unit
Partially contracted basis set               ... on
Rotationally invariant grid construction     ... off

Total number of grid points                  ...    84800
Total number of batches                      ...     1339
Average number of points per batch           ...       63
Average number of grid points per atom       ...     2570
UseSFitting                                  ... on

Time for X-Grid setup             =    0.770 sec

--------------
SCF ITERATIONS
--------------
ITER       Energy         Delta-E        Max-DP      RMS-DP      [F,P]     Damp
               ***  Starting incremental Fock matrix formation  ***
  0   -668.2006637648   0.000000000000 0.06276091  0.00082937  0.1304254 0.7000
  1   -668.4080337262  -0.207369961422 0.03415138  0.00054836  0.0483608 0.7000
                               ***Turning on DIIS***
  2   -668.4843537823  -0.076320056042 0.04074180  0.00088625  0.0164214 0.0000
  3   -668.6122908581  -0.127937075845 0.02516038  0.00037538  0.0259717 0.0000
  4   -668.6377823711  -0.025491512940 0.00941671  0.00013448  0.0084410 0.0000
  5   -668.6395429875  -0.001760616416 0.00391586  0.00004994  0.0047400 0.0000
  6   -668.6398674400  -0.000324452500 0.00161301  0.00002039  0.0010586 0.0000
  7   -668.6399145147  -0.000047074688 0.00241493  0.00002125  0.0004696 0.0000
               *** Restarting incremental Fock matrix formation ***
                                   *** Resetting DIIS ***
  8   -668.6399517769  -0.000037262266 0.00097450  0.00000996  0.0002539 0.0000
  9   -668.6399525012  -0.000000724225 0.00057391  0.00000546  0.0004657 0.0000
 10   -668.6399570003  -0.000004499171 0.00038132  0.00000283  0.0001633 0.0000
 11   -668.6399574573  -0.000000456997 0.00023965  0.00000180  0.0001735 0.0000
 12   -668.6399578035  -0.000000346178 0.00009170  0.00000064  0.0000528 0.0000
 13   -668.6399578277  -0.000000024156 0.00004243  0.00000031  0.0000268 0.0000
 14   -668.6399578311  -0.000000003386 0.00001481  0.00000014  0.0000110 0.0000
 15   -668.6399578306   0.000000000497 0.00000949  0.00000010  0.0000080 0.0000
 16   -668.6399578218   0.000000008752 0.00000880  0.00000006  0.0000036 0.0000
 17   -668.6399578242  -0.000000002362 0.00000515  0.00000004  0.0000036 0.0000
                 **** Energy Check signals convergence ****

               *****************************************************
               *                     SUCCESS                       *
               *           SCF CONVERGED AFTER  18 CYCLES          *
               *****************************************************

Old exchange energy                            =    -17.893782645 Eh
New exchange energy                            =    -17.893763474 Eh
Exchange energy change after final integration =      0.000019170 Eh
Total energy after final integration           =   -668.639938660 Eh
Final COS-X integration done in                =     2.350 sec

----------------
TOTAL SCF ENERGY
----------------

Total Energy       :         -668.63993866 Eh          -18194.61773 eV

Components:
Nuclear Repulsion  :          966.27569257 Eh           26293.69834 eV
Electronic Energy  :        -1634.91563123 Eh          -44488.31607 eV
One Electron Energy:        -2811.04359161 Eh          -76492.38493 eV
Two Electron Energy:         1176.12796038 Eh           32004.06886 eV
Max COSX asymmetry :            0.00000080 Eh               0.00002 eV

Virial components:
Potential Energy   :        -1332.94357794 Eh          -36271.23875 eV
Kinetic Energy     :          664.30363928 Eh           18076.62102 eV
Virial Ratio       :            2.00652759


DFT components:
N(Alpha)           :       55.000002176907 electrons
N(Beta)            :       54.000002663414 electrons
N(Total)           :      109.000004840321 electrons
E(X)               :      -71.075365595997 Eh       
E(C)               :       -4.327711773452 Eh       
E(XC)              :      -75.403077369449 Eh       
DFET-embed. en.    :        0.000000000000 Eh       

---------------
SCF CONVERGENCE
---------------

  Last Energy change         ...   -6.2496e-09  Tolerance :   1.0000e-08
  Last MAX-Density change    ...    0.0000e+00  Tolerance :   1.0000e-07
  Last RMS-Density change    ...    0.0000e+00  Tolerance :   5.0000e-09
  Last DIIS Error            ...    2.9011e-06  Tolerance :   5.0000e-07

             **** THE GBW FILE WAS UPDATED (opt.gbw) ****
             **** DENSITY opt.scfp WAS UPDATED ****
             **** ENERGY FILE WAS UPDATED (opt.en.tmp) ****
----------------------
UHF SPIN CONTAMINATION
----------------------

Warning: in a DFT calculation there is little theoretical justification to 
         calculate <S**2> as in Hartree-Fock theory. We will do it anyways
         but you should keep in mind that the values have only limited relevance

Expectation value of <S**2>     :     0.755906
Ideal value S*(S+1) for S=0.5   :     0.750000
Deviation                       :     0.005906

             **** THE GBW FILE WAS UPDATED (opt.gbw) ****
             **** DENSITY opt.scfp WAS UPDATED ****
----------------
ORBITAL ENERGIES
----------------
                 SPIN UP ORBITALS
  NO   OCC          E(Eh)            E(eV) 
   0   1.0000     -19.259827      -524.0865 
   1   1.0000     -19.215512      -522.8807 
   2   1.0000     -14.588233      -396.9660 
   3   1.0000     -14.508595      -394.7989 
   4   1.0000     -14.467916      -393.6920 
   5   1.0000     -10.435568      -283.9663 
   6   1.0000     -10.401628      -283.0427 
   7   1.0000     -10.399229      -282.9774 
   8   1.0000     -10.370371      -282.1921 
   9   1.0000     -10.344344      -281.4839 
  10   1.0000     -10.339113      -281.3416 
  11   1.0000     -10.330766      -281.1144 
  12   1.0000     -10.307462      -280.4803 
  13   1.0000     -10.305234      -280.4197 
  14   1.0000      -1.188199       -32.3325 
  15   1.0000      -1.153046       -31.3760 
  16   1.0000      -1.145999       -31.1842 
  17   1.0000      -1.078044       -29.3351 
  18   1.0000      -1.030827       -28.0502 
  19   1.0000      -0.953055       -25.9339 
  20   1.0000      -0.917010       -24.9531 
  21   1.0000      -0.870400       -23.6848 
  22   1.0000      -0.838859       -22.8265 
  23   1.0000      -0.805994       -21.9322 
  24   1.0000      -0.787305       -21.4237 
  25   1.0000      -0.753419       -20.5016 
  26   1.0000      -0.738786       -20.1034 
  27   1.0000      -0.721496       -19.6329 
  28   1.0000      -0.709048       -19.2942 
  29   1.0000      -0.688977       -18.7480 
  30   1.0000      -0.667633       -18.1672 
  31   1.0000      -0.651462       -17.7272 
  32   1.0000      -0.619716       -16.8633 
  33   1.0000      -0.597849       -16.2683 
  34   1.0000      -0.593770       -16.1573 
  35   1.0000      -0.584837       -15.9142 
  36   1.0000      -0.581529       -15.8242 
  37   1.0000      -0.562396       -15.3036 
  38   1.0000      -0.558118       -15.1872 
  39   1.0000      -0.549323       -14.9479 
  40   1.0000      -0.545128       -14.8337 
  41   1.0000      -0.533680       -14.5222 
  42   1.0000      -0.523874       -14.2553 
  43   1.0000      -0.515412       -14.0251 
  44   1.0000      -0.509738       -13.8707 
  45   1.0000      -0.495257       -13.4766 
  46   1.0000      -0.490792       -13.3551 
  47   1.0000      -0.484769       -13.1912 
  48   1.0000      -0.484035       -13.1713 
  49   1.0000      -0.476399       -12.9635 
  50   1.0000      -0.449383       -12.2283 
  51   1.0000      -0.410247       -11.1634 
  52   1.0000      -0.375171       -10.2089 
  53   1.0000      -0.368944       -10.0395 
  54   1.0000      -0.303609        -8.2616 
  55   0.0000      -0.142573        -3.8796 
  56   0.0000      -0.119233        -3.2445 
  57   0.0000      -0.101246        -2.7550 
  58   0.0000      -0.097623        -2.6564 
  59   0.0000      -0.090996        -2.4761 
  60   0.0000      -0.071597        -1.9483 
  61   0.0000      -0.065730        -1.7886 
  62   0.0000      -0.049923        -1.3585 
  63   0.0000      -0.045870        -1.2482 
  64   0.0000      -0.044675        -1.2157 
  65   0.0000      -0.033623        -0.9149 
  66   0.0000      -0.026264        -0.7147 
  67   0.0000      -0.015722        -0.4278 
  68   0.0000      -0.009728        -0.2647 
  69   0.0000       0.004169         0.1134 
  70   0.0000       0.011718         0.3189 
  71   0.0000       0.022223         0.6047 
  72   0.0000       0.026688         0.7262 
  73   0.0000       0.034272         0.9326 
  74   0.0000       0.038046         1.0353 
  75   0.0000       0.049406         1.3444 
  76   0.0000       0.057451         1.5633 
  77   0.0000       0.063059         1.7159 
  78   0.0000       0.074510         2.0275 
  79   0.0000       0.081189         2.2093 
  80   0.0000       0.085001         2.3130 
  81   0.0000       0.086969         2.3665 
  82   0.0000       0.091904         2.5008 
  83   0.0000       0.100278         2.7287 
  84   0.0000       0.105751         2.8776 
  85   0.0000       0.115201         3.1348 
  86   0.0000       0.118929         3.2362 
  87   0.0000       0.120289         3.2732 
  88   0.0000       0.126846         3.4516 
  89   0.0000       0.138822         3.7775 
  90   0.0000       0.142056         3.8655 
  91   0.0000       0.147725         4.0198 
  92   0.0000       0.157698         4.2912 
  93   0.0000       0.163441         4.4475 
  94   0.0000       0.164302         4.4709 
  95   0.0000       0.165116         4.4930 
  96   0.0000       0.176212         4.7950 
  97   0.0000       0.179375         4.8810 
  98   0.0000       0.183996         5.0068 
  99   0.0000       0.195024         5.3069 
 100   0.0000       0.199861         5.4385 
 101   0.0000       0.207883         5.6568 
 102   0.0000       0.210672         5.7327 
 103   0.0000       0.216523         5.8919 
 104   0.0000       0.224541         6.1101 
 105   0.0000       0.229590         6.2475 
 106   0.0000       0.234472         6.3803 
 107   0.0000       0.249012         6.7760 
 108   0.0000       0.260740         7.0951 
 109   0.0000       0.263860         7.1800 
 110   0.0000       0.270923         7.3722 
 111   0.0000       0.285732         7.7752 
 112   0.0000       0.298614         8.1257 
 113   0.0000       0.308671         8.3994 
 114   0.0000       0.324080         8.8187 
 115   0.0000       0.332528         9.0485 
 116   0.0000       0.339367         9.2346 
 117   0.0000       0.342301         9.3145 
 118   0.0000       0.355890         9.6843 
 119   0.0000       0.363443         9.8898 
 120   0.0000       0.366567         9.9748 
 121   0.0000       0.382581        10.4106 
 122   0.0000       0.395091        10.7510 
 123   0.0000       0.412077        11.2132 
 124   0.0000       0.419572        11.4171 
 125   0.0000       0.430729        11.7207 
 126   0.0000       0.431367        11.7381 
 127   0.0000       0.454701        12.3730 
 128   0.0000       0.482375        13.1261 
 129   0.0000       0.495575        13.4853 
 130   0.0000       0.505235        13.7481 
 131   0.0000       0.514927        14.0119 
 132   0.0000       0.531207        14.4549 
 133   0.0000       0.539844        14.6899 
 134   0.0000       0.557245        15.1634 
 135   0.0000       0.587559        15.9883 
 136   0.0000       0.597729        16.2650 
 137   0.0000       0.613836        16.7033 
 138   0.0000       0.626415        17.0456 
 139   0.0000       0.643175        17.5017 
 140   0.0000       0.670756        18.2522 
 141   0.0000       0.677204        18.4277 
 142   0.0000       0.684822        18.6349 
 143   0.0000       0.698555        19.0087 
 144   0.0000       0.703762        19.1503 
 145   0.0000       0.714560        19.4442 
 146   0.0000       0.728318        19.8185 
 147   0.0000       0.735238        20.0069 
 148   0.0000       0.742753        20.2113 
 149   0.0000       0.750458        20.4210 
 150   0.0000       0.753728        20.5100 
 151   0.0000       0.761117        20.7110 
 152   0.0000       0.764701        20.8086 
 153   0.0000       0.768275        20.9058 
 154   0.0000       0.776784        21.1374 
 155   0.0000       0.783496        21.3200 
 156   0.0000       0.796257        21.6672 
 157   0.0000       0.799512        21.7558 
 158   0.0000       0.805404        21.9162 
 159   0.0000       0.815998        22.2044 
 160   0.0000       0.822850        22.3909 
 161   0.0000       0.831634        22.6299 
 162   0.0000       0.842154        22.9162 
 163   0.0000       0.852871        23.2078 
 164   0.0000       0.867501        23.6059 
 165   0.0000       0.872186        23.7334 
 166   0.0000       0.873785        23.7769 
 167   0.0000       0.884126        24.0583 
 168   0.0000       0.895814        24.3763 
 169   0.0000       0.907276        24.6882 
 170   0.0000       0.923147        25.1201 
 171   0.0000       0.931233        25.3401 
 172   0.0000       0.952084        25.9075 
 173   0.0000       0.956954        26.0400 
 174   0.0000       0.970991        26.4220 
 175   0.0000       0.982893        26.7459 
 176   0.0000       1.001349        27.2481 
 177   0.0000       1.006397        27.3854 
 178   0.0000       1.020850        27.7787 
 179   0.0000       1.038024        28.2461 
 180   0.0000       1.058974        28.8161 
 181   0.0000       1.061584        28.8872 
 182   0.0000       1.083963        29.4961 
 183   0.0000       1.097018        29.8514 
 184   0.0000       1.097974        29.8774 
 185   0.0000       1.123486        30.5716 
 186   0.0000       1.159407        31.5491 
 187   0.0000       1.172263        31.8989 
 188   0.0000       1.183233        32.1974 
 189   0.0000       1.194628        32.5075 
 190   0.0000       1.211449        32.9652 
 191   0.0000       1.231285        33.5050 
 192   0.0000       1.244469        33.8637 
 193   0.0000       1.256805        34.1994 
 194   0.0000       1.269141        34.5351 
 195   0.0000       1.298137        35.3241 
 196   0.0000       1.309460        35.6322 
 197   0.0000       1.321131        35.9498 
 198   0.0000       1.326076        36.0844 
 199   0.0000       1.331621        36.2353 
 200   0.0000       1.343762        36.5656 
 201   0.0000       1.362602        37.0783 
 202   0.0000       1.372811        37.3561 
 203   0.0000       1.384034        37.6615 
 204   0.0000       1.388729        37.7892 
 205   0.0000       1.397271        38.0217 
 206   0.0000       1.404110        38.2078 
 207   0.0000       1.412404        38.4335 
 208   0.0000       1.421942        38.6930 
 209   0.0000       1.432817        38.9889 
 210   0.0000       1.435256        39.0553 
 211   0.0000       1.454373        39.5755 
 212   0.0000       1.460807        39.7506 
 213   0.0000       1.474360        40.1194 
 214   0.0000       1.479865        40.2692 
 215   0.0000       1.492837        40.6222 
 216   0.0000       1.503669        40.9169 
 217   0.0000       1.522929        41.4410 
 218   0.0000       1.528786        41.6004 
 219   0.0000       1.554334        42.2956 
 220   0.0000       1.559100        42.4253 
 221   0.0000       1.571579        42.7648 
 222   0.0000       1.576162        42.8895 
 223   0.0000       1.579961        42.9929 
 224   0.0000       1.589443        43.2509 
 225   0.0000       1.603558        43.6350 
 226   0.0000       1.610256        43.8173 
 227   0.0000       1.623098        44.1667 
 228   0.0000       1.631589        44.3978 
 229   0.0000       1.651451        44.9383 
 230   0.0000       1.661267        45.2054 
 231   0.0000       1.672629        45.5145 
 232   0.0000       1.683176        45.8015 
 233   0.0000       1.694201        46.1015 
 234   0.0000       1.722444        46.8701 
 235   0.0000       1.733886        47.1814 
 236   0.0000       1.748162        47.5699 
 237   0.0000       1.756020        47.7837 
 238   0.0000       1.779470        48.4218 
 239   0.0000       1.784467        48.5578 
 240   0.0000       1.801494        49.0211 
 241   0.0000       1.818888        49.4945 
 242   0.0000       1.822208        49.5848 
 243   0.0000       1.860961        50.6393 
 244   0.0000       1.867710        50.8230 
 245   0.0000       1.889038        51.4033 
 246   0.0000       1.906659        51.8828 
 247   0.0000       1.918909        52.2162 
 248   0.0000       1.920678        52.2643 
 249   0.0000       1.934582        52.6426 
 250   0.0000       1.958351        53.2894 
 251   0.0000       1.969574        53.5948 
 252   0.0000       1.997093        54.3437 
 253   0.0000       2.027046        55.1587 
 254   0.0000       2.038986        55.4836 
 255   0.0000       2.047625        55.7187 
 256   0.0000       2.049951        55.7820 
 257   0.0000       2.091777        56.9202 
 258   0.0000       2.101008        57.1713 
 259   0.0000       2.107010        57.3347 
 260   0.0000       2.122476        57.7555 
 261   0.0000       2.135484        58.1095 
 262   0.0000       2.161781        58.8250 
 263   0.0000       2.165193        58.9179 
 264   0.0000       2.179997        59.3207 
 265   0.0000       2.193150        59.6786 
 266   0.0000       2.215803        60.2951 
 267   0.0000       2.237762        60.8926 
 268   0.0000       2.255700        61.3807 
 269   0.0000       2.270827        61.7924 
 270   0.0000       2.273417        61.8628 
 271   0.0000       2.281277        62.0767 
 272   0.0000       2.299098        62.5616 
 273   0.0000       2.315234        63.0007 
 274   0.0000       2.325072        63.2684 
 275   0.0000       2.334837        63.5341 
 276   0.0000       2.337485        63.6062 
 277   0.0000       2.356715        64.1295 
 278   0.0000       2.372433        64.5572 
 279   0.0000       2.382313        64.8260 
 280   0.0000       2.389986        65.0348 
 281   0.0000       2.403517        65.4030 
 282   0.0000       2.416950        65.7686 
 283   0.0000       2.434725        66.2522 
 284   0.0000       2.455816        66.8261 
 285   0.0000       2.474181        67.3259 
 286   0.0000       2.506979        68.2184 
 287   0.0000       2.530139        68.8486 
 288   0.0000       2.574185        70.0471 
 289   0.0000       2.598210        70.7009 
 290   0.0000       2.608273        70.9747 
 291   0.0000       2.616820        71.2073 
 292   0.0000       2.630110        71.5689 
 293   0.0000       2.639409        71.8220 
 294   0.0000       2.687718        73.1365 
 295   0.0000       2.706583        73.6499 
 296   0.0000       2.801983        76.2458 
 297   0.0000       2.931501        79.7702 
 298   0.0000       2.941300        80.0368 
 299   0.0000       2.986325        81.2620 
 300   0.0000       2.993019        81.4442 
 301   0.0000       3.251094        88.4668 
 302   0.0000       3.342573        90.9560 
 303   0.0000       3.359661        91.4210 
 304   0.0000       3.457511        94.0837 
 305   0.0000       4.744593       129.1069 
 306   0.0000       4.820862       131.1823 
 307   0.0000       4.835425       131.5786 
 308   0.0000       4.869189       132.4974 
 309   0.0000       4.869960       132.5184 
 310   0.0000       4.889838       133.0593 
 311   0.0000       4.907189       133.5314 
 312   0.0000       4.914476       133.7297 
 313   0.0000       4.915918       133.7689 
 314   0.0000       4.928286       134.1055 
 315   0.0000       4.969774       135.2344 
 316   0.0000       5.036279       137.0441 
 317   0.0000       5.062447       137.7562 
 318   0.0000       5.075489       138.1111 
 319   0.0000       5.115663       139.2043 
 320   0.0000       5.140593       139.8826 
 321   0.0000       5.153564       140.2356 
 322   0.0000       5.173964       140.7907 
 323   0.0000       5.196119       141.3936 
 324   0.0000       5.210465       141.7840 
 325   0.0000       5.242473       142.6550 
 326   0.0000       5.252505       142.9279 
 327   0.0000       5.372089       146.1820 
 328   0.0000       5.498216       149.6141 
 329   0.0000       5.577346       151.7673 
 330   0.0000       5.595112       152.2507 
 331   0.0000       5.648770       153.7108 
 332   0.0000       5.710765       155.3978 
 333   0.0000       7.167414       195.0353 
 334   0.0000       7.226849       196.6526 
 335   0.0000       7.254370       197.4014 
 336   0.0000       8.944691       243.3974 
 337   0.0000       9.040494       246.0044 
 338   0.0000      29.457826       801.5882 
 339   0.0000      29.534933       803.6864 
 340   0.0000      29.614951       805.8638 
 341   0.0000      29.764763       809.9404 
 342   0.0000      29.842215       812.0479 
 343   0.0000      29.963356       815.3444 
 344   0.0000      29.989215       816.0480 
 345   0.0000      30.033998       817.2666 
 346   0.0000      30.108196       819.2857 
 347   0.0000      36.335846       988.7486 
 348   0.0000      36.450559       991.8701 
 349   0.0000      36.487312       992.8702 
 350   0.0000      36.488686       992.9076 
 351   0.0000      36.508144       993.4371 
 352   0.0000      36.522365       993.8241 
 353   0.0000      36.526254       993.9299 
 354   0.0000      36.529896       994.0290 
 355   0.0000      36.539534       994.2913 
 356   0.0000      36.575464       995.2690 
 357   0.0000      36.596988       995.8547 
 358   0.0000      36.636716       996.9357 
 359   0.0000      36.647160       997.2199 
 360   0.0000      36.680213       998.1193 
 361   0.0000      36.723845       999.3066 
 362   0.0000      36.762085      1000.3472 
 363   0.0000      36.787296      1001.0332 
 364   0.0000      36.808526      1001.6109 
 365   0.0000      36.811666      1001.6964 
 366   0.0000      41.087155      1118.0383 
 367   0.0000      41.178954      1120.5363 
 368   0.0000      41.188122      1120.7858 
 369   0.0000      53.487969      1455.4816 
 370   0.0000      53.575202      1457.8554 

                 SPIN DOWN ORBITALS
  NO   OCC          E(Eh)            E(eV) 
   0   1.0000     -19.257397      -524.0204 
   1   1.0000     -19.213451      -522.8246 
   2   1.0000     -14.588238      -396.9662 
   3   1.0000     -14.508237      -394.7892 
   4   1.0000     -14.466419      -393.6513 
   5   1.0000     -10.434030      -283.9244 
   6   1.0000     -10.402412      -283.0640 
   7   1.0000     -10.399230      -282.9774 
   8   1.0000     -10.359686      -281.9014 
   9   1.0000     -10.344250      -281.4814 
  10   1.0000     -10.339803      -281.3603 
  11   1.0000     -10.329774      -281.0874 
  12   1.0000     -10.307530      -280.4822 
  13   1.0000     -10.305379      -280.4236 
  14   1.0000      -1.183434       -32.2029 
  15   1.0000      -1.149487       -31.2791 
  16   1.0000      -1.145636       -31.1743 
  17   1.0000      -1.072108       -29.1735 
  18   1.0000      -1.027508       -27.9599 
  19   1.0000      -0.950793       -25.8724 
  20   1.0000      -0.910126       -24.7658 
  21   1.0000      -0.867553       -23.6073 
  22   1.0000      -0.834527       -22.7086 
  23   1.0000      -0.805162       -21.9096 
  24   1.0000      -0.782800       -21.3011 
  25   1.0000      -0.752485       -20.4762 
  26   1.0000      -0.737893       -20.0791 
  27   1.0000      -0.720733       -19.6121 
  28   1.0000      -0.706739       -19.2313 
  29   1.0000      -0.686160       -18.6713 
  30   1.0000      -0.663587       -18.0571 
  31   1.0000      -0.650724       -17.7071 
  32   1.0000      -0.617898       -16.8139 
  33   1.0000      -0.594452       -16.1759 
  34   1.0000      -0.587226       -15.9792 
  35   1.0000      -0.580852       -15.8058 
  36   1.0000      -0.576836       -15.6965 
  37   1.0000      -0.559536       -15.2257 
  38   1.0000      -0.551953       -15.0194 
  39   1.0000      -0.547282       -14.8923 
  40   1.0000      -0.543248       -14.7825 
  41   1.0000      -0.532631       -14.4936 
  42   1.0000      -0.519079       -14.1248 
  43   1.0000      -0.514352       -13.9962 
  44   1.0000      -0.503661       -13.7053 
  45   1.0000      -0.491777       -13.3819 
  46   1.0000      -0.488891       -13.3034 
  47   1.0000      -0.482504       -13.1296 
  48   1.0000      -0.479408       -13.0454 
  49   1.0000      -0.474360       -12.9080 
  50   1.0000      -0.434701       -11.8288 
  51   1.0000      -0.407960       -11.1011 
  52   1.0000      -0.371439       -10.1074 
  53   1.0000      -0.357282        -9.7221 
  54   0.0000      -0.207904        -5.6574 
  55   0.0000      -0.142296        -3.8721 
  56   0.0000      -0.107640        -2.9290 
  57   0.0000      -0.097848        -2.6626 
  58   0.0000      -0.095952        -2.6110 
  59   0.0000      -0.090503        -2.4627 
  60   0.0000      -0.071267        -1.9393 
  61   0.0000      -0.065397        -1.7795 
  62   0.0000      -0.048931        -1.3315 
  63   0.0000      -0.045319        -1.2332 
  64   0.0000      -0.035159        -0.9567 
  65   0.0000      -0.030528        -0.8307 
  66   0.0000      -0.023695        -0.6448 
  67   0.0000      -0.012825        -0.3490 
  68   0.0000      -0.007620        -0.2074 
  69   0.0000       0.005050         0.1374 
  70   0.0000       0.012890         0.3508 
  71   0.0000       0.023768         0.6468 
  72   0.0000       0.027970         0.7611 
  73   0.0000       0.035760         0.9731 
  74   0.0000       0.041442         1.1277 
  75   0.0000       0.051029         1.3886 
  76   0.0000       0.058555         1.5934 
  77   0.0000       0.064749         1.7619 
  78   0.0000       0.075318         2.0495 
  79   0.0000       0.084154         2.2900 
  80   0.0000       0.085345         2.3224 
  81   0.0000       0.090617         2.4658 
  82   0.0000       0.093989         2.5576 
  83   0.0000       0.101659         2.7663 
  84   0.0000       0.106885         2.9085 
  85   0.0000       0.117208         3.1894 
  86   0.0000       0.120259         3.2724 
  87   0.0000       0.121935         3.3180 
  88   0.0000       0.129166         3.5148 
  89   0.0000       0.142686         3.8827 
  90   0.0000       0.143070         3.8931 
  91   0.0000       0.148284         4.0350 
  92   0.0000       0.159360         4.3364 
  93   0.0000       0.163926         4.4607 
  94   0.0000       0.164953         4.4886 
  95   0.0000       0.170139         4.6297 
  96   0.0000       0.177564         4.8318 
  97   0.0000       0.180926         4.9233 
  98   0.0000       0.185949         5.0599 
  99   0.0000       0.196238         5.3399 
 100   0.0000       0.202082         5.4989 
 101   0.0000       0.209433         5.6990 
 102   0.0000       0.212464         5.7815 
 103   0.0000       0.217785         5.9262 
 104   0.0000       0.225805         6.1445 
 105   0.0000       0.231923         6.3110 
 106   0.0000       0.236294         6.4299 
 107   0.0000       0.250807         6.8248 
 108   0.0000       0.261698         7.1212 
 109   0.0000       0.267513         7.2794 
 110   0.0000       0.273872         7.4524 
 111   0.0000       0.288347         7.8463 
 112   0.0000       0.300067         8.1652 
 113   0.0000       0.310301         8.4437 
 114   0.0000       0.325762         8.8644 
 115   0.0000       0.333503         9.0751 
 116   0.0000       0.340861         9.2753 
 117   0.0000       0.344545         9.3756 
 118   0.0000       0.356992         9.7143 
 119   0.0000       0.366322         9.9681 
 120   0.0000       0.369573        10.0566 
 121   0.0000       0.389119        10.5885 
 122   0.0000       0.397708        10.8222 
 123   0.0000       0.412845        11.2341 
 124   0.0000       0.422621        11.5001 
 125   0.0000       0.432408        11.7664 
 126   0.0000       0.434142        11.8136 
 127   0.0000       0.456695        12.4273 
 128   0.0000       0.485669        13.2157 
 129   0.0000       0.498549        13.5662 
 130   0.0000       0.507973        13.8226 
 131   0.0000       0.517233        14.0746 
 132   0.0000       0.538162        14.6441 
 133   0.0000       0.542170        14.7532 
 134   0.0000       0.560279        15.2460 
 135   0.0000       0.587964        15.9993 
 136   0.0000       0.599704        16.3188 
 137   0.0000       0.615562        16.7503 
 138   0.0000       0.629657        17.1339 
 139   0.0000       0.645590        17.5674 
 140   0.0000       0.672354        18.2957 
 141   0.0000       0.679803        18.4984 
 142   0.0000       0.686723        18.6867 
 143   0.0000       0.700769        19.0689 
 144   0.0000       0.705234        19.1904 
 145   0.0000       0.715758        19.4768 
 146   0.0000       0.729824        19.8595 
 147   0.0000       0.736468        20.0403 
 148   0.0000       0.744841        20.2681 
 149   0.0000       0.752130        20.4665 
 150   0.0000       0.755138        20.5483 
 151   0.0000       0.762101        20.7378 
 152   0.0000       0.766986        20.8707 
 153   0.0000       0.769248        20.9323 
 154   0.0000       0.779139        21.2014 
 155   0.0000       0.784290        21.3416 
 156   0.0000       0.797250        21.6943 
 157   0.0000       0.800602        21.7855 
 158   0.0000       0.806617        21.9492 
 159   0.0000       0.816875        22.2283 
 160   0.0000       0.824103        22.4250 
 161   0.0000       0.833331        22.6761 
 162   0.0000       0.843347        22.9486 
 163   0.0000       0.854772        23.2595 
 164   0.0000       0.868879        23.6434 
 165   0.0000       0.875935        23.8354 
 166   0.0000       0.877253        23.8713 
 167   0.0000       0.889533        24.2054 
 168   0.0000       0.898299        24.4440 
 169   0.0000       0.917734        24.9728 
 170   0.0000       0.924693        25.1622 
 171   0.0000       0.933624        25.4052 
 172   0.0000       0.954616        25.9764 
 173   0.0000       0.957517        26.0554 
 174   0.0000       0.972840        26.4723 
 175   0.0000       0.985106        26.8061 
 176   0.0000       1.003822        27.3154 
 177   0.0000       1.007413        27.4131 
 178   0.0000       1.022674        27.8284 
 179   0.0000       1.040470        28.3126 
 180   0.0000       1.061292        28.8792 
 181   0.0000       1.063705        28.9449 
 182   0.0000       1.085334        29.5334 
 183   0.0000       1.097800        29.8727 
 184   0.0000       1.099202        29.9108 
 185   0.0000       1.124782        30.6069 
 186   0.0000       1.162160        31.6240 
 187   0.0000       1.173544        31.9338 
 188   0.0000       1.183975        32.2176 
 189   0.0000       1.197017        32.5725 
 190   0.0000       1.214597        33.0509 
 191   0.0000       1.234767        33.5997 
 192   0.0000       1.246389        33.9160 
 193   0.0000       1.257910        34.2295 
 194   0.0000       1.273153        34.6443 
 195   0.0000       1.298961        35.3465 
 196   0.0000       1.312323        35.7101 
 197   0.0000       1.321622        35.9632 
 198   0.0000       1.327478        36.1225 
 199   0.0000       1.332634        36.2628 
 200   0.0000       1.346806        36.6484 
 201   0.0000       1.366672        37.1890 
 202   0.0000       1.375390        37.4263 
 203   0.0000       1.385392        37.6984 
 204   0.0000       1.391568        37.8665 
 205   0.0000       1.399032        38.0696 
 206   0.0000       1.404998        38.2319 
 207   0.0000       1.414427        38.4885 
 208   0.0000       1.423788        38.7432 
[...]
      px      :     1.047919
      py      :     0.967820
      dz2     :     0.039554  d :     0.192482
      dxz     :     0.039933
      dyz     :     0.055432
      dx2y2   :     0.025212
      dxy     :     0.032350
  8 N s       :     3.043799  s :     3.043799
      pz      :     1.186652  p :     3.588457
      px      :     1.181118
      py      :     1.220687
      dz2     :     0.008136  d :     0.051669
      dxz     :     0.014784
      dyz     :     0.012877
      dx2y2   :     0.005018
      dxy     :     0.010853
  9 H s       :     0.867214  s :     0.867214
      pz      :     0.047985  p :     0.082737
      px      :     0.017952
      py      :     0.016800
 10 H s       :     0.868777  s :     0.868777
      pz      :     0.018567  p :     0.081131
      px      :     0.044139
      py      :     0.018424
 11 H s       :     0.864319  s :     0.864319
      pz      :     0.046077  p :     0.081982
      px      :     0.019839
      py      :     0.016067
 12 H s       :     0.862710  s :     0.862710
      pz      :     0.017670  p :     0.082469
      px      :     0.048835
      py      :     0.015963
 13 H s       :     0.863641  s :     0.863641
      pz      :     0.021725  p :     0.081096
      px      :     0.041258
      py      :     0.018113
 14 H s       :     0.854587  s :     0.854587
      pz      :     0.032911  p :     0.082192
      px      :     0.018592
      py      :     0.030689
 15 H s       :     0.864745  s :     0.864745
      pz      :     0.016863  p :     0.082030
      px      :     0.024985
      py      :     0.040182
 16 H s       :     0.857694  s :     0.857694
      pz      :     0.021134  p :     0.081470
      px      :     0.042382
      py      :     0.017954
 17 H s       :     0.755248  s :     0.755248
      pz      :     0.047260  p :     0.131293
      px      :     0.042417
      py      :     0.041616
 18 H s       :     0.688797  s :     0.688797
      pz      :     0.031053  p :     0.218384
      px      :     0.069382
      py      :     0.117949
 19 H s       :     0.726326  s :     0.726326
      pz      :     0.046386  p :     0.156706
      px      :     0.030244
      py      :     0.080076
 20 C s       :     2.837156  s :     2.837156
      pz      :     0.858623  p :     2.755423
      px      :     0.984781
      py      :     0.912018
      dz2     :     0.089585  d :     0.468217
      dxz     :     0.060688
      dyz     :     0.096519
      dx2y2   :     0.098204
      dxy     :     0.123221
 21 N s       :     3.060036  s :     3.060036
      pz      :     1.355102  p :     3.808614
      px      :     1.186491
      py      :     1.267021
      dz2     :     0.013005  d :     0.079656
      dxz     :     0.019535
      dyz     :     0.010308
      dx2y2   :     0.017607
      dxy     :     0.019200
 22 H s       :     0.777049  s :     0.777049
      pz      :     0.039337  p :     0.149011
      px      :     0.051772
      py      :     0.057902
 23 O s       :     3.545208  s :     3.545208
      pz      :     1.565888  p :     4.648900
      px      :     1.655992
      py      :     1.427021
      dz2     :     0.003641  d :     0.028027
      dxz     :     0.002086
      dyz     :     0.008329
      dx2y2   :     0.006793
      dxy     :     0.007177
 24 H s       :     0.758720  s :     0.758720
      pz      :     0.037901  p :     0.131386
      px      :     0.060948
      py      :     0.032537
 25 C s       :     2.856269  s :     2.856269
      pz      :     0.966450  p :     2.959826
      px      :     1.037718
      py      :     0.955658
      dz2     :     0.031835  d :     0.156922
      dxz     :     0.026939
      dyz     :     0.045270
      dx2y2   :     0.038676
      dxy     :     0.014201
 26 H s       :     0.873515  s :     0.873515
      pz      :     0.020620  p :     0.080424
      px      :     0.016376
      py      :     0.043428
 27 H s       :     0.883521  s :     0.883521
      pz      :     0.019868  p :     0.079279
      px      :     0.044193
      py      :     0.015218
 28 H s       :     0.873556  s :     0.873556
      pz      :     0.034944  p :     0.080332
      px      :     0.031113
      py      :     0.014275
 29 C s       :     2.861999  s :     2.861999
      pz      :     1.038872  p :     3.047951
      px      :     0.980287
      py      :     1.028791
      dz2     :     0.025203  d :     0.106755
      dxz     :     0.013304
      dyz     :     0.014581
      dx2y2   :     0.023930
      dxy     :     0.029738
 30 H s       :     0.853250  s :     0.853250
      pz      :     0.048401  p :     0.082156
      px      :     0.016009
      py      :     0.017746
 31 H s       :     0.871562  s :     0.871562
      pz      :     0.024777  p :     0.082215
      px      :     0.018280
      py      :     0.039158
 32 H s       :     0.854919  s :     0.854919
      pz      :     0.018113  p :     0.082079
      px      :     0.031168
      py      :     0.032799

SPIN
  0 N s       :    -0.001218  s :    -0.001218
      pz      :     0.012173  p :     0.015837
      px      :    -0.002345
      py      :     0.006010
      dz2     :     0.005694  d :     0.015042
      dxz     :     0.003022
      dyz     :     0.000588
      dx2y2   :     0.001649
      dxy     :     0.004090
  1 C s       :     0.018841  s :     0.018841
      pz      :     0.291101  p :     0.547966
      px      :     0.083504
      py      :     0.173362
      dz2     :     0.001675  d :    -0.001583
      dxz     :    -0.000523
      dyz     :    -0.001850
      dx2y2   :    -0.000736
      dxy     :    -0.000149
  2 C s       :    -0.003929  s :    -0.003929
      pz      :    -0.007279  p :    -0.016881
      px      :    -0.002612
      py      :    -0.006990
      dz2     :     0.018457  d :     0.028899
      dxz     :     0.000485
      dyz     :     0.001646
      dx2y2   :     0.004664
      dxy     :     0.003646
  3 O s       :     0.000781  s :     0.000781
      pz      :     0.040539  p :     0.077496
      px      :     0.011763
      py      :     0.025194
      dz2     :    -0.000024  d :    -0.000309
      dxz     :    -0.000082
      dyz     :    -0.000041
      dx2y2   :    -0.000123
      dxy     :    -0.000040
  4 C s       :    -0.002305  s :    -0.002305
      pz      :    -0.003576  p :    -0.016851
      px      :    -0.006013
      py      :    -0.007263
      dz2     :     0.004735  d :     0.026896
      dxz     :     0.002651
      dyz     :     0.007210
      dx2y2   :     0.011264
      dxy     :     0.001036
  5 C s       :     0.009013  s :     0.009013
      pz      :     0.006077  p :     0.024975
      px      :     0.001834
      py      :     0.017064
      dz2     :    -0.000238  d :    -0.000048
      dxz     :     0.000028
      dyz     :     0.000062
      dx2y2   :    -0.000092
      dxy     :     0.000192
  6 C s       :     0.000313  s :     0.000313
      pz      :     0.000332  p :     0.002879
      px      :     0.001082
      py      :     0.001465
      dz2     :     0.000167  d :     0.000602
      dxz     :     0.000150
      dyz     :    -0.000026
      dx2y2   :     0.000268
      dxy     :     0.000043
  7 C s       :     0.000385  s :     0.000385
      pz      :     0.000032  p :     0.000080
      px      :     0.000025
      py      :     0.000023
      dz2     :    -0.000008  d :     0.000195
      dxz     :     0.000032
      dyz     :     0.000134
      dx2y2   :     0.000037
      dxy     :    -0.000001
  8 N s       :     0.000197  s :     0.000197
      pz      :     0.000031  p :    -0.000230
      px      :    -0.000066
      py      :    -0.000195
      dz2     :     0.000001  d :    -0.000000
      dxz     :    -0.000001
      dyz     :     0.000005
      dx2y2   :    -0.000001
      dxy     :    -0.000003
  9 H s       :     0.012692  s :     0.012692
      pz      :    -0.000319  p :    -0.000556
      px      :     0.000133
      py      :    -0.000370
 10 H s       :     0.002872  s :     0.002872
      pz      :    -0.000042  p :    -0.000548
      px      :    -0.000134
      py      :    -0.000372
 11 H s       :    -0.000911  s :    -0.000911
      pz      :     0.000409  p :     0.000804
      px      :     0.000021
      py      :     0.000374
 12 H s       :    -0.000583  s :    -0.000583
      pz      :     0.000157  p :     0.000766
      px      :     0.000313
      py      :     0.000296
 13 H s       :    -0.000054  s :    -0.000054
      pz      :     0.000004  p :     0.000171
      px      :    -0.000002
      py      :     0.000169
 14 H s       :     0.000356  s :     0.000356
      pz      :     0.000085  p :     0.000230
      px      :     0.000059
      py      :     0.000086
 15 H s       :     0.000269  s :     0.000269
      pz      :     0.000011  p :     0.000007
      px      :    -0.000004
      py      :     0.000000
 16 H s       :     0.000054  s :     0.000054
      pz      :    -0.000001  p :     0.000004
      px      :     0.000009
      py      :    -0.000003
 17 H s       :     0.000043  s :     0.000043
      pz      :    -0.000002  p :    -0.000010
      px      :     0.000003
      py      :    -0.000011
 18 H s       :    -0.000211  s :    -0.000211
      pz      :     0.000204  p :    -0.000115
      px      :    -0.000107
      py      :    -0.000213
 19 H s       :    -0.000766  s :    -0.000766
      pz      :     0.001050  p :     0.001724
      px      :     0.000076
      py      :     0.000598
 20 C s       :     0.002296  s :     0.002296
      pz      :     0.045905  p :     0.081635
      px      :     0.013311
      py      :     0.022419
      dz2     :     0.007847  d :     0.012127
      dxz     :     0.000078
      dyz     :     0.000573
      dx2y2   :     0.001783
      dxy     :     0.001845
 21 N s       :     0.001575  s :     0.001575
      pz      :     0.030060  p :     0.058622
      px      :     0.008002
      py      :     0.020560
      dz2     :    -0.000160  d :    -0.000777
      dxz     :    -0.000166
      dyz     :    -0.000162
      dx2y2   :    -0.000091
      dxy     :    -0.000198
 22 H s       :    -0.001587  s :    -0.001587
      pz      :     0.001159  p :     0.002204
      px      :     0.000494
      py      :     0.000551
 23 O s       :     0.001521  s :     0.001521
      pz      :     0.042643  p :     0.080505
      px      :     0.016231
      py      :     0.021632
      dz2     :     0.000212  d :     0.000661
      dxz     :     0.000112
      dyz     :     0.000117
      dx2y2   :     0.000203
      dxy     :     0.000016
 24 H s       :     0.000131  s :     0.000131
      pz      :     0.000001  p :     0.000034
      px      :     0.000031
      py      :     0.000002
 25 C s       :    -0.000532  s :    -0.000532
      pz      :    -0.001050  p :    -0.002409
      px      :    -0.000321
      py      :    -0.001038
      dz2     :     0.001671  d :     0.003067
      dxz     :     0.000177
      dyz     :     0.000283
      dx2y2   :     0.000695
      dxy     :     0.000241
 26 H s       :     0.003722  s :     0.003722
      pz      :    -0.000038  p :    -0.000138
      px      :     0.000025
      py      :    -0.000124
 27 H s       :     0.000026  s :     0.000026
      pz      :    -0.000024  p :    -0.000063
      px      :    -0.000005
      py      :    -0.000033
 28 H s       :     0.003325  s :     0.003325
      pz      :    -0.000072  p :    -0.000141
      px      :    -0.000021
      py      :    -0.000049
 29 C s       :    -0.000856  s :    -0.000856
      pz      :    -0.000812  p :    -0.003903
      px      :    -0.002524
      py      :    -0.000568
      dz2     :     0.001879  d :     0.004567
      dxz     :     0.000836
      dyz     :     0.000357
      dx2y2   :     0.000492
      dxy     :     0.001004
 30 H s       :     0.006099  s :     0.006099
      pz      :    -0.000127  p :    -0.000240
      px      :    -0.000092
      py      :    -0.000021
 31 H s       :     0.000018  s :     0.000018
      pz      :    -0.000061  p :    -0.000187
      px      :    -0.000075
      py      :    -0.000050
 32 H s       :     0.005634  s :     0.005634
      pz      :    -0.000045  p :    -0.000222
      px      :    -0.000108
      py      :    -0.000070


                      *****************************
                      * MAYER POPULATION ANALYSIS *
                      *****************************

  NA   - Mulliken gross atomic population
  ZA   - Total nuclear charge
  QA   - Mulliken gross atomic charge
  VA   - Mayer's total valence
  BVA  - Mayer's bonded valence
  FA   - Mayer's free valence

  ATOM       NA         ZA         QA         VA         BVA        FA
  0 N      6.9787     7.0000     0.0213     3.5558     3.5536     0.0021
  1 C      5.8700     6.0000     0.1300     3.7854     3.4023     0.3831
  2 C      5.9610     6.0000     0.0390     4.0689     4.0675     0.0014
  3 O      8.3407     8.0000    -0.3407     2.1094     2.1028     0.0066
  4 C      6.3446     6.0000    -0.3446     4.0387     4.0371     0.0016
  5 C      6.2485     6.0000    -0.2485     3.9031     3.9019     0.0012
  6 C      6.2512     6.0000    -0.2512     3.8771     3.8771     0.0000
  7 C      6.2772     6.0000    -0.2772     3.8665     3.8665     0.0000
  8 N      7.3589     7.0000    -0.3589     3.4489     3.4489     0.0000
  9 H      0.8589     1.0000     0.1411     0.9745     0.9743     0.0003
 10 H      0.8641     1.0000     0.1359     0.9744     0.9743     0.0000
 11 H      0.8368     1.0000     0.1632     0.9663     0.9663     0.0000
 12 H      0.8299     1.0000     0.1701     0.9674     0.9674     0.0000
 13 H      0.8343     1.0000     0.1657     0.9616     0.9616     0.0000
 14 H      0.8271     1.0000     0.1729     0.9624     0.9624     0.0000
 15 H      0.8062     1.0000     0.1938     0.9451     0.9451     0.0000
 16 H      0.7926     1.0000     0.2074     0.9453     0.9453     0.0000
 17 H      0.6847     1.0000     0.3153     0.9047     0.9047     0.0000
 18 H      0.6659     1.0000     0.3341     0.9397     0.9397     0.0000
 19 H      0.7315     1.0000     0.2685     0.9734     0.9734     0.0000
 20 C      5.8914     6.0000     0.1086     4.0591     4.0502     0.0089
 21 N      7.1091     7.0000    -0.1091     3.2439     3.2401     0.0037
 22 H      0.7744     1.0000     0.2256     0.9685     0.9685     0.0000
 23 O      8.3215     8.0000    -0.3215     2.0651     2.0577     0.0073
 24 H      0.6936     1.0000     0.3064     0.9104     0.9104     0.0000
 25 C      6.4180     6.0000    -0.4180     3.9197     3.9197     0.0000
 26 H      0.8060     1.0000     0.1940     0.9479     0.9479     0.0000
 27 H      0.8510     1.0000     0.1490     0.9670     0.9670     0.0000
 28 H      0.8064     1.0000     0.1936     0.9480     0.9480     0.0000
 29 C      6.5270     6.0000    -0.5270     3.8286     3.8286     0.0001
 30 H      0.8027     1.0000     0.1973     0.9549     0.9549     0.0001
 31 H      0.8309     1.0000     0.1691     0.9669     0.9669    -0.0000
 32 H      0.8054     1.0000     0.1946     0.9561     0.9560     0.0001

  Mayer bond orders larger than 0.100000
B(  0-N ,  1-C ) :   1.2313 B(  0-N , 19-H ) :   0.8446 B(  0-N , 20-C ) :   1.2988 
B(  1-C ,  2-C ) :   1.0251 B(  1-C ,  4-C ) :   0.9713 B(  2-C ,  3-O ) :   1.7510 
B(  2-C , 21-N ) :   1.2222 B(  4-C ,  5-C ) :   0.9534 B(  4-C ,  9-H ) :   0.9701 
B(  4-C , 10-H ) :   0.9775 B(  5-C ,  6-C ) :   0.9669 B(  5-C , 11-H ) :   0.9619 
B(  5-C , 12-H ) :   0.9663 B(  6-C ,  7-C ) :   0.9881 B(  6-C , 13-H ) :   0.9588 
B(  6-C , 14-H ) :   0.9519 B(  7-C ,  8-N ) :   0.9303 B(  7-C , 15-H ) :   0.9501 
B(  7-C , 16-H ) :   0.9451 B(  8-N , 17-H ) :   0.9010 B(  8-N , 18-H ) :   0.7187 
B(  8-N , 24-H ) :   0.9024 B( 18-H , 23-O ) :   0.1817 B( 20-C , 23-O ) :   1.6809 
B( 20-C , 29-C ) :   0.9318 B( 21-N , 22-H ) :   0.9329 B( 21-N , 25-C ) :   0.9582 
B( 25-C , 26-H ) :   0.9480 B( 25-C , 27-H ) :   0.9638 B( 25-C , 28-H ) :   0.9472 
B( 29-C , 30-H ) :   0.9431 B( 29-C , 31-H ) :   0.9659 B( 29-C , 32-H ) :   0.9455 


-------
TIMINGS
-------

Total SCF time: 0 days 0 hours 0 min 18 sec 

Total time                  ....      18.442 sec
Sum of individual times     ....      17.715 sec  ( 96.1%)

Fock matrix formation       ....      15.524 sec  ( 84.2%)
  Split-RI-J                ....       1.195 sec  (  7.7% of F)
  Chain of spheres X        ....      11.337 sec  ( 73.0% of F)
  XC integration            ....       2.681 sec  ( 17.3% of F)
    Basis function eval.    ....       0.308 sec  ( 11.5% of XC)
    Density eval.           ....       0.439 sec  ( 16.4% of XC)
    XC-Functional eval.     ....       0.068 sec  (  2.6% of XC)
    XC-Potential eval.      ....       0.247 sec  (  9.2% of XC)
Diagonalization             ....       0.490 sec  (  2.7%)
Density matrix formation    ....       0.028 sec  (  0.2%)
Population analysis         ....       0.058 sec  (  0.3%)
Initial guess               ....       0.057 sec  (  0.3%)
Orbital Transformation      ....       0.000 sec  (  0.0%)
Orbital Orthonormalization  ....       0.044 sec  (  0.2%)
DIIS solution               ....       0.242 sec  (  1.3%)
Grid generation             ....       1.316 sec  (  7.1%)

Maximum memory used throughout the entire SCF-calculation: 86.0 MB

-------------------------   --------------------
FINAL SINGLE POINT ENERGY      -668.641666472681
-------------------------   --------------------

                                *** OPTIMIZATION RUN DONE ***

                            ***************************************
                            *     ORCA property calculations      *
                            ***************************************

                                    ---------------------
                                    Active property flags
                                    ---------------------
   (+) Dipole Moment


------------------------------------------------------------------------------
                       ORCA ELECTRIC PROPERTIES CALCULATION
------------------------------------------------------------------------------

Dipole Moment Calculation                       ... on
Quadrupole Moment Calculation                   ... off
Polarizability Calculation                      ... off
GBWName                                         ... opt.gbw
Electron density                                ... opt.scfp
The origin for moment calculation is the CENTER OF MASS  = (-12.427484,  4.312612  0.416118)

-------------
DIPOLE MOMENT
-------------
                                X             Y             Z
Electronic contribution:     -3.47968      -6.70843      -0.24926
Nuclear contribution   :      4.61685      10.25266      -1.77712
                        -----------------------------------------
Total Dipole Moment    :      1.13717       3.54423      -2.02638
                        -----------------------------------------
Magnitude (a.u.)       :      4.23803
Magnitude (Debye)      :     10.77223



--------------------
Rotational spectrum 
--------------------
 
Rotational constants in cm-1:     0.028067     0.013892     0.009708 
Rotational constants in MHz :   841.420139   416.458550   291.040607 

 Dipole components along the rotational axes: 
x,y,z [a.u.] :     3.844570     1.627035    -0.730052 
x,y,z [Debye]:     9.772121     4.135594    -1.855644 

 

Timings for individual modules:

Sum of individual times         ...      421.638 sec (=   7.027 min)
GTO integral calculation        ...       31.138 sec (=   0.519 min)   7.4 %
SCF iterations                  ...      294.359 sec (=   4.906 min)  69.8 %
SCF Gradient evaluation         ...       95.594 sec (=   1.593 min)  22.7 %
Geometry relaxation             ...        0.546 sec (=   0.009 min)   0.1 %
                             ****ORCA TERMINATED NORMALLY****
TOTAL RUN TIME: 0 days 0 hours 7 minutes 28 seconds 587 msec
