
                                 *****************
                                 * O   R   C   A *
                                 *****************

                                            #,                                       
                                            ###                                      
                                            ####                                     
                                            #####                                    
                                            ######                                   
                                           ########,                                 
                                     ,,################,,,,,                         
                               ,,#################################,,                 
                          ,,##########################################,,             
                       ,#########################################, ''#####,          
                    ,#############################################,,   '####,        
                  ,##################################################,,,,####,       
                ,###########''''           ''''###############################       
              ,#####''   ,,,,##########,,,,          '''####'''          '####       
            ,##' ,,,,###########################,,,                        '##       
           ' ,,###''''                  '''############,,,                           
         ,,##''                                '''############,,,,        ,,,,,,###''
      ,#''                                            '''#######################'''  
     '                                                          ''''####''''         
             ,#######,   #######,   ,#######,      ##                                
            ,#'     '#,  ##    ##  ,#'     '#,    #''#        ######   ,####,        
            ##       ##  ##   ,#'  ##            #'  '#       #        #'  '#        
            ##       ##  #######   ##           ,######,      #####,   #    #        
            '#,     ,#'  ##    ##  '#,     ,#' ,#      #,         ##   #,  ,#        
             '#######'   ##     ##  '#######'  #'      '#     #####' # '####'        



                  #######################################################
                  #                        -***-                        #
                  #          Department of theory and spectroscopy      #
                  #    Directorship and core code : Frank Neese         #
                  #        Max Planck Institute fuer Kohlenforschung    #
                  #                Kaiser Wilhelm Platz 1               #
                  #                 D-45470 Muelheim/Ruhr               #
                  #                      Germany                        #
                  #                                                     #
                  #                  All rights reserved                #
                  #                        -***-                        #
                  #######################################################


                         Program Version 5.0.4 -  RELEASE  -


 With contributions from (in alphabetic order):
   Daniel Aravena         : Magnetic Suceptibility
   Michael Atanasov       : Ab Initio Ligand Field Theory (pilot matlab implementation)
   Alexander A. Auer      : GIAO ZORA, VPT2 properties, NMR spectrum
   Ute Becker             : Parallelization
   Giovanni Bistoni       : ED, misc. LED, open-shell LED, HFLD
   Martin Brehm           : Molecular dynamics
   Dmytro Bykov           : SCF Hessian
   Vijay G. Chilkuri      : MRCI spin determinant printing, contributions to CSF-ICE
   Dipayan Datta          : RHF DLPNO-CCSD density
   Achintya Kumar Dutta   : EOM-CC, STEOM-CC
   Dmitry Ganyushin       : Spin-Orbit,Spin-Spin,Magnetic field MRCI
   Miquel Garcia          : C-PCM and meta-GGA Hessian, CC/C-PCM, Gaussian charge scheme
   Yang Guo               : DLPNO-NEVPT2, F12-NEVPT2, CIM, IAO-localization
   Andreas Hansen         : Spin unrestricted coupled pair/coupled cluster methods
   Benjamin Helmich-Paris : MC-RPA, TRAH-SCF, COSX integrals
   Lee Huntington         : MR-EOM, pCC
   Robert Izsak           : Overlap fitted RIJCOSX, COSX-SCS-MP3, EOM
   Marcus Kettner         : VPT2
   Christian Kollmar      : KDIIS, OOCD, Brueckner-CCSD(T), CCSD density, CASPT2, CASPT2-K
   Simone Kossmann        : Meta GGA functionals, TD-DFT gradient, OOMP2, MP2 Hessian
   Martin Krupicka        : Initial AUTO-CI
   Lucas Lang             : DCDCAS
   Marvin Lechner         : AUTO-CI (C++ implementation), FIC-MRCC
   Dagmar Lenk            : GEPOL surface, SMD
   Dimitrios Liakos       : Extrapolation schemes; Compound Job, initial MDCI parallelization
   Dimitrios Manganas     : Further ROCIS development; embedding schemes
   Dimitrios Pantazis     : SARC Basis sets
   Anastasios Papadopoulos: AUTO-CI, single reference methods and gradients
   Taras Petrenko         : DFT Hessian,TD-DFT gradient, ASA, ECA, R-Raman, ABS, FL, XAS/XES, NRVS
   Peter Pinski           : DLPNO-MP2, DLPNO-MP2 Gradient
   Christoph Reimann      : Effective Core Potentials
   Marius Retegan         : Local ZFS, SOC
   Christoph Riplinger    : Optimizer, TS searches, QM/MM, DLPNO-CCSD(T), (RO)-DLPNO pert. Triples
   Tobias Risthaus        : Range-separated hybrids, TD-DFT gradient, RPA, STAB
   Michael Roemelt        : Original ROCIS implementation
   Masaaki Saitow         : Open-shell DLPNO-CCSD energy and density
   Barbara Sandhoefer     : DKH picture change effects
   Avijit Sen             : IP-ROCIS
   Kantharuban Sivalingam : CASSCF convergence, NEVPT2, FIC-MRCI
   Bernardo de Souza      : ESD, SOC TD-DFT
   Georgi Stoychev        : AutoAux, RI-MP2 NMR, DLPNO-MP2 response
   Willem Van den Heuvel  : Paramagnetic NMR
   Boris Wezisla          : Elementary symmetry handling
   Frank Wennmohs         : Technical directorship


 We gratefully acknowledge several colleagues who have allowed us to
 interface, adapt or use parts of their codes:
   Stefan Grimme, W. Hujo, H. Kruse, P. Pracht,  : VdW corrections, initial TS optimization,
                  C. Bannwarth, S. Ehlert          DFT functionals, gCP, sTDA/sTD-DF
   Ed Valeev, F. Pavosevic, A. Kumar             : LibInt (2-el integral package), F12 methods
   Garnet Chan, S. Sharma, J. Yang, R. Olivares  : DMRG
   Ulf Ekstrom                                   : XCFun DFT Library
   Mihaly Kallay                                 : mrcc  (arbitrary order and MRCC methods)
   Jiri Pittner, Ondrej Demel                    : Mk-CCSD
   Frank Weinhold                                : gennbo (NPA and NBO analysis)
   Christopher J. Cramer and Donald G. Truhlar   : smd solvation model
   Lars Goerigk                                  : TD-DFT with DH, B97 family of functionals
   V. Asgeirsson, H. Jonsson                     : NEB implementation
   FAccTs GmbH                                   : IRC, NEB, NEB-TS, DLPNO-Multilevel, CI-OPT
                                                   MM, QMMM, 2- and 3-layer-ONIOM, Crystal-QMMM,
                                                   LR-CPCM, SF, NACMEs, symmetry and pop. for TD-DFT,
                                                   nearIR, NL-DFT gradient (VV10), updates on ESD,
                                                   ML-optimized integration grids
   S Lehtola, MJT Oliveira, MAL Marques          : LibXC Library
   Liviu Ungur et al                             : ANISO software


 Your calculation uses the libint2 library for the computation of 2-el integrals
 For citations please refer to: http://libint.valeyev.net

 Your ORCA version has been built with support for libXC version: 5.1.0
 For citations please refer to: https://tddft.org/programs/libxc/

 This ORCA versions uses:
   CBLAS   interface :  Fast vector & matrix operations
   LAPACKE interface :  Fast linear algebra routines
   SCALAPACK package :  Parallel linear algebra routines
   Shared memory     :  Shared parallel matrices
   BLAS/LAPACK       :  OpenBLAS 0.3.15  USE64BITINT DYNAMIC_ARCH NO_AFFINITY Zen SINGLE_THREADED
        Core in use  :  Zen
   Copyright (c) 2011-2014, The OpenBLAS Project




***************************************
The coordinates will be read from file: opt.xyz
***************************************


================================================================================

----- Orbital basis set information -----
Your calculation utilizes the basis: EPR-II
   V. Barone, in Recent Advances in Density Functional Methods, Part 1 (ed. D. P. Chong), World Scientific, Singapore, 1995, p. 287.

----- AuxJ basis set information -----
Your calculation utilizes the AutoAux generation procedure.
  G. L. Stoychev, A. A. Auer, F. Neese, J. Chem. Theory Comput. 13, 554 (2017)

----- AuxC basis set information -----
Your calculation utilizes the AutoAux generation procedure.
  G. L. Stoychev, A. A. Auer, F. Neese, J. Chem. Theory Comput. 13, 554 (2017)

----- AuxJK basis set information -----
Your calculation utilizes the AutoAux generation procedure.
  G. L. Stoychev, A. A. Auer, F. Neese, J. Chem. Theory Comput. 13, 554 (2017)

================================================================================
                                        WARNINGS
                       Please study these warnings very carefully!
================================================================================


WARNING: your system is open-shell and RHF/RKS was chosen
  ===> : WILL SWITCH to UHF/UKS


INFO   : the flag for use of the SHARK integral package has been found!

================================================================================
                                       INPUT FILE
================================================================================
NAME = epr_info.inp
|  1> ! B3LYP EPR-II AUTOAUX
|  2> %pal nprocs 16 end
|  3> *XYZFile 0 2 opt.xyz
|  4> %EPRNMR
|  5>         GTENSOR   TRUE
|  6>         NUCLEI    = 1,9,10,11,12,13,14,15,16,17,30,31,32 {SHIFT, AISO, ADIP, AORB}
|  7>         ORI       GIAO
|  8> END
|  9> 
| 10>                          ****END OF INPUT****
================================================================================

                       ****************************
                       * Single Point Calculation *
                       ****************************

---------------------------------
CARTESIAN COORDINATES (ANGSTROEM)
---------------------------------
  N      1.803580   -0.556686    0.370878
  C      1.096898    0.323783   -0.543655
  C      0.787984    1.620558    0.233019
  O      0.897612    1.686773    1.459747
  C     -0.193303   -0.324631   -1.119206
  C     -1.254511   -0.613482   -0.098888
  C     -2.642026   -1.002167   -0.516054
  C     -3.666574   -0.931323    0.628644
  N     -5.008668   -1.299479    0.143551
  H     -0.948347   -0.795938    0.929572
  H     -2.638714   -2.033274   -0.920405
  H     -2.990931   -0.367707   -1.342415
  H     -3.712045    0.098901    0.999374
  H     -3.308464   -1.558399    1.463470
  H     -5.680600   -1.219437    0.902013
  H     -5.010808   -2.278805   -0.131585
  H      1.794658   -0.265113    1.340446
  C      2.654847   -1.530184   -0.073725
  N      0.372816    2.672031   -0.525271
  H      0.337052    2.565324   -1.526584
  O      2.796667   -1.785490   -1.271081
  C      3.411018   -2.294461    1.008570
  H      3.150126   -3.353581    0.931594
  H      4.482593   -2.202751    0.812162
  H      3.196084   -1.943074    2.021163
  C      0.006141    3.955990    0.066384
  H      0.888387    4.495925    0.426046
  H     -0.500396    4.560922   -0.688180
  H     -0.665899    3.798103    0.912905
  H      1.760810    0.547717   -1.387394
  H     -0.600069    0.321279   -1.911624
  H      0.129375   -1.246501   -1.630433

----------------------------
CARTESIAN COORDINATES (A.U.)
----------------------------
  NO LB      ZA    FRAG     MASS         X           Y           Z
   0 N     7.0000    0    14.007    3.408272   -1.051985    0.700859
   1 C     6.0000    0    12.011    2.072836    0.611861   -1.027359
   2 C     6.0000    0    12.011    1.489074    3.062410    0.440343
   3 O     8.0000    0    15.999    1.696240    3.187538    2.758521
   4 C     6.0000    0    12.011   -0.365291   -0.613464   -2.114993
   5 C     6.0000    0    12.011   -2.370681   -1.159313   -0.186872
   6 C     6.0000    0    12.011   -4.992706   -1.893822   -0.975200
   7 C     6.0000    0    12.011   -6.928820   -1.759946    1.187965
   8 N     7.0000    0    14.007   -9.465011   -2.455659    0.271272
   9 H     1.0000    0     1.008   -1.792116   -1.504106    1.756637
  10 H     1.0000    0     1.008   -4.986447   -3.842331   -1.739314
  11 H     1.0000    0     1.008   -5.652040   -0.694866   -2.536797
  12 H     1.0000    0     1.008   -7.014749    0.186895    1.888544
  13 H     1.0000    0     1.008   -6.252091   -2.944947    2.765558
  14 H     1.0000    0     1.008  -10.734778   -2.304403    1.704557
  15 H     1.0000    0     1.008   -9.469055   -4.306317   -0.248660
  16 H     1.0000    0     1.008    3.391413   -0.500990    2.533077
  17 C     6.0000    0    12.011    5.016935   -2.891628   -0.139320
  18 N     7.0000    0    14.007    0.704519    5.049407   -0.992618
  19 H     1.0000    0     1.008    0.636936    4.847759   -2.884826
  20 O     8.0000    0    15.999    5.284935   -3.374088   -2.401994
  21 C     6.0000    0    12.011    6.445890   -4.335903    1.905922
  22 H     1.0000    0     1.008    5.952875   -6.337350    1.760457
  23 H     1.0000    0     1.008    8.470874   -4.162596    1.534764
  24 H     1.0000    0     1.008    6.039723   -3.671878    3.819445
  25 C     6.0000    0    12.011    0.011606    7.475737    0.125448
  26 H     1.0000    0     1.008    1.678808    8.496068    0.805111
  27 H     1.0000    0     1.008   -0.945612    8.618894   -1.300472
  28 H     1.0000    0     1.008   -1.258368    7.177374    1.725140
  29 H     1.0000    0     1.008    3.327449    1.035035   -2.621795
  30 H     1.0000    0     1.008   -1.133967    0.607130   -3.612445
  31 H     1.0000    0     1.008    0.244483   -2.355545   -3.081071

--------------------------------
INTERNAL COORDINATES (ANGSTROEM)
--------------------------------
 N      0   0   0     0.000000000000     0.00000000     0.00000000
 C      1   0   0     1.452926784383     0.00000000     0.00000000
 C      2   1   0     1.542814092194   106.85039139     0.00000000
 O      3   2   1     1.233394614975   121.87174556   346.34480669
 C      2   1   3     1.554451142347   112.58027630   236.93625952
 C      5   2   1     1.500214509731   114.55810688    64.59420717
 C      6   5   2     1.500100905061   120.99978044   168.76988831
 C      7   6   5     1.537871710543   113.40827740   193.77084160
 N      8   7   6     1.473794718967   110.49800367   178.89735355
 H      6   5   2     1.088465541569   118.41970914   332.75673449
 H      7   6   5     1.107561375168   109.87568709    72.21176695
 H      7   6   5     1.098702831839   110.68699957   316.32855129
 H      8   7   6     1.095842140990   108.83033793    60.51438331
 H      8   7   6     1.103812418980   108.70182594   304.35996164
 H      9   8   7     1.016446229197   109.67660431   181.82261996
 H      9   8   7     1.017243392986   109.35561355    65.93760525
 H      1   2   3     1.012500379172   115.08455954    11.70415943
 C      1   2   3     1.367488807392   121.97381081   205.43510830
 N      3   2   1     1.361236761272   115.46071130   167.14671787
 H     19   3   2     1.007618047541   118.85517349   356.91466807
 O     18   1   2     1.232458996478   122.34149570   354.41149055
 C     18   1   2     1.525541525473   115.75643916   175.02753696
 H     22  18   1     1.093492047537   108.48383630   119.92373948
 H     22  18   1     1.093279871277   108.44260372   236.51644518
 H     22  18   1     1.093166847441   113.49465968   358.30302723
 C     19   3   2     1.460498137618   122.00374179   178.25314438
 H     26  19   3     1.095100438996   111.36049204    72.24372274
 H     26  19   3     1.091737822449   108.88179209   192.60979143
 H     26  19   3     1.092320715001   109.95842339   312.31625413
 H      2   1   3     1.096732815664   108.27278514   118.07886377
 H      5   2   1     1.100265812913   109.18601697   188.39872725
 H      5   2   1     1.102414201152   106.11567589   301.52427297

---------------------------
INTERNAL COORDINATES (A.U.)
---------------------------
 N      0   0   0     0.000000000000     0.00000000     0.00000000
 C      1   0   0     2.745633715123     0.00000000     0.00000000
 C      2   1   0     2.915496109801   106.85039139     0.00000000
 O      3   2   1     2.330778037355   121.87174556   346.34480669
 C      2   1   3     2.937486947597   112.58027630   236.93625952
 C      5   2   1     2.834994565526   114.55810688    64.59420717
 C      6   5   2     2.834779883813   120.99978044   168.76988831
 C      7   6   5     2.906156362032   113.40827740   193.77084160
 N      8   7   6     2.785068396467   110.49800367   178.89735355
 H      6   5   2     2.056901779776   118.41970914   332.75673449
 H      7   6   5     2.092987675577   109.87568709    72.21176695
 H      7   6   5     2.076247454740   110.68699957   316.32855129
 H      8   7   6     2.070841532480   108.83033793    60.51438331
 H      8   7   6     2.085903175094   108.70182594   304.35996164
 H      9   8   7     1.920805003039   109.67660431   181.82261996
 H      9   8   7     1.922311424284   109.35561355    65.93760525
 H      1   2   3     1.913348427126   115.08455954    11.70415943
 C      1   2   3     2.584179337173   121.97381081   205.43510830
 N      3   2   1     2.572364682230   115.46071130   167.14671787
 H     19   3   2     1.904122157449   118.85517349   356.91466807
 O     18   1   2     2.329009974630   122.34149570   354.41149055
 C     18   1   2     2.882855689069   115.75643916   175.02753696
 H     22  18   1     2.066400499466   108.48383630   119.92373948
 H     22  18   1     2.065999544442   108.44260372   236.51644518
 H     22  18   1     2.065785960345   113.49465968   358.30302723
 C     19   3   2     2.759941499201   122.00374179   178.25314438
 H     26  19   3     2.069439918840   111.36049204    72.24372274
 H     26  19   3     2.063085494472   108.88179209   192.60979143
 H     26  19   3     2.064187001761   109.95842339   312.31625413
 H      2   1   3     2.072524663690   108.27278514   118.07886377
 H      5   2   1     2.079201060923   109.18601697   188.39872725
 H      5   2   1     2.083260926323   106.11567589   301.52427297

---------------------
BASIS SET INFORMATION
---------------------
There are 4 groups of distinct atoms

 Group   1 Type N   : 10s5p1d contracted to 6s2p1d pattern {511111/41/1}
 Group   2 Type C   : 10s5p1d contracted to 6s2p1d pattern {511111/41/1}
 Group   3 Type O   : 10s5p1d contracted to 6s2p1d pattern {511111/41/1}
 Group   4 Type H   : 6s1p contracted to 4s1p pattern {3111/1}

Atom   0N    basis set group =>   1
Atom   1C    basis set group =>   2
Atom   2C    basis set group =>   2
Atom   3O    basis set group =>   3
Atom   4C    basis set group =>   2
Atom   5C    basis set group =>   2
Atom   6C    basis set group =>   2
Atom   7C    basis set group =>   2
Atom   8N    basis set group =>   1
Atom   9H    basis set group =>   4
Atom  10H    basis set group =>   4
Atom  11H    basis set group =>   4
Atom  12H    basis set group =>   4
Atom  13H    basis set group =>   4
Atom  14H    basis set group =>   4
Atom  15H    basis set group =>   4
Atom  16H    basis set group =>   4
Atom  17C    basis set group =>   2
Atom  18N    basis set group =>   1
Atom  19H    basis set group =>   4
Atom  20O    basis set group =>   3
Atom  21C    basis set group =>   2
Atom  22H    basis set group =>   4
Atom  23H    basis set group =>   4
Atom  24H    basis set group =>   4
Atom  25C    basis set group =>   2
Atom  26H    basis set group =>   4
Atom  27H    basis set group =>   4
Atom  28H    basis set group =>   4
Atom  29H    basis set group =>   4
Atom  30H    basis set group =>   4
Atom  31H    basis set group =>   4
---------------------------------
AUXILIARY/J BASIS SET INFORMATION
---------------------------------
There are 4 groups of distinct atoms

 Group   1 Type N   : 17s13p12d2f contracted to 17s13p12d2f pattern {11111111111111111/1111111111111/111111111111/11}
 Group   2 Type C   : 17s13p12d2f contracted to 17s13p12d2f pattern {11111111111111111/1111111111111/111111111111/11}
 Group   3 Type O   : 17s13p12d2f contracted to 17s13p12d2f pattern {11111111111111111/1111111111111/111111111111/11}
 Group   4 Type H   : 15s6p1d contracted to 15s6p1d pattern {111111111111111/111111/1}

Atom   0N    basis set group =>   1
Atom   1C    basis set group =>   2
Atom   2C    basis set group =>   2
Atom   3O    basis set group =>   3
Atom   4C    basis set group =>   2
Atom   5C    basis set group =>   2
Atom   6C    basis set group =>   2
Atom   7C    basis set group =>   2
Atom   8N    basis set group =>   1
Atom   9H    basis set group =>   4
Atom  10H    basis set group =>   4
Atom  11H    basis set group =>   4
Atom  12H    basis set group =>   4
Atom  13H    basis set group =>   4
Atom  14H    basis set group =>   4
Atom  15H    basis set group =>   4
Atom  16H    basis set group =>   4
Atom  17C    basis set group =>   2
Atom  18N    basis set group =>   1
Atom  19H    basis set group =>   4
Atom  20O    basis set group =>   3
Atom  21C    basis set group =>   2
Atom  22H    basis set group =>   4
Atom  23H    basis set group =>   4
Atom  24H    basis set group =>   4
Atom  25C    basis set group =>   2
Atom  26H    basis set group =>   4
Atom  27H    basis set group =>   4
Atom  28H    basis set group =>   4
Atom  29H    basis set group =>   4
Atom  30H    basis set group =>   4
Atom  31H    basis set group =>   4
---------------------------------
AUXILIARY/C BASIS SET INFORMATION
---------------------------------
There are 4 groups of distinct atoms

 Group   1 Type N   : 17s13p12d2f contracted to 17s13p12d2f pattern {11111111111111111/1111111111111/111111111111/11}
 Group   2 Type C   : 17s13p12d2f contracted to 17s13p12d2f pattern {11111111111111111/1111111111111/111111111111/11}
 Group   3 Type O   : 17s13p12d2f contracted to 17s13p12d2f pattern {11111111111111111/1111111111111/111111111111/11}
 Group   4 Type H   : 15s6p1d contracted to 15s6p1d pattern {111111111111111/111111/1}

Atom   0N    basis set group =>   1
Atom   1C    basis set group =>   2
Atom   2C    basis set group =>   2
Atom   3O    basis set group =>   3
Atom   4C    basis set group =>   2
Atom   5C    basis set group =>   2
Atom   6C    basis set group =>   2
Atom   7C    basis set group =>   2
Atom   8N    basis set group =>   1
Atom   9H    basis set group =>   4
Atom  10H    basis set group =>   4
Atom  11H    basis set group =>   4
Atom  12H    basis set group =>   4
Atom  13H    basis set group =>   4
Atom  14H    basis set group =>   4
Atom  15H    basis set group =>   4
Atom  16H    basis set group =>   4
Atom  17C    basis set group =>   2
Atom  18N    basis set group =>   1
Atom  19H    basis set group =>   4
Atom  20O    basis set group =>   3
Atom  21C    basis set group =>   2
Atom  22H    basis set group =>   4
Atom  23H    basis set group =>   4
Atom  24H    basis set group =>   4
Atom  25C    basis set group =>   2
Atom  26H    basis set group =>   4
Atom  27H    basis set group =>   4
Atom  28H    basis set group =>   4
Atom  29H    basis set group =>   4
Atom  30H    basis set group =>   4
Atom  31H    basis set group =>   4
----------------------------------
AUXILIARY/JK BASIS SET INFORMATION
----------------------------------
There are 4 groups of distinct atoms

 Group   1 Type N   : 17s13p12d2f contracted to 17s13p12d2f pattern {11111111111111111/1111111111111/111111111111/11}
 Group   2 Type C   : 17s13p12d2f contracted to 17s13p12d2f pattern {11111111111111111/1111111111111/111111111111/11}
 Group   3 Type O   : 17s13p12d2f contracted to 17s13p12d2f pattern {11111111111111111/1111111111111/111111111111/11}
 Group   4 Type H   : 15s6p1d contracted to 15s6p1d pattern {111111111111111/111111/1}

Atom   0N    basis set group =>   1
Atom   1C    basis set group =>   2
Atom   2C    basis set group =>   2
Atom   3O    basis set group =>   3
Atom   4C    basis set group =>   2
Atom   5C    basis set group =>   2
Atom   6C    basis set group =>   2
Atom   7C    basis set group =>   2
Atom   8N    basis set group =>   1
Atom   9H    basis set group =>   4
Atom  10H    basis set group =>   4
Atom  11H    basis set group =>   4
Atom  12H    basis set group =>   4
Atom  13H    basis set group =>   4
Atom  14H    basis set group =>   4
Atom  15H    basis set group =>   4
Atom  16H    basis set group =>   4
Atom  17C    basis set group =>   2
Atom  18N    basis set group =>   1
Atom  19H    basis set group =>   4
Atom  20O    basis set group =>   3
Atom  21C    basis set group =>   2
Atom  22H    basis set group =>   4
Atom  23H    basis set group =>   4
Atom  24H    basis set group =>   4
Atom  25C    basis set group =>   2
Atom  26H    basis set group =>   4
Atom  27H    basis set group =>   4
Atom  28H    basis set group =>   4
Atom  29H    basis set group =>   4
Atom  30H    basis set group =>   4
Atom  31H    basis set group =>   4


           ************************************************************
           *        Program running with 16 parallel MPI-processes    *
           *              working on a common directory               *
           ************************************************************
------------------------------------------------------------------------------
                           ORCA GTO INTEGRAL CALCULATION
                           -- RI-GTO INTEGRALS CHOSEN --
------------------------------------------------------------------------------
------------------------------------------------------------------------------
                   ___                                                        
                  /   \      - P O W E R E D   B Y -                         
                 /     \                                                     
                 |  |  |   _    _      __       _____    __    __             
                 |  |  |  | |  | |    /  \     |  _  \  |  |  /  |          
                  \  \/   | |  | |   /    \    | | | |  |  | /  /          
                 / \  \   | |__| |  /  /\  \   | |_| |  |  |/  /          
                |  |  |   |  __  | /  /__\  \  |    /   |      \           
                |  |  |   | |  | | |   __   |  |    \   |  |\   \          
                \     /   | |  | | |  |  |  |  | |\  \  |  | \   \       
                 \___/    |_|  |_| |__|  |__|  |_| \__\ |__|  \__/        
                                                                              
                      - O R C A' S   B I G   F R I E N D -                    
                                      &                                       
                       - I N T E G R A L  F E E D E R -                       
                                                                              
 v1 FN, 2020, v2 2021                                                         
------------------------------------------------------------------------------


Reading SHARK input file epr_info.SHARKINP.tmp ... ok
----------------------
SHARK INTEGRAL PACKAGE
----------------------

Number of atoms                             ...     32
Number of basis functions                   ...    364
Number of shells                            ...    216
Maximum angular momentum                    ...      2
Integral batch strategy                     ... SHARK/LIBINT Hybrid
RI-J (if used) integral strategy            ... SPLIT-RIJ (Revised 2003 algorithm where possible)
Printlevel                                  ...      1
Contraction scheme used                     ... SEGMENTED contraction
Coulomb Range Separation                    ... NOT USED
Exchange Range Separation                   ... NOT USED
Finite Nucleus Model                        ... NOT USED
Auxiliary Coulomb fitting basis             ... AVAILABLE
   # of basis functions in Aux-J            ...   2504
   # of shells in Aux-J                     ...   1012
   Maximum angular momentum in Aux-J        ...      3
Auxiliary J/K fitting basis                 ... AVAILABLE
   # of basis functions in Aux-JK           ...   2504
   # of shells in Aux-JK                    ...   1012
   Maximum angular momentum in Aux-JK       ...      3
Auxiliary Correlation fitting basis         ... AVAILABLE
   # of basis functions in Aux-C            ...   2504
   # of shells in Aux-C                     ...   1012
   Maximum angular momentum in Aux-C        ...      3
Auxiliary 'external' fitting basis          ... NOT available
Integral threshold                          ...     1.000000e-10
Primitive cut-off                           ...     1.000000e-11
Primitive pair pre-selection threshold      ...     1.000000e-11

Calculating pre-screening integrals         ... done (  0.0 sec) Dimension = 216
Organizing shell pair data                  ... done (  0.1 sec)
Shell pair information
Total number of shell pairs                 ...     23436
Shell pairs after pre-screening             ...     14912
Total number of primitive shell pairs       ...     61703
Primitive shell pairs kept                  ...     28467
          la=0 lb=0:   6998 shell pairs
          la=1 lb=0:   5088 shell pairs
          la=1 lb=1:    879 shell pairs
          la=2 lb=0:   1371 shell pairs
          la=2 lb=1:    496 shell pairs
          la=2 lb=2:     80 shell pairs

Calculating one electron integrals          ... done (  0.0 sec)
Calculating RI/J V-Matrix + Cholesky decomp.... done (  0.3 sec)
Calculating RI/JK V-Matrix + Cholesky decomp... done (  0.3 sec)
Calculating RI/C V-Matrix + Cholesky decomp.... done (  0.3 sec)
Calculating Nuclear repulsion               ... done (  0.0 sec) ENN=    914.777047837479 Eh

SHARK setup successfully completed in   1.2 seconds

Maximum memory used throughout the entire GTOINT-calculation: 27.9 MB


           ************************************************************
           *        Program running with 16 parallel MPI-processes    *
           *              working on a common directory               *
           ************************************************************
-------------------------------------------------------------------------------
                                 ORCA SCF
-------------------------------------------------------------------------------

------------
SCF SETTINGS
------------
Hamiltonian:
 Density Functional     Method          .... DFT(GTOs)
 Exchange Functional    Exchange        .... B88
   X-Alpha parameter    XAlpha          ....  0.666667
   Becke's b parameter  XBeta           ....  0.004200
 Correlation Functional Correlation     .... LYP
 LDA part of GGA corr.  LDAOpt          .... VWN-5
 Gradients option       PostSCFGGA      .... off
 Hybrid DFT is turned on
   Fraction HF Exchange ScalHFX         ....  0.200000
   Scaling of DF-GGA-X  ScalDFX         ....  0.720000
   Scaling of DF-GGA-C  ScalDFC         ....  0.810000
   Scaling of DF-LDA-C  ScalLDAC        ....  1.000000
   Perturbative correction              ....  0.000000
   Density functional embedding theory  .... OFF
   NL short-range parameter             ....  4.800000
 RI-approximation to the Coulomb term is turned on
   Number of AuxJ basis functions       .... 2504
   RIJ-COSX (HFX calculated with COS-X)).... on


General Settings:
 Integral files         IntName         .... epr_info
 Hartree-Fock type      HFTyp           .... UHF
 Total Charge           Charge          ....    0
 Multiplicity           Mult            ....    2
 Number of Electrons    NEL             ....  109
 Basis Dimension        Dim             ....  364
 Nuclear Repulsion      ENuc            ....    914.7770478375 Eh

Convergence Acceleration:
 DIIS                   CNVDIIS         .... on
   Start iteration      DIISMaxIt       ....    12
   Startup error        DIISStart       ....  0.200000
   # of expansion vecs  DIISMaxEq       ....     5
   Bias factor          DIISBfac        ....   1.050
   Max. coefficient     DIISMaxC        ....  10.000
 Trust-Rad. Augm. Hess. CNVTRAH         .... auto
   Auto Start mean grad. ratio tolernc. ....  1.125000
   Auto Start start iteration           ....    20
   Auto Start num. interpolation iter.  ....    10
   Max. Number of Micro iterations      ....    16
   Max. Number of Macro iterations      .... Maxiter - #DIIS iter
   Number of Davidson start vectors     ....     2
   Converg. threshold I  (grad. norm)   ....   5.000e-05
   Converg. threshold II (energy diff.) ....   1.000e-06
   Grad. Scal. Fac. for Micro threshold ....   0.100
   Minimum threshold for Micro iter.    ....   0.010
   NR start threshold (gradient norm)   ....   0.001
   Initial trust radius                 ....   0.400
   Minimum AH scaling param. (alpha)    ....   1.000
   Maximum AH scaling param. (alpha)    .... 1000.000
   Orbital update algorithm             .... Taylor
   White noise on init. David. guess    .... on
   Maximum white noise                  ....   0.010
   Quad. conv. algorithm                .... NR
 SOSCF                  CNVSOSCF        .... off
 Level Shifting         CNVShift        .... on
   Level shift para.    LevelShift      ....    0.2500
   Turn off err/grad.   ShiftErr        ....    0.0010
 Zerner damping         CNVZerner       .... off
 Static damping         CNVDamp         .... on
   Fraction old density DampFac         ....    0.7000
   Max. Damping (<1)    DampMax         ....    0.9800
   Min. Damping (>=0)   DampMin         ....    0.0000
   Turn off err/grad.   DampErr         ....    0.1000
 Fernandez-Rico         CNVRico         .... off

SCF Procedure:
 Maximum # iterations   MaxIter         ....   125
 SCF integral mode      SCFMode         .... Direct
   Integral package                     .... SHARK and LIBINT hybrid scheme
 Reset frequency        DirectResetFreq ....    20
 Integral Threshold     Thresh          ....  1.000e-10 Eh
 Primitive CutOff       TCut            ....  1.000e-11 Eh

Convergence Tolerance:
 Convergence Check Mode ConvCheckMode   .... Total+1el-Energy
 Convergence forced     ConvForced      .... 0
 Energy Change          TolE            ....  1.000e-06 Eh
 1-El. energy change                    ....  1.000e-03 Eh
 DIIS Error             TolErr          ....  1.000e-06


Diagonalization of the overlap matrix:
Smallest eigenvalue                        ... 9.477e-04
Time for diagonalization                   ...    0.014 sec
Threshold for overlap eigenvalues          ... 1.000e-08
Number of eigenvalues below threshold      ... 0
Time for construction of square roots      ...    0.011 sec
Total time needed                          ...    0.026 sec

Time for model grid setup =    0.106 sec

------------------------------
INITIAL GUESS: MODEL POTENTIAL
------------------------------
Loading Hartree-Fock densities                     ... done
Calculating cut-offs                               ... done
Initializing the effective Hamiltonian             ... done
Setting up the integral package (SHARK)            ... done
Starting the Coulomb interaction                   ... done (   0.0 sec)
Reading the grid                                   ... done
Mapping shells                                     ... done
Starting the XC term evaluation                    ... done (   0.0 sec)
  promolecular density results
     # of electrons  =    108.987640461
     EX              =    -87.712897569
     EC              =     -3.656062607
     EX+EC           =    -91.368960176
Transforming the Hamiltonian                       ... done (   0.0 sec)
Diagonalizing the Hamiltonian                      ... done (   0.0 sec)
Back transforming the eigenvectors                 ... done (   0.0 sec)
Now organizing SCF variables                       ... done
                      ------------------
                      INITIAL GUESS DONE (   0.3 sec)
                      ------------------
-------------------
DFT GRID GENERATION
-------------------

General Integration Accuracy     IntAcc      ... 4.388
Radial Grid Type                 RadialGrid  ... OptM3 with GC (2021)
Angular Grid (max. ang.)         AngularGrid ... 4 (Lebedev-302)
Angular grid pruning method      GridPruning ... 4 (adaptive)
Weight generation scheme         WeightScheme... Becke
Basis function cutoff            BFCut       ... 1.0000e-10
Integration weight cutoff        WCut        ... 1.0000e-14
Angular grids for H and He will be reduced by one unit
Partially contracted basis set               ... off
Rotationally invariant grid construction     ... off

Total number of grid points                  ...   141797
Total number of batches                      ...     2236
Average number of points per batch           ...       63
Average number of grid points per atom       ...     4431
Time for grid setup =    0.582 sec

--------------------
COSX GRID GENERATION
--------------------

GRIDX 1
-------
General Integration Accuracy     IntAcc      ... 3.816
Radial Grid Type                 RadialGrid  ... OptM3 with GC (2021)
Angular Grid (max. ang.)         AngularGrid ... 1 (Lebedev-50)
Angular grid pruning method      GridPruning ... 4 (adaptive)
Weight generation scheme         WeightScheme... Becke
Basis function cutoff            BFCut       ... 1.0000e-10
Integration weight cutoff        WCut        ... 1.0000e-14
Angular grids for H and He will be reduced by one unit
Partially contracted basis set               ... on
Rotationally invariant grid construction     ... off

Total number of grid points                  ...    18101
Total number of batches                      ...      303
Average number of points per batch           ...       59
Average number of grid points per atom       ...      566
UseSFitting                                  ... on

GRIDX 2
-------
General Integration Accuracy     IntAcc      ... 4.020
Radial Grid Type                 RadialGrid  ... OptM3 with GC (2021)
Angular Grid (max. ang.)         AngularGrid ... 2 (Lebedev-110)
Angular grid pruning method      GridPruning ... 4 (adaptive)
Weight generation scheme         WeightScheme... Becke
Basis function cutoff            BFCut       ... 1.0000e-10
Integration weight cutoff        WCut        ... 1.0000e-14
Angular grids for H and He will be reduced by one unit
Partially contracted basis set               ... on
Rotationally invariant grid construction     ... off

Total number of grid points                  ...    38386
Total number of batches                      ...      616
Average number of points per batch           ...       62
Average number of grid points per atom       ...     1200
UseSFitting                                  ... on

GRIDX 3
-------
General Integration Accuracy     IntAcc      ... 4.338
Radial Grid Type                 RadialGrid  ... OptM3 with GC (2021)
Angular Grid (max. ang.)         AngularGrid ... 3 (Lebedev-194)
Angular grid pruning method      GridPruning ... 4 (adaptive)
Weight generation scheme         WeightScheme... Becke
Basis function cutoff            BFCut       ... 1.0000e-10
Integration weight cutoff        WCut        ... 1.0000e-14
Angular grids for H and He will be reduced by one unit
Partially contracted basis set               ... on
Rotationally invariant grid construction     ... off

Total number of grid points                  ...    83701
Total number of batches                      ...     1325
Average number of points per batch           ...       63
Average number of grid points per atom       ...     2616
UseSFitting                                  ... on

Time for X-Grid setup             =    0.647 sec

--------------
SCF ITERATIONS
--------------
ITER       Energy         Delta-E        Max-DP      RMS-DP      [F,P]     Damp
               ***  Starting incremental Fock matrix formation  ***
  0   -667.6908860398   0.000000000000 0.06204558  0.00098492  0.1284504 0.7000
  1   -667.9436532558  -0.252767215962 0.05352923  0.00070483  0.0532782 0.7000
                               ***Turning on DIIS***
  2   -668.0342332014  -0.090579945664 0.08390968  0.00108015  0.0167208 0.0000
  3   -668.1824984431  -0.148265241690 0.04692780  0.00052572  0.0320255 0.0000
  4   -668.2152893735  -0.032790930409 0.01756623  0.00018281  0.0086437 0.0000
  5   -668.2172052450  -0.001915871467 0.00789032  0.00007223  0.0050261 0.0000
  6   -668.2175789525  -0.000373707481 0.00486193  0.00004547  0.0007477 0.0000
               *** Restarting incremental Fock matrix formation ***
                                   *** Resetting DIIS ***
  7   -668.2175797573  -0.000000804761 0.00167713  0.00001983  0.0006832 0.0000
  8   -668.2175663791   0.000013378116 0.00076737  0.00000787  0.0010487 0.0000
  9   -668.2175896063  -0.000023227159 0.00030890  0.00000497  0.0002815 0.0000
 10   -668.2175911819  -0.000001575571 0.00013220  0.00000146  0.0000754 0.0000
                 **** Energy Check signals convergence ****

               *****************************************************
               *                     SUCCESS                       *
               *           SCF CONVERGED AFTER  11 CYCLES          *
               *****************************************************

Old exchange energy                            =    -17.858430130 Eh
New exchange energy                            =    -17.858504136 Eh
Exchange energy change after final integration =     -0.000074006 Eh
Total energy after final integration           =   -668.217665216 Eh
Final COS-X integration done in                =     2.093 sec

----------------
TOTAL SCF ENERGY
----------------

Total Energy       :         -668.21766522 Eh          -18183.12708 eV

Components:
Nuclear Repulsion  :          914.77704784 Eh           24892.34897 eV
Electronic Energy  :        -1582.99471305 Eh          -43075.47606 eV
One Electron Energy:        -2723.60891173 Eh          -74113.16633 eV
Two Electron Energy:         1140.61419867 Eh           31037.69027 eV
Max COSX asymmetry :            0.00000296 Eh               0.00008 eV

Virial components:
Potential Energy   :        -1331.81618838 Eh          -36240.56092 eV
Kinetic Energy     :          663.59852316 Eh           18057.43384 eV
Virial Ratio       :            2.00696075


DFT components:
N(Alpha)           :       55.000001787385 electrons
N(Beta)            :       54.000030879438 electrons
N(Total)           :      109.000032666823 electrons
E(X)               :      -70.932478380922 Eh       
E(C)               :       -4.311496916400 Eh       
E(XC)              :      -75.243975297322 Eh       
DFET-embed. en.    :        0.000000000000 Eh       

---------------
SCF CONVERGENCE
---------------

  Last Energy change         ...   -2.7515e-08  Tolerance :   1.0000e-06
  Last MAX-Density change    ...    0.0000e+00  Tolerance :   1.0000e-05
  Last RMS-Density change    ...    0.0000e+00  Tolerance :   1.0000e-06
  Last DIIS Error            ...    8.6164e-05  Tolerance :   1.0000e-06

             **** THE GBW FILE WAS UPDATED (epr_info.gbw) ****
             **** DENSITY epr_info.scfp WAS UPDATED ****
             **** ENERGY FILE WAS UPDATED (epr_info.en.tmp) ****
----------------------
UHF SPIN CONTAMINATION
----------------------

Warning: in a DFT calculation there is little theoretical justification to 
         calculate <S**2> as in Hartree-Fock theory. We will do it anyways
         but you should keep in mind that the values have only limited relevance

Expectation value of <S**2>     :     0.753971
Ideal value S*(S+1) for S=0.5   :     0.750000
Deviation                       :     0.003971

             **** THE GBW FILE WAS UPDATED (epr_info.gbw) ****
             **** DENSITY epr_info.scfp WAS UPDATED ****
----------------
ORBITAL ENERGIES
----------------
                 SPIN UP ORBITALS
  NO   OCC          E(Eh)            E(eV) 
   0   1.0000     -19.121042      -520.3100 
   1   1.0000     -19.100245      -519.7441 
   2   1.0000     -14.370672      -391.0459 
   3   1.0000     -14.349774      -390.4772 
   4   1.0000     -14.308271      -389.3478 
   5   1.0000     -10.301497      -280.3180 
   6   1.0000     -10.288320      -279.9594 
   7   1.0000     -10.239841      -278.6402 
   8   1.0000     -10.225328      -278.2453 
   9   1.0000     -10.206292      -277.7273 
  10   1.0000     -10.195617      -277.4368 
  11   1.0000     -10.191463      -277.3238 
  12   1.0000     -10.185832      -277.1706 
  13   1.0000     -10.184428      -277.1324 
  14   1.0000      -1.043991       -28.4084 
  15   1.0000      -1.022139       -27.8138 
  16   1.0000      -0.929821       -25.3017 
  17   1.0000      -0.916867       -24.9492 
  18   1.0000      -0.876130       -23.8407 
  19   1.0000      -0.800591       -21.7852 
  20   1.0000      -0.760333       -20.6897 
  21   1.0000      -0.727102       -19.7855 
  22   1.0000      -0.714127       -19.4324 
  23   1.0000      -0.666921       -18.1478 
  24   1.0000      -0.616237       -16.7687 
  25   1.0000      -0.597541       -16.2599 
  26   1.0000      -0.584242       -15.8980 
  27   1.0000      -0.558296       -15.1920 
  28   1.0000      -0.536885       -14.6094 
  29   1.0000      -0.489380       -13.3167 
  30   1.0000      -0.480871       -13.0852 
  31   1.0000      -0.472227       -12.8499 
  32   1.0000      -0.463347       -12.6083 
  33   1.0000      -0.456550       -12.4234 
  34   1.0000      -0.453316       -12.3354 
  35   1.0000      -0.446561       -12.1515 
  36   1.0000      -0.433962       -11.8087 
  37   1.0000      -0.426254       -11.5989 
  38   1.0000      -0.422246       -11.4899 
  39   1.0000      -0.405561       -11.0359 
  40   1.0000      -0.401252       -10.9186 
  41   1.0000      -0.396468       -10.7885 
  42   1.0000      -0.387260       -10.5379 
  43   1.0000      -0.374986       -10.2039 
  44   1.0000      -0.370681       -10.0867 
  45   1.0000      -0.361839        -9.8461 
  46   1.0000      -0.348941        -9.4952 
  47   1.0000      -0.343774        -9.3546 
  48   1.0000      -0.331142        -9.0108 
  49   1.0000      -0.270187        -7.3522 
  50   1.0000      -0.268587        -7.3086 
  51   1.0000      -0.252093        -6.8598 
  52   1.0000      -0.246229        -6.7002 
  53   1.0000      -0.238150        -6.4804 
  54   1.0000      -0.185925        -5.0593 
  55   0.0000       0.006409         0.1744 
  56   0.0000       0.012088         0.3289 
  57   0.0000       0.025335         0.6894 
  58   0.0000       0.026813         0.7296 
  59   0.0000       0.030785         0.8377 
  60   0.0000       0.033806         0.9199 
  61   0.0000       0.046563         1.2670 
  62   0.0000       0.058452         1.5906 
  63   0.0000       0.065737         1.7888 
  64   0.0000       0.079621         2.1666 
  65   0.0000       0.088143         2.3985 
  66   0.0000       0.093045         2.5319 
  67   0.0000       0.115330         3.1383 
  68   0.0000       0.126169         3.4332 
  69   0.0000       0.148280         4.0349 
  70   0.0000       0.152725         4.1558 
  71   0.0000       0.162496         4.4217 
  72   0.0000       0.165010         4.4902 
  73   0.0000       0.175849         4.7851 
  74   0.0000       0.181774         4.9463 
  75   0.0000       0.187568         5.1040 
  76   0.0000       0.191590         5.2134 
  77   0.0000       0.196965         5.3597 
  78   0.0000       0.201006         5.4697 
  79   0.0000       0.203872         5.5477 
  80   0.0000       0.213518         5.8101 
  81   0.0000       0.222489         6.0542 
  82   0.0000       0.227161         6.1814 
  83   0.0000       0.230101         6.2614 
  84   0.0000       0.232782         6.3343 
  85   0.0000       0.243585         6.6283 
  86   0.0000       0.248469         6.7612 
  87   0.0000       0.249980         6.8023 
  88   0.0000       0.253112         6.8875 
  89   0.0000       0.263975         7.1831 
  90   0.0000       0.266773         7.2593 
  91   0.0000       0.273681         7.4472 
  92   0.0000       0.278156         7.5690 
  93   0.0000       0.281098         7.6491 
  94   0.0000       0.288104         7.8397 
  95   0.0000       0.291624         7.9355 
  96   0.0000       0.302752         8.2383 
  97   0.0000       0.305268         8.3068 
  98   0.0000       0.313541         8.5319 
  99   0.0000       0.319656         8.6983 
 100   0.0000       0.326077         8.8730 
 101   0.0000       0.330639         8.9971 
 102   0.0000       0.332818         9.0564 
 103   0.0000       0.349173         9.5015 
 104   0.0000       0.364615         9.9217 
 105   0.0000       0.369812        10.0631 
 106   0.0000       0.379643        10.3306 
 107   0.0000       0.383959        10.4481 
 108   0.0000       0.392207        10.6725 
 109   0.0000       0.403498        10.9797 
 110   0.0000       0.409214        11.1353 
 111   0.0000       0.423656        11.5283 
 112   0.0000       0.435461        11.8495 
 113   0.0000       0.442986        12.0543 
 114   0.0000       0.450709        12.2644 
 115   0.0000       0.459030        12.4908 
 116   0.0000       0.470201        12.7948 
 117   0.0000       0.485493        13.2109 
 118   0.0000       0.492716        13.4075 
 119   0.0000       0.510117        13.8810 
 120   0.0000       0.521894        14.2015 
 121   0.0000       0.527309        14.3488 
 122   0.0000       0.538003        14.6398 
 123   0.0000       0.557479        15.1698 
 124   0.0000       0.563262        15.3271 
 125   0.0000       0.567967        15.4552 
 126   0.0000       0.587166        15.9776 
 127   0.0000       0.609697        16.5907 
 128   0.0000       0.615277        16.7425 
 129   0.0000       0.622928        16.9507 
 130   0.0000       0.664965        18.0946 
 131   0.0000       0.671300        18.2670 
 132   0.0000       0.676067        18.3967 
 133   0.0000       0.686287        18.6748 
 134   0.0000       0.700017        19.0484 
 135   0.0000       0.730110        19.8673 
 136   0.0000       0.758324        20.6351 
 137   0.0000       0.773528        21.0488 
 138   0.0000       0.782270        21.2867 
 139   0.0000       0.791626        21.5412 
 140   0.0000       0.801517        21.8104 
 141   0.0000       0.816772        22.2255 
 142   0.0000       0.819682        22.3047 
 143   0.0000       0.830776        22.6066 
 144   0.0000       0.834443        22.7064 
 145   0.0000       0.850611        23.1463 
 146   0.0000       0.857573        23.3358 
 147   0.0000       0.864074        23.5126 
 148   0.0000       0.873354        23.7652 
 149   0.0000       0.877405        23.8754 
 150   0.0000       0.883336        24.0368 
 151   0.0000       0.885961        24.1082 
 152   0.0000       0.893927        24.3250 
 153   0.0000       0.913382        24.8544 
 154   0.0000       0.915863        24.9219 
 155   0.0000       0.923179        25.1210 
 156   0.0000       0.927194        25.2302 
 157   0.0000       0.931654        25.3516 
 158   0.0000       0.933528        25.4026 
 159   0.0000       0.943441        25.6723 
 160   0.0000       0.950816        25.8730 
 161   0.0000       0.961982        26.1769 
 162   0.0000       0.972863        26.4729 
 163   0.0000       0.974894        26.5282 
 164   0.0000       0.983802        26.7706 
 165   0.0000       1.004049        27.3215 
 166   0.0000       1.021254        27.7897 
 167   0.0000       1.030066        28.0295 
 168   0.0000       1.038206        28.2510 
 169   0.0000       1.045380        28.4462 
 170   0.0000       1.063512        28.9396 
 171   0.0000       1.081931        29.4408 
 172   0.0000       1.089165        29.6377 
 173   0.0000       1.137755        30.9599 
 174   0.0000       1.138448        30.9787 
 175   0.0000       1.152593        31.3637 
 176   0.0000       1.159694        31.5569 
 177   0.0000       1.167003        31.7558 
 178   0.0000       1.170401        31.8482 
 179   0.0000       1.185234        32.2519 
 180   0.0000       1.198152        32.6034 
 181   0.0000       1.211508        32.9668 
 182   0.0000       1.223340        33.2888 
 183   0.0000       1.232963        33.5506 
 184   0.0000       1.277176        34.7537 
 185   0.0000       1.297933        35.3185 
 186   0.0000       1.309499        35.6333 
 187   0.0000       1.335650        36.3449 
 188   0.0000       1.349013        36.7085 
 189   0.0000       1.359831        37.0029 
 190   0.0000       1.365629        37.1607 
 191   0.0000       1.376665        37.4610 
 192   0.0000       1.396005        37.9872 
 193   0.0000       1.407460        38.2989 
 194   0.0000       1.412208        38.4281 
 195   0.0000       1.413467        38.4624 
 196   0.0000       1.426622        38.8203 
 197   0.0000       1.461502        39.7695 
 198   0.0000       1.478358        40.2282 
 199   0.0000       1.486870        40.4598 
 200   0.0000       1.496628        40.7253 
 201   0.0000       1.503100        40.9014 
 202   0.0000       1.523639        41.4603 
 203   0.0000       1.529037        41.6072 
 204   0.0000       1.536851        41.8198 
 205   0.0000       1.559298        42.4306 
 206   0.0000       1.562544        42.5190 
 207   0.0000       1.572452        42.7886 
 208   0.0000       1.579284        42.9745 
 209   0.0000       1.588158        43.2160 
 210   0.0000       1.610509        43.8242 
 211   0.0000       1.619784        44.0766 
 212   0.0000       1.620905        44.1071 
 213   0.0000       1.632924        44.4341 
 214   0.0000       1.646016        44.7904 
 215   0.0000       1.654432        45.0194 
 216   0.0000       1.662562        45.2406 
 217   0.0000       1.681934        45.7677 
 218   0.0000       1.685568        45.8666 
 219   0.0000       1.693654        46.0867 
 220   0.0000       1.698406        46.2160 
 221   0.0000       1.710551        46.5465 
 222   0.0000       1.728470        47.0340 
 223   0.0000       1.734972        47.2110 
 224   0.0000       1.740435        47.3596 
 225   0.0000       1.752334        47.6834 
 226   0.0000       1.765684        48.0467 
 227   0.0000       1.781488        48.4768 
 228   0.0000       1.788057        48.6555 
 229   0.0000       1.823251        49.6132 
 230   0.0000       1.830709        49.8161 
 231   0.0000       1.834564        49.9210 
 232   0.0000       1.839982        50.0685 
 233   0.0000       1.865909        50.7740 
 234   0.0000       1.871746        50.9328 
 235   0.0000       1.888843        51.3980 
 236   0.0000       1.911137        52.0047 
 237   0.0000       1.938071        52.7376 
 238   0.0000       1.945631        52.9433 
 239   0.0000       1.976663        53.7877 
 240   0.0000       1.990276        54.1582 
 241   0.0000       2.011261        54.7292 
 242   0.0000       2.038604        55.4732 
 243   0.0000       2.040609        55.5278 
 244   0.0000       2.053411        55.8761 
 245   0.0000       2.064778        56.1855 
 246   0.0000       2.084743        56.7287 
 247   0.0000       2.101645        57.1887 
 248   0.0000       2.129846        57.9561 
 249   0.0000       2.140886        58.2565 
 250   0.0000       2.156454        58.6801 
 251   0.0000       2.158667        58.7403 
 252   0.0000       2.164000        58.8854 
 253   0.0000       2.202454        59.9318 
 254   0.0000       2.220171        60.4139 
 255   0.0000       2.237850        60.8950 
 256   0.0000       2.258772        61.4643 
 257   0.0000       2.261707        61.5442 
 258   0.0000       2.272802        61.8461 
 259   0.0000       2.286855        62.2285 
 260   0.0000       2.339513        63.6614 
 261   0.0000       2.340707        63.6939 
 262   0.0000       2.369552        64.4788 
 263   0.0000       2.383400        64.8556 
 264   0.0000       2.389215        65.0139 
 265   0.0000       2.396028        65.1992 
 266   0.0000       2.404243        65.4228 
 267   0.0000       2.420075        65.8536 
 268   0.0000       2.427293        66.0500 
 269   0.0000       2.441867        66.4466 
 270   0.0000       2.442436        66.4621 
 271   0.0000       2.456963        66.8574 
 272   0.0000       2.481293        67.5194 
 273   0.0000       2.494635        67.8825 
 274   0.0000       2.497566        67.9622 
 275   0.0000       2.499866        68.0248 
 276   0.0000       2.519510        68.5593 
 277   0.0000       2.555468        69.5378 
 278   0.0000       2.563049        69.7441 
 279   0.0000       2.597444        70.6801 
 280   0.0000       2.621334        71.3301 
 281   0.0000       2.632418        71.6317 
 282   0.0000       2.660587        72.3983 
 283   0.0000       2.682320        72.9896 
 284   0.0000       2.701303        73.5062 
 285   0.0000       2.714365        73.8616 
 286   0.0000       2.748391        74.7875 
 287   0.0000       2.756285        75.0023 
 288   0.0000       2.774454        75.4967 
 289   0.0000       2.782351        75.7116 
 290   0.0000       2.817825        76.6769 
 291   0.0000       2.904770        79.0428 
 292   0.0000       2.986882        81.2772 
 293   0.0000       3.024902        82.3118 
 294   0.0000       3.088308        84.0371 
 295   0.0000       3.112725        84.7016 
 296   0.0000       3.363574        91.5275 
 297   0.0000       3.417267        92.9886 
 298   0.0000       3.435942        93.4967 
 299   0.0000       3.440043        93.6083 
 300   0.0000       4.920365       133.8899 
 301   0.0000       4.970253       135.2474 
 302   0.0000       4.989817       135.7798 
 303   0.0000       4.992473       135.8521 
 304   0.0000       5.002427       136.1230 
 305   0.0000       5.009895       136.3262 
 306   0.0000       5.019929       136.5992 
 307   0.0000       5.046446       137.3208 
 308   0.0000       5.050324       137.4263 
 309   0.0000       5.078297       138.1875 
 310   0.0000       5.132094       139.6514 
 311   0.0000       5.159505       140.3973 
 312   0.0000       5.173205       140.7701 
 313   0.0000       5.205208       141.6409 
 314   0.0000       5.256617       143.0398 
 315   0.0000       5.267639       143.3397 
 316   0.0000       5.293817       144.0521 
 317   0.0000       5.306929       144.4089 
 318   0.0000       5.334743       145.1658 
 319   0.0000       5.353864       145.6861 
 320   0.0000       5.372155       146.1838 
 321   0.0000       5.476885       149.0336 
 322   0.0000       5.575210       151.7092 
 323   0.0000       5.636812       153.3854 
 324   0.0000       5.710126       155.3804 
 325   0.0000       5.738728       156.1587 
 326   0.0000       5.852190       159.2462 
 327   0.0000       7.210216       196.1999 
 328   0.0000       7.294901       198.5043 
 329   0.0000       7.326784       199.3719 
 330   0.0000       9.082762       247.1545 
 331   0.0000       9.106494       247.8003 
 332   0.0000      29.583820       805.0167 
 333   0.0000      29.631572       806.3161 
 334   0.0000      29.760044       809.8120 
 335   0.0000      29.895127       813.4878 
 336   0.0000      29.907522       813.8250 
 337   0.0000      30.046472       817.6061 
 338   0.0000      30.082099       818.5755 
 339   0.0000      30.152987       820.5045 
 340   0.0000      30.258695       823.3809 
 341   0.0000      36.540301       994.3121 
 342   0.0000      36.607216       996.1330 
 343   0.0000      36.610666       996.2269 
 344   0.0000      36.614993       996.3446 
 345   0.0000      36.625618       996.6337 
 346   0.0000      36.639376       997.0081 
 347   0.0000      36.641729       997.0721 
 348   0.0000      36.664124       997.6815 
 349   0.0000      36.702443       998.7242 
 350   0.0000      36.716896       999.1175 
 351   0.0000      36.730534       999.4886 
 352   0.0000      36.791780      1001.1552 
 353   0.0000      36.807989      1001.5963 
 354   0.0000      36.854078      1002.8505 
 355   0.0000      36.886535      1003.7337 
 356   0.0000      36.897516      1004.0325 
 357   0.0000      36.924297      1004.7612 
 358   0.0000      36.929203      1004.8947 
 359   0.0000      41.154926      1119.8825 
 360   0.0000      41.233030      1122.0078 
 361   0.0000      41.265992      1122.9047 
 362   0.0000      53.618852      1459.0431 
 363   0.0000      53.641824      1459.6682 

                 SPIN DOWN ORBITALS
  NO   OCC          E(Eh)            E(eV) 
   0   1.0000     -19.120954      -520.3076 
   1   1.0000     -19.100148      -519.7414 
   2   1.0000     -14.370658      -391.0455 
   3   1.0000     -14.349735      -390.4761 
   4   1.0000     -14.308225      -389.3466 
   5   1.0000     -10.301506      -280.3182 
   6   1.0000     -10.288326      -279.9596 
   7   1.0000     -10.239657      -278.6352 
   8   1.0000     -10.225327      -278.2453 
   9   1.0000     -10.206062      -277.7211 
  10   1.0000     -10.196450      -277.4595 
  11   1.0000     -10.185832      -277.1706 
  12   1.0000     -10.185266      -277.1552 
  13   1.0000     -10.177704      -276.9494 
  14   1.0000      -1.043840       -28.4043 
  15   1.0000      -1.022003       -27.8101 
  16   1.0000      -0.929760       -25.3000 
  17   1.0000      -0.916629       -24.9427 
  18   1.0000      -0.875736       -23.8300 
  19   1.0000      -0.792107       -21.5543 
  20   1.0000      -0.754567       -20.5328 
  21   1.0000      -0.727010       -19.7829 
  22   1.0000      -0.712986       -19.4013 
  23   1.0000      -0.662687       -18.0326 
  24   1.0000      -0.611497       -16.6397 
  25   1.0000      -0.597485       -16.2584 
  26   1.0000      -0.579931       -15.7807 
  27   1.0000      -0.547576       -14.9003 
  28   1.0000      -0.536420       -14.5967 
  29   1.0000      -0.488166       -13.2837 
  30   1.0000      -0.479704       -13.0534 
  31   1.0000      -0.471924       -12.8417 
  32   1.0000      -0.462108       -12.5746 
  33   1.0000      -0.455961       -12.4073 
  34   1.0000      -0.449461       -12.2305 
  35   1.0000      -0.445713       -12.1285 
  36   1.0000      -0.427687       -11.6380 
  37   1.0000      -0.424072       -11.5396 
  38   1.0000      -0.419826       -11.4241 
  39   1.0000      -0.405209       -11.0263 
  40   1.0000      -0.399224       -10.8634 
  41   1.0000      -0.394935       -10.7467 
  42   1.0000      -0.385193       -10.4816 
  43   1.0000      -0.372371       -10.1327 
  44   1.0000      -0.368836       -10.0365 
  45   1.0000      -0.359079        -9.7710 
  46   1.0000      -0.344346        -9.3701 
  47   1.0000      -0.340342        -9.2612 
  48   1.0000      -0.328839        -8.9482 
  49   1.0000      -0.269967        -7.3462 
  50   1.0000      -0.267964        -7.2917 
  51   1.0000      -0.250722        -6.8225 
  52   1.0000      -0.246016        -6.6944 
  53   1.0000      -0.237649        -6.4668 
  54   0.0000      -0.044604        -1.2137 
  55   0.0000       0.007321         0.1992 
  56   0.0000       0.012262         0.3337 
  57   0.0000       0.025548         0.6952 
  58   0.0000       0.027711         0.7541 
  59   0.0000       0.030960         0.8425 
  60   0.0000       0.034175         0.9300 
  61   0.0000       0.046833         1.2744 
  62   0.0000       0.060190         1.6379 
  63   0.0000       0.066111         1.7990 
  64   0.0000       0.079982         2.1764 
  65   0.0000       0.088969         2.4210 
  66   0.0000       0.094163         2.5623 
  67   0.0000       0.116638         3.1739 
  68   0.0000       0.127796         3.4775 
  69   0.0000       0.149904         4.0791 
  70   0.0000       0.153550         4.1783 
  71   0.0000       0.162948         4.4340 
  72   0.0000       0.165935         4.5153 
  73   0.0000       0.176868         4.8128 
  74   0.0000       0.182051         4.9539 
  75   0.0000       0.187790         5.1100 
  76   0.0000       0.193981         5.2785 
  77   0.0000       0.198060         5.3895 
  78   0.0000       0.203148         5.5279 
  79   0.0000       0.205890         5.6026 
  80   0.0000       0.215291         5.8584 
  81   0.0000       0.223948         6.0939 
  82   0.0000       0.228948         6.2300 
  83   0.0000       0.231012         6.2862 
  84   0.0000       0.235779         6.4159 
  85   0.0000       0.246358         6.7038 
  86   0.0000       0.249493         6.7890 
  87   0.0000       0.251316         6.8386 
  88   0.0000       0.255298         6.9470 
  89   0.0000       0.265570         7.2265 
  90   0.0000       0.268164         7.2971 
  91   0.0000       0.276127         7.5138 
  92   0.0000       0.279636         7.6093 
  93   0.0000       0.284879         7.7519 
  94   0.0000       0.291311         7.9270 
  95   0.0000       0.294363         8.0100 
  96   0.0000       0.304090         8.2747 
  97   0.0000       0.307312         8.3624 
  98   0.0000       0.314713         8.5638 
  99   0.0000       0.322553         8.7771 
 100   0.0000       0.328258         8.9324 
 101   0.0000       0.332977         9.0608 
 102   0.0000       0.333813         9.0835 
 103   0.0000       0.354037         9.6338 
 104   0.0000       0.366165         9.9639 
 105   0.0000       0.374602        10.1934 
 106   0.0000       0.382554        10.4098 
 107   0.0000       0.389288        10.5931 
 108   0.0000       0.393123        10.6974 
 109   0.0000       0.406935        11.0733 
 110   0.0000       0.412005        11.2112 
 111   0.0000       0.425821        11.5872 
 112   0.0000       0.437101        11.8941 
 113   0.0000       0.443731        12.0745 
 114   0.0000       0.452128        12.3030 
 115   0.0000       0.459628        12.5071 
 116   0.0000       0.473379        12.8813 
 117   0.0000       0.490012        13.3339 
 118   0.0000       0.493674        13.4336 
 119   0.0000       0.511925        13.9302 
 120   0.0000       0.525730        14.3058 
 121   0.0000       0.529767        14.4157 
 122   0.0000       0.540271        14.7015 
 123   0.0000       0.558151        15.1881 
 124   0.0000       0.570366        15.5205 
 125   0.0000       0.577342        15.7103 
 126   0.0000       0.590784        16.0761 
 127   0.0000       0.611876        16.6500 
 128   0.0000       0.617006        16.7896 
 129   0.0000       0.624965        17.0062 
 130   0.0000       0.666676        18.1412 
 131   0.0000       0.672995        18.3131 
 132   0.0000       0.677515        18.4361 
 133   0.0000       0.687506        18.7080 
 134   0.0000       0.701497        19.0887 
 135   0.0000       0.731603        19.9079 
 136   0.0000       0.759478        20.6664 
 137   0.0000       0.776970        21.1424 
 138   0.0000       0.783899        21.3310 
 139   0.0000       0.793736        21.5987 
 140   0.0000       0.804313        21.8865 
 141   0.0000       0.818165        22.2634 
 142   0.0000       0.821479        22.3536 
 143   0.0000       0.831850        22.6358 
 144   0.0000       0.835498        22.7350 
 145   0.0000       0.851906        23.1815 
 146   0.0000       0.858407        23.3585 
 147   0.0000       0.865194        23.5431 
 148   0.0000       0.876710        23.8565 
 149   0.0000       0.879517        23.9329 
 150   0.0000       0.886729        24.1291 
 151   0.0000       0.888355        24.1734 
 152   0.0000       0.896784        24.4027 
 153   0.0000       0.914088        24.8736 
 154   0.0000       0.917171        24.9575 
 155   0.0000       0.924997        25.1705 
 156   0.0000       0.927799        25.2467 
 157   0.0000       0.932132        25.3646 
 158   0.0000       0.936164        25.4743 
 159   0.0000       0.947028        25.7699 
 160   0.0000       0.952749        25.9256 
 161   0.0000       0.967150        26.3175 
 162   0.0000       0.974197        26.5093 
 163   0.0000       0.976634        26.5756 
 164   0.0000       0.986284        26.8381 
 165   0.0000       1.005181        27.3524 
 166   0.0000       1.022904        27.8346 
 167   0.0000       1.033282        28.1170 
 168   0.0000       1.039466        28.2853 
 169   0.0000       1.047582        28.5061 
 170   0.0000       1.064390        28.9635 
 171   0.0000       1.083321        29.4787 
 172   0.0000       1.094534        29.7838 
 173   0.0000       1.138550        30.9815 
 174   0.0000       1.143148        31.1067 
 175   0.0000       1.156030        31.4572 
 176   0.0000       1.161913        31.6173 
 177   0.0000       1.168667        31.8011 
 178   0.0000       1.172462        31.9043 
 179   0.0000       1.188236        32.3336 
 180   0.0000       1.200205        32.6592 
 181   0.0000       1.213059        33.0090 
 182   0.0000       1.225261        33.3410 
 183   0.0000       1.237238        33.6670 
 184   0.0000       1.280505        34.8443 
 185   0.0000       1.305524        35.5251 
 186   0.0000       1.311466        35.6868 
 187   0.0000       1.337382        36.3920 
 188   0.0000       1.350735        36.7554 
 189   0.0000       1.364491        37.1297 
 190   0.0000       1.370604        37.2960 
 191   0.0000       1.379095        37.5271 
 192   0.0000       1.403988        38.2045 
 193   0.0000       1.409114        38.3440 
 194   0.0000       1.412648        38.4401 
 195   0.0000       1.414414        38.4881 
 196   0.0000       1.431566        38.9549 
 197   0.0000       1.463705        39.8294 
 198   0.0000       1.480093        40.2754 
 199   0.0000       1.487240        40.4699 
 200   0.0000       1.498434        40.7745 
 201   0.0000       1.505075        40.9552 
 202   0.0000       1.525609        41.5139 
 203   0.0000       1.531729        41.6805 
 204   0.0000       1.539156        41.8826 
 205   0.0000       1.560540        42.4644 
 206   0.0000       1.564349        42.5681 
 207   0.0000       1.574451        42.8430 
 208   0.0000       1.580766        43.0148 
 209   0.0000       1.591231        43.2996 
 210   0.0000       1.613754        43.9125 
 211   0.0000       1.621428        44.1213 
 212   0.0000       1.625125        44.2219 
 213   0.0000       1.635607        44.5071 
 214   0.0000       1.648483        44.8575 
 215   0.0000       1.659045        45.1449 
 216   0.0000       1.663701        45.2716 
 217   0.0000       1.683761        45.8175 
 218   0.0000       1.689682        45.9786 
 219   0.0000       1.698310        46.2134 
 220   0.0000       1.701106        46.2895 
 221   0.0000       1.714410        46.6515 
 222   0.0000       1.728931        47.0466 
 223   0.0000       1.736115        47.2421 
 224   0.0000       1.741946        47.4008 
 225   0.0000       1.754994        47.7558 
 226   0.0000       1.768029        48.1105 
 227   0.0000       1.786758        48.6202 
 228   0.0000       1.792630        48.7799 
 229   0.0000       1.826025        49.6887 
 230   0.0000       1.832265        49.8585 
 231   0.0000       1.836763        49.9809 
 232   0.0000       1.843390        50.1612 
 233   0.0000       1.870941        50.9109 
 234   0.0000       1.875780        51.0426 
 235   0.0000       1.890172        51.4342 
 236   0.0000       1.915356        52.1195 
 237   0.0000       1.938911        52.7605 
 238   0.0000       1.948208        53.0134 
 239   0.0000       1.977248        53.8037 
 240   0.0000       1.991330        54.1868 
 241   0.0000       2.012304        54.7576 
 242   0.0000       2.041149        55.5425 
 243   0.0000       2.042753        55.5861 
 244   0.0000       2.054987        55.9190 
 245   0.0000       2.067357        56.2556 
 246   0.0000       2.085424        56.7473 
 247   0.0000       2.104153        57.2569 
 248   0.0000       2.133803        58.0637 
 249   0.0000       2.143156        58.3182 
 250   0.0000       2.157824        58.7174 
 251   0.0000       2.161898        58.8282 
 252   0.0000       2.170299        59.0568 
 253   0.0000       2.203398        59.9575 
 254   0.0000       2.221250        60.4433 
 255   0.0000       2.241312        60.9892 
 256   0.0000       2.261310        61.5334 
 257   0.0000       2.265070        61.6357 
 258   0.0000       2.275483        61.9190 
 259   0.0000       2.288777        62.2808 
 260   0.0000       2.340511        63.6885 
 261   0.0000       2.344015        63.7839 
 262   0.0000       2.371741        64.5383 
 263   0.0000       2.384187        64.8770 
 264   0.0000       2.390715        65.0547 
 265   0.0000       2.396218        65.2044 
 266   0.0000       2.405180        65.4483 
 267   0.0000       2.421040        65.8798 
 268   0.0000       2.427740        66.0622 
 269   0.0000       2.442158        66.4545 
 270   0.0000       2.444145        66.5086 
 271   0.0000       2.461113        66.9703 
 272   0.0000       2.482841        67.5615 
 273   0.0000       2.496781        67.9409 
 274   0.0000       2.498149        67.9781 
 275   0.0000       2.501600        68.0720 
 276   0.0000       2.522577        68.6428 
 277   0.0000       2.556628        69.5694 
 278   0.0000       2.565829        69.8198 
 279   0.0000       2.599293        70.7304 
 280   0.0000       2.621918        71.3460 
 281   0.0000       2.633255        71.6545 
 282   0.0000       2.661913        72.4343 
 283   0.0000       2.683325        73.0170 
 284   0.0000       2.703070        73.5543 
 285   0.0000       2.714728        73.8715 
 286   0.0000       2.748697        74.7958 
 287   0.0000       2.756627        75.0116 
 288   0.0000       2.774823        75.5068 
 289   0.0000       2.784151        75.7606 
 290   0.0000       2.817938        76.6800 
 291   0.0000       2.905112        79.0521 
 292   0.0000       2.987082        81.2826 
 293   0.0000       3.025041        82.3156 
 294   0.0000       3.088514        84.0427 
 295   0.0000       3.112909        84.7066 
 296   0.0000       3.363656        91.5297 
 297   0.0000       3.417371        92.9914 
 298   0.0000       3.436052        93.4997 
 299   0.0000       3.440153        93.6113 
 300   0.0000       4.920676       133.8984 
 301   0.0000       4.971799       135.2895 
 302   0.0000       4.989858       135.7809 
 303   0.0000       4.992746       135.8595 
 304   0.0000       5.009084       136.3041 
 305   0.0000       5.012145       136.3874 
 306   0.0000       5.020350       136.6107 
 307   0.0000       5.047527       137.3502 
 308   0.0000       5.057955       137.6339 
 309   0.0000       5.082828       138.3108 
 310   0.0000       5.133078       139.6781 
 311   0.0000       5.159856       140.4068 
 312   0.0000       5.176800       140.8679 
 313   0.0000       5.206292       141.6704 
 314   0.0000       5.256726       143.0428 
 315   0.0000       5.268864       143.3731 
 316   0.0000       5.295592       144.1004 
 317   0.0000       5.314169       144.6059 
 318   0.0000       5.339386       145.2921 
 319   0.0000       5.354956       145.7158 
 320   0.0000       5.376437       146.3003 
 321   0.0000       5.481099       149.1483 
 322   0.0000       5.577557       151.7730 
 323   0.0000       5.638484       153.4310 
 324   0.0000       5.710107       155.3799 
 325   0.0000       5.739069       156.1680 
 326   0.0000       5.860016       159.4592 
 327   0.0000       7.210365       196.2040 
 328   0.0000       7.294956       198.5058 
 329   0.0000       7.326854       199.3738 
 330   0.0000       9.082964       247.1600 
 331   0.0000       9.106669       247.8051 
 332   0.0000      29.587537       805.1178 
 333   0.0000      29.632239       806.3342 
 334   0.0000      29.765122       809.9501 
 335   0.0000      29.895185       813.4893 
 336   0.0000      29.912076       813.9490 
 337   0.0000      30.047237       817.6269 
 338   0.0000      30.082305       818.5811 
 339   0.0000      30.153030       820.5057 
 340   0.0000      30.262406       823.4819 
 341   0.0000      36.540342       994.3133 
 342   0.0000      36.607490       996.1404 
 343   0.0000      36.610724       996.2284 
 344   0.0000      36.615156       996.3491 
 345   0.0000      36.638825       996.9931 
 346   0.0000      36.639509       997.0117 
 347   0.0000      36.645265       997.1684 
 348   0.0000      36.673336       997.9322 
 349   0.0000      36.705314       998.8024 
 350   0.0000      36.717653       999.1381 
 351   0.0000      36.730846       999.4971 
 352   0.0000      36.786365      1001.0079 
 353   0.0000      36.810510      1001.6649 
 354   0.0000      36.856590      1002.9188 
 355   0.0000      36.893520      1003.9237 
 356   0.0000      36.901567      1004.1427 
 357   0.0000      36.925778      1004.8015 
 358   0.0000      36.937259      1005.1139 
 359   0.0000      41.154986      1119.8841 
 360   0.0000      41.233061      1122.0086 
 361   0.0000      41.266026      1122.9056 
 362   0.0000      53.618964      1459.0462 
 363   0.0000      53.641926      1459.6710 

                    ********************************
                    * MULLIKEN POPULATION ANALYSIS *
                    ********************************

--------------------------------------------
MULLIKEN ATOMIC CHARGES AND SPIN POPULATIONS
--------------------------------------------
   0 N :   -0.111944    0.000010
   1 C :   -0.146640    0.002518
   2 C :    0.119391    0.011655
   3 O :   -0.335759    0.001395
   4 C :   -0.271366   -0.060794
   5 C :   -0.078780    0.998421
   6 C :   -0.316913   -0.060856
   7 C :   -0.287481    0.009476
   8 N :   -0.459195    0.001343
   9 H :    0.127240   -0.048133
  10 H :    0.148059    0.054772
  11 H :    0.163048    0.019572
  12 H :    0.166433   -0.000821
  13 H :    0.136331   -0.000693
  14 H :    0.210312   -0.000257
  15 H :    0.210364    0.000122
  16 H :    0.251852    0.000096
  17 C :    0.175099    0.000118
  18 N :   -0.104265   -0.002693
  19 H :    0.233872    0.000220
  20 O :   -0.327354    0.003123
  21 C :   -0.555435   -0.000047
  22 H :    0.185440    0.000014
  23 H :    0.186480    0.000008
  24 H :    0.149332    0.000023
  25 C :   -0.443531    0.000360
  26 H :    0.177201    0.000036
  27 H :    0.144829    0.000011
  28 H :    0.188742    0.000124
  29 H :    0.156642   -0.000110
  30 H :    0.127136    0.019996
  31 H :    0.180860    0.050990
Sum of atomic charges         :    0.0000000
Sum of atomic spin populations:    1.0000000

-----------------------------------------------------
MULLIKEN REDUCED ORBITAL CHARGES AND SPIN POPULATIONS
-----------------------------------------------------
CHARGE
  0 N s       :     3.364281  s :     3.364281
      pz      :     1.113890  p :     3.713868
      px      :     1.366200
      py      :     1.233778
      dz2     :     0.010240  d :     0.033794
      dxz     :     0.004664
      dyz     :     0.008113
      dx2y2   :     0.004867
      dxy     :     0.005911
  1 C s       :     3.190131  s :     3.190131
      pz      :     0.993577  p :     2.852257
      px      :     0.962637
      py      :     0.896044
      dz2     :     0.011558  d :     0.104252
      dxz     :     0.028685
      dyz     :     0.023930
      dx2y2   :     0.022097
      dxy     :     0.017981
  2 C s       :     3.082009  s :     3.082009
      pz      :     0.868458  p :     2.605420
      px      :     0.814813
      py      :     0.922149
      dz2     :     0.036218  d :     0.193181
      dxz     :     0.046477
      dyz     :     0.080622
      dx2y2   :     0.014783
      dxy     :     0.015081
  3 O s       :     3.901085  s :     3.901085
      pz      :     1.209294  p :     4.416436
      px      :     1.468633
[...]
                 0.3311              -1.6938               0.3219
                 1.9327               0.3214              -0.7855

 A(FC)          -0.1433              -0.1433              -0.1433
 A(SD)          -1.4687              -1.7440               3.2127
 A(ORB+DIA)      0.0001               0.0001               0.0016    A(PC) =   0.0006
 A(ORB)         -0.0000              -0.0001               0.0013    A(PC) =   0.0004
 A(DIA)          0.0001               0.0002               0.0003    A(PC) =   0.0002
             ----------           ----------           ----------
 A(Tot)         -1.6119              -1.8872               3.0710    A(iso)=   -0.1427
 Orientation: 
  X          -0.3643461           -0.2833881            0.8870981
  Y           0.7412574           -0.6648794            0.0920477
  Z           0.5637281            0.6911053            0.4523098

Notes:  (1) The A matrix conforms to the "SAI" spin Hamiltonian convention.
        (2) Tensor is right-handed.

 -----------------------------------------------------------
 Nucleus  29H : A:ISTP=    1 I=  0.5 P=533.5514 MHz/au**3
                Q:ISTP=    2 I=  1.0 Q=  0.0029 barn     
 -----------------------------------------------------------
 Solving for nuclear perturbation:
Forming RHS of the CP-SCF equations         ... 
Calc. nucleus orbit integrals (SHARK)       ... done

------------------------------------------------------------------------------
                           ORCA CP-SCF CALCULATION
------------------------------------------------------------------------------

Input orbitals are from        ... epr_info.gbw
Input Perturbation             ... epr_info.pin.tmp
Wavefunction output            ... epr_info.pout.tmp
Perturbation mode              ... Imaginary perturbation
Solver                         ... POPLE
Max. number of iterations      ... 64
Convergence tolerance          ... 1.000e-03
Integral handling              ... Direct
DFT GridXC                     ... 1
COSX GridX                     ... 1
COSX IntAccX                   ... 3.067
COSX Algorithm                 ... Auto
Number of perturbations        ... 3
Number of operators            ... 2
Orbital ranges used for CP-SCF:
 Operator 0:  Orbitals   0... 54  to  55...363
 Operator 1:  Orbitals   0... 53  to  54...363
Variables per perturbation     ... 33735
DFT calculation                         ... on
XC functional terms                     ... off
Hybrid DFT                              ... on
   Exchange mixing (SCF)                ...  0.200
   Exchange mixing (CP-SCF)             ...  0.200
   GGA exch. scaling(SCF)               ...  0.720
   GGA exch. scaling (CP-SCF)           ...  0.720
   GGA corr. scaling (SCF)              ...  0.810
   GGA corr. scaling (CP-SCF)           ...  0.810

CP-SCF GRID
-----------

General Integration Accuracy     IntAcc      ... 3.467
Radial Grid Type                 RadialGrid  ... OptM3 with GC (2021)
Angular Grid (max. ang.)         AngularGrid ... 1 (Lebedev-50)
Angular grid pruning method      GridPruning ... 4 (adaptive)
Weight generation scheme         WeightScheme... Becke
Basis function cutoff            BFCut       ... 1.0000e-10
Integration weight cutoff        WCut        ... 1.0000e-14
Angular grids for H and He will be reduced by one unit
Partially contracted basis set               ... off
Rotationally invariant grid construction     ... off

Total number of grid points                  ...    19993
Total number of batches                      ...      329
Average number of points per batch           ...       60
Average number of grid points per atom       ...      625

CP-SCF GRIDX
------------

General Integration Accuracy     IntAcc      ... 3.067
Radial Grid Type                 RadialGrid  ... OptM3 with GC (2021)
Angular Grid (max. ang.)         AngularGrid ... 1 (Lebedev-50)
Angular grid pruning method      GridPruning ... 4 (adaptive)
Weight generation scheme         WeightScheme... Becke
Basis function cutoff            BFCut       ... 1.0000e-10
Integration weight cutoff        WCut        ... 1.0000e-14
Angular grids for H and He will be reduced by one unit
Partially contracted basis set               ... on
Rotationally invariant grid construction     ... off

Total number of grid points                  ...     9437
Total number of batches                      ...      166
Average number of points per batch           ...       56
Average number of grid points per atom       ...      295

Memory available               ... 921.9 MB
Memory needed per perturbation ...   8.0 MB
Perturbations treated per batch... 3
Number of batches              ... 1
     CP-SCF ITERATION   0:   4.1505e-02 (   0.5 sec   0/  3 done)
     CP-SCF ITERATION   1:   1.2575e-03 (   0.5 sec   1/  3 done)
     CP-SCF ITERATION   2:   1.1916e-04 (   0.4 sec   3/  3 done)
                    *** THE CP-SCF HAS CONVERGED ***

Forming final perturbed densities           ... done
Transforming perturbed density to AO basis  ... done

 Raw HFC matrix (all values in MHz): 
 -----------------------------------
                 1.5554               1.5186              -1.5522
                 1.5180              -1.7210              -0.4355
                -1.5511              -0.4354              -1.8381

 A(FC)          -0.6686              -0.6686              -0.6686
 A(SD)          -1.5339              -1.8492               3.3831
 A(ORB+DIA)      0.0005               0.0000               0.0015    A(PC) =   0.0007
 A(ORB)          0.0003              -0.0003               0.0012    A(PC) =   0.0004
 A(DIA)          0.0002               0.0003               0.0003    A(PC) =   0.0003
             ----------           ----------           ----------
 A(Tot)         -2.2020              -2.5177               2.7160    A(iso)=   -0.6679
 Orientation: 
  X          -0.0969503            0.4615527            0.8817991
  Y           0.8185341           -0.4670528            0.3344601
  Z           0.5662177            0.7542087           -0.3325158

Notes:  (1) The A matrix conforms to the "SAI" spin Hamiltonian convention.
        (2) Tensor is right-handed.

 -----------------------------------------------------------
 Nucleus  30H : A:ISTP=    1 I=  0.5 P=533.5514 MHz/au**3
                Q:ISTP=    2 I=  1.0 Q=  0.0029 barn     
 -----------------------------------------------------------
 Solving for nuclear perturbation:
Forming RHS of the CP-SCF equations         ... 
Calc. nucleus orbit integrals (SHARK)       ... done

------------------------------------------------------------------------------
                           ORCA CP-SCF CALCULATION
------------------------------------------------------------------------------

Input orbitals are from        ... epr_info.gbw
Input Perturbation             ... epr_info.pin.tmp
Wavefunction output            ... epr_info.pout.tmp
Perturbation mode              ... Imaginary perturbation
Solver                         ... POPLE
Max. number of iterations      ... 64
Convergence tolerance          ... 1.000e-03
Integral handling              ... Direct
DFT GridXC                     ... 1
COSX GridX                     ... 1
COSX IntAccX                   ... 3.067
COSX Algorithm                 ... Auto
Number of perturbations        ... 3
Number of operators            ... 2
Orbital ranges used for CP-SCF:
 Operator 0:  Orbitals   0... 54  to  55...363
 Operator 1:  Orbitals   0... 53  to  54...363
Variables per perturbation     ... 33735
DFT calculation                         ... on
XC functional terms                     ... off
Hybrid DFT                              ... on
   Exchange mixing (SCF)                ...  0.200
   Exchange mixing (CP-SCF)             ...  0.200
   GGA exch. scaling(SCF)               ...  0.720
   GGA exch. scaling (CP-SCF)           ...  0.720
   GGA corr. scaling (SCF)              ...  0.810
   GGA corr. scaling (CP-SCF)           ...  0.810

CP-SCF GRID
-----------

General Integration Accuracy     IntAcc      ... 3.467
Radial Grid Type                 RadialGrid  ... OptM3 with GC (2021)
Angular Grid (max. ang.)         AngularGrid ... 1 (Lebedev-50)
Angular grid pruning method      GridPruning ... 4 (adaptive)
Weight generation scheme         WeightScheme... Becke
Basis function cutoff            BFCut       ... 1.0000e-10
Integration weight cutoff        WCut        ... 1.0000e-14
Angular grids for H and He will be reduced by one unit
Partially contracted basis set               ... off
Rotationally invariant grid construction     ... off

Total number of grid points                  ...    19993
Total number of batches                      ...      329
Average number of points per batch           ...       60
Average number of grid points per atom       ...      625

CP-SCF GRIDX
------------

General Integration Accuracy     IntAcc      ... 3.067
Radial Grid Type                 RadialGrid  ... OptM3 with GC (2021)
Angular Grid (max. ang.)         AngularGrid ... 1 (Lebedev-50)
Angular grid pruning method      GridPruning ... 4 (adaptive)
Weight generation scheme         WeightScheme... Becke
Basis function cutoff            BFCut       ... 1.0000e-10
Integration weight cutoff        WCut        ... 1.0000e-14
Angular grids for H and He will be reduced by one unit
Partially contracted basis set               ... on
Rotationally invariant grid construction     ... off

Total number of grid points                  ...     9437
Total number of batches                      ...      166
Average number of points per batch           ...       56
Average number of grid points per atom       ...      295

Memory available               ... 921.6 MB
Memory needed per perturbation ...   8.0 MB
Perturbations treated per batch... 3
Number of batches              ... 1
     CP-SCF ITERATION   0:   4.0315e-02 (   0.5 sec   0/  3 done)
     CP-SCF ITERATION   1:   1.1429e-03 (   0.5 sec   1/  3 done)
     CP-SCF ITERATION   2:   9.5475e-05 (   0.4 sec   3/  3 done)
                    *** THE CP-SCF HAS CONVERGED ***

Forming final perturbed densities           ... done
Transforming perturbed density to AO basis  ... done

 Raw HFC matrix (all values in MHz): 
 -----------------------------------
                45.8619               1.9853              -4.1693
                 1.9866              45.7464              -3.8766
                -4.1714              -3.8794              54.7179

 A(FC)          48.7737              48.7737              48.7737
 A(SD)          -4.9632              -4.1789               9.1421
 A(ORB+DIA)      0.0013               0.0002               0.0036    A(PC) =   0.0017
 A(ORB)          0.0009              -0.0004               0.0027    A(PC) =   0.0011
 A(DIA)          0.0004               0.0006               0.0009    A(PC) =   0.0006
             ----------           ----------           ----------
 A(Tot)         43.8118              44.5949              57.9194    A(iso)=   48.7754
 Orientation: 
  X           0.7406238            0.5693738           -0.3567770
  Y          -0.6704229            0.6616182           -0.3358489
  Z           0.0448267            0.4879292            0.8717314

Notes:  (1) The A matrix conforms to the "SAI" spin Hamiltonian convention.
        (2) Tensor is right-handed.

 -----------------------------------------------------------
 Nucleus  31H : A:ISTP=    1 I=  0.5 P=533.5514 MHz/au**3
                Q:ISTP=    2 I=  1.0 Q=  0.0029 barn     
 -----------------------------------------------------------
 Solving for nuclear perturbation:
Forming RHS of the CP-SCF equations         ... 
Calc. nucleus orbit integrals (SHARK)       ... done

------------------------------------------------------------------------------
                           ORCA CP-SCF CALCULATION
------------------------------------------------------------------------------

Input orbitals are from        ... epr_info.gbw
Input Perturbation             ... epr_info.pin.tmp
Wavefunction output            ... epr_info.pout.tmp
Perturbation mode              ... Imaginary perturbation
Solver                         ... POPLE
Max. number of iterations      ... 64
Convergence tolerance          ... 1.000e-03
Integral handling              ... Direct
DFT GridXC                     ... 1
COSX GridX                     ... 1
COSX IntAccX                   ... 3.067
COSX Algorithm                 ... Auto
Number of perturbations        ... 3
Number of operators            ... 2
Orbital ranges used for CP-SCF:
 Operator 0:  Orbitals   0... 54  to  55...363
 Operator 1:  Orbitals   0... 53  to  54...363
Variables per perturbation     ... 33735
DFT calculation                         ... on
XC functional terms                     ... off
Hybrid DFT                              ... on
   Exchange mixing (SCF)                ...  0.200
   Exchange mixing (CP-SCF)             ...  0.200
   GGA exch. scaling(SCF)               ...  0.720
   GGA exch. scaling (CP-SCF)           ...  0.720
   GGA corr. scaling (SCF)              ...  0.810
   GGA corr. scaling (CP-SCF)           ...  0.810

CP-SCF GRID
-----------

General Integration Accuracy     IntAcc      ... 3.467
Radial Grid Type                 RadialGrid  ... OptM3 with GC (2021)
Angular Grid (max. ang.)         AngularGrid ... 1 (Lebedev-50)
Angular grid pruning method      GridPruning ... 4 (adaptive)
Weight generation scheme         WeightScheme... Becke
Basis function cutoff            BFCut       ... 1.0000e-10
Integration weight cutoff        WCut        ... 1.0000e-14
Angular grids for H and He will be reduced by one unit
Partially contracted basis set               ... off
Rotationally invariant grid construction     ... off

Total number of grid points                  ...    19993
Total number of batches                      ...      329
Average number of points per batch           ...       60
Average number of grid points per atom       ...      625

CP-SCF GRIDX
------------

General Integration Accuracy     IntAcc      ... 3.067
Radial Grid Type                 RadialGrid  ... OptM3 with GC (2021)
Angular Grid (max. ang.)         AngularGrid ... 1 (Lebedev-50)
Angular grid pruning method      GridPruning ... 4 (adaptive)
Weight generation scheme         WeightScheme... Becke
Basis function cutoff            BFCut       ... 1.0000e-10
Integration weight cutoff        WCut        ... 1.0000e-14
Angular grids for H and He will be reduced by one unit
Partially contracted basis set               ... on
Rotationally invariant grid construction     ... off

Total number of grid points                  ...     9437
Total number of batches                      ...      166
Average number of points per batch           ...       56
Average number of grid points per atom       ...      295

Memory available               ... 921.2 MB
Memory needed per perturbation ...   8.0 MB
Perturbations treated per batch... 3
Number of batches              ... 1
     CP-SCF ITERATION   0:   4.0277e-02 (   0.5 sec   0/  3 done)
     CP-SCF ITERATION   1:   1.0101e-03 (   0.5 sec   2/  3 done)
     CP-SCF ITERATION   2:   8.2367e-05 (   0.3 sec   3/  3 done)
                    *** THE CP-SCF HAS CONVERGED ***

Forming final perturbed densities           ... done
Transforming perturbed density to AO basis  ... done

 Raw HFC matrix (all values in MHz): 
 -----------------------------------
               130.3017              -0.9433              -6.1388
                -0.9426             127.1082               1.9636
                -6.1404               1.9662             131.4653

 A(FC)         129.6244             129.6244             129.6244
 A(SD)          -5.0831              -2.7624               7.8455
 A(ORB+DIA)     -0.0007               0.0002               0.0026    A(PC) =   0.0007
 A(ORB)         -0.0010              -0.0002               0.0020    A(PC) =   0.0003
 A(DIA)          0.0003               0.0004               0.0007    A(PC) =   0.0005
             ----------           ----------           ----------
 A(Tot)        124.5405             126.8622             137.4725    A(iso)=  129.6251
 Orientation: 
  X          -0.6810268            0.3325193            0.6524059
  Y           0.2703572            0.9421810           -0.1979947
  Z          -0.6805215            0.0415429           -0.7315495

Notes:  (1) The A matrix conforms to the "SAI" spin Hamiltonian convention.
        (2) Tensor is right-handed.


--------------------------------------------------------------------------------
----------------------------------------------------------------------------
                           ORCA EULER ANGLE PROGRAM
----------------------------------------------------------------------------

Only g-tensor available        -->  using g-tensor as reference tensor

Reference tensor               ...  g

g-tensor ordering              ...  |g_min> --> |gx>
                                    |g_mid> --> |gy>
                                    |g_max> --> |gz>

A- and EFG-tensor ordering     ...  the axes |Ax>, |Qx>, |Ay>, etc. are assigned
                                    such that the Euler rotation is minimal. You
                                    can find the respective eigenvalues as Ax,
                                    EFGx, Ay, etc. in the tables below.
                                    The relation of |Ax>, |Ay>,  etc. to Amin, Amid, etc.
                                    (as printed in the ORCA EPR/NMR CALCULATION Output)
                                    is obtained in the detailed printout.

Euler rotation around          ...  z - y - z
   First rotation              -->  by alpha around z
   Second rotation             -->  by beta around y'
   Third rotation              -->  by gamma around z''
   Positive / Negative angle   -->  clockwise / counterclockwise rotation

Plot EFG-tensors                    (-)
Plot HFC-tensors                    (-)
Detailed Printout                   (-)

-------------------------------------------------------------------------
          Euler rotation of hyperfine tensor to g-tensor
-------------------------------------------------------------------------

-------------------------------------------------------------------
 Atom  |   Alpha    Beta    Gamma   |   Ax       Ay       Az 
       |          [degrees]         |           [MHz]         
-------------------------------------------------------------------
  0N      -29.6     22.3     14.0      -4.19     2.68    -6.02
  8N      -23.3     29.7     61.8       3.57    -1.26    -3.64
  9H     -116.7     25.3    115.3     -59.40   -96.46   -19.73
 10H      149.8     26.6   -179.0     126.12   137.27   124.09
 11H       57.6     34.8    -43.9      43.35    57.26    44.09
 12H     -125.3     40.0    159.1      -4.37     4.47    -5.78
 13H      100.5     44.3   -105.3      -4.23    -4.45     3.99
 14H     -127.5     35.2    138.6      -1.18     1.15    -1.39
 15H     -154.3     35.9    149.4      -0.06     2.78    -0.78
 16H      149.9     38.8   -152.5      -1.61     3.07    -1.89
 29H     -136.2     43.9    136.3      -2.20     2.72    -2.52
 30H       90.2     20.1   -127.3      43.81    44.59    57.92
 31H       81.7     37.3    -53.2     126.86   124.54   137.47
-------------------------------------------------------------------


Maximum memory used throughout the entire EPRNMR-calculation: 135.8 MB

Timings for individual modules:

Sum of individual times         ...      399.486 sec (=   6.658 min)
GTO integral calculation        ...        3.555 sec (=   0.059 min)   0.9 %
Spin-Orbit-Coupling Matrices    ...        4.612 sec (=   0.077 min)   1.2 %
SCF iterations                  ...       23.833 sec (=   0.397 min)   6.0 %
EPR/NMR calculation             ...      367.488 sec (=   6.125 min)  92.0 %
                             ****ORCA TERMINATED NORMALLY****
TOTAL RUN TIME: 0 days 0 hours 6 minutes 42 seconds 115 msec
