
                                 *****************
                                 * O   R   C   A *
                                 *****************

                                            #,                                       
                                            ###                                      
                                            ####                                     
                                            #####                                    
                                            ######                                   
                                           ########,                                 
                                     ,,################,,,,,                         
                               ,,#################################,,                 
                          ,,##########################################,,             
                       ,#########################################, ''#####,          
                    ,#############################################,,   '####,        
                  ,##################################################,,,,####,       
                ,###########''''           ''''###############################       
              ,#####''   ,,,,##########,,,,          '''####'''          '####       
            ,##' ,,,,###########################,,,                        '##       
           ' ,,###''''                  '''############,,,                           
         ,,##''                                '''############,,,,        ,,,,,,###''
      ,#''                                            '''#######################'''  
     '                                                          ''''####''''         
             ,#######,   #######,   ,#######,      ##                                
            ,#'     '#,  ##    ##  ,#'     '#,    #''#        ######   ,####,        
            ##       ##  ##   ,#'  ##            #'  '#       #        #'  '#        
            ##       ##  #######   ##           ,######,      #####,   #    #        
            '#,     ,#'  ##    ##  '#,     ,#' ,#      #,         ##   #,  ,#        
             '#######'   ##     ##  '#######'  #'      '#     #####' # '####'        



                  #######################################################
                  #                        -***-                        #
                  #          Department of theory and spectroscopy      #
                  #    Directorship and core code : Frank Neese         #
                  #        Max Planck Institute fuer Kohlenforschung    #
                  #                Kaiser Wilhelm Platz 1               #
                  #                 D-45470 Muelheim/Ruhr               #
                  #                      Germany                        #
                  #                                                     #
                  #                  All rights reserved                #
                  #                        -***-                        #
                  #######################################################


                         Program Version 5.0.4 -  RELEASE  -


 With contributions from (in alphabetic order):
   Daniel Aravena         : Magnetic Suceptibility
   Michael Atanasov       : Ab Initio Ligand Field Theory (pilot matlab implementation)
   Alexander A. Auer      : GIAO ZORA, VPT2 properties, NMR spectrum
   Ute Becker             : Parallelization
   Giovanni Bistoni       : ED, misc. LED, open-shell LED, HFLD
   Martin Brehm           : Molecular dynamics
   Dmytro Bykov           : SCF Hessian
   Vijay G. Chilkuri      : MRCI spin determinant printing, contributions to CSF-ICE
   Dipayan Datta          : RHF DLPNO-CCSD density
   Achintya Kumar Dutta   : EOM-CC, STEOM-CC
   Dmitry Ganyushin       : Spin-Orbit,Spin-Spin,Magnetic field MRCI
   Miquel Garcia          : C-PCM and meta-GGA Hessian, CC/C-PCM, Gaussian charge scheme
   Yang Guo               : DLPNO-NEVPT2, F12-NEVPT2, CIM, IAO-localization
   Andreas Hansen         : Spin unrestricted coupled pair/coupled cluster methods
   Benjamin Helmich-Paris : MC-RPA, TRAH-SCF, COSX integrals
   Lee Huntington         : MR-EOM, pCC
   Robert Izsak           : Overlap fitted RIJCOSX, COSX-SCS-MP3, EOM
   Marcus Kettner         : VPT2
   Christian Kollmar      : KDIIS, OOCD, Brueckner-CCSD(T), CCSD density, CASPT2, CASPT2-K
   Simone Kossmann        : Meta GGA functionals, TD-DFT gradient, OOMP2, MP2 Hessian
   Martin Krupicka        : Initial AUTO-CI
   Lucas Lang             : DCDCAS
   Marvin Lechner         : AUTO-CI (C++ implementation), FIC-MRCC
   Dagmar Lenk            : GEPOL surface, SMD
   Dimitrios Liakos       : Extrapolation schemes; Compound Job, initial MDCI parallelization
   Dimitrios Manganas     : Further ROCIS development; embedding schemes
   Dimitrios Pantazis     : SARC Basis sets
   Anastasios Papadopoulos: AUTO-CI, single reference methods and gradients
   Taras Petrenko         : DFT Hessian,TD-DFT gradient, ASA, ECA, R-Raman, ABS, FL, XAS/XES, NRVS
   Peter Pinski           : DLPNO-MP2, DLPNO-MP2 Gradient
   Christoph Reimann      : Effective Core Potentials
   Marius Retegan         : Local ZFS, SOC
   Christoph Riplinger    : Optimizer, TS searches, QM/MM, DLPNO-CCSD(T), (RO)-DLPNO pert. Triples
   Tobias Risthaus        : Range-separated hybrids, TD-DFT gradient, RPA, STAB
   Michael Roemelt        : Original ROCIS implementation
   Masaaki Saitow         : Open-shell DLPNO-CCSD energy and density
   Barbara Sandhoefer     : DKH picture change effects
   Avijit Sen             : IP-ROCIS
   Kantharuban Sivalingam : CASSCF convergence, NEVPT2, FIC-MRCI
   Bernardo de Souza      : ESD, SOC TD-DFT
   Georgi Stoychev        : AutoAux, RI-MP2 NMR, DLPNO-MP2 response
   Willem Van den Heuvel  : Paramagnetic NMR
   Boris Wezisla          : Elementary symmetry handling
   Frank Wennmohs         : Technical directorship


 We gratefully acknowledge several colleagues who have allowed us to
 interface, adapt or use parts of their codes:
   Stefan Grimme, W. Hujo, H. Kruse, P. Pracht,  : VdW corrections, initial TS optimization,
                  C. Bannwarth, S. Ehlert          DFT functionals, gCP, sTDA/sTD-DF
   Ed Valeev, F. Pavosevic, A. Kumar             : LibInt (2-el integral package), F12 methods
   Garnet Chan, S. Sharma, J. Yang, R. Olivares  : DMRG
   Ulf Ekstrom                                   : XCFun DFT Library
   Mihaly Kallay                                 : mrcc  (arbitrary order and MRCC methods)
   Jiri Pittner, Ondrej Demel                    : Mk-CCSD
   Frank Weinhold                                : gennbo (NPA and NBO analysis)
   Christopher J. Cramer and Donald G. Truhlar   : smd solvation model
   Lars Goerigk                                  : TD-DFT with DH, B97 family of functionals
   V. Asgeirsson, H. Jonsson                     : NEB implementation
   FAccTs GmbH                                   : IRC, NEB, NEB-TS, DLPNO-Multilevel, CI-OPT
                                                   MM, QMMM, 2- and 3-layer-ONIOM, Crystal-QMMM,
                                                   LR-CPCM, SF, NACMEs, symmetry and pop. for TD-DFT,
                                                   nearIR, NL-DFT gradient (VV10), updates on ESD,
                                                   ML-optimized integration grids
   S Lehtola, MJT Oliveira, MAL Marques          : LibXC Library
   Liviu Ungur et al                             : ANISO software


 Your calculation uses the libint2 library for the computation of 2-el integrals
 For citations please refer to: http://libint.valeyev.net

 Your ORCA version has been built with support for libXC version: 5.1.0
 For citations please refer to: https://tddft.org/programs/libxc/

 This ORCA versions uses:
   CBLAS   interface :  Fast vector & matrix operations
   LAPACKE interface :  Fast linear algebra routines
   SCALAPACK package :  Parallel linear algebra routines
   Shared memory     :  Shared parallel matrices
   BLAS/LAPACK       :  OpenBLAS 0.3.15  USE64BITINT DYNAMIC_ARCH NO_AFFINITY Zen SINGLE_THREADED
        Core in use  :  Zen
   Copyright (c) 2011-2014, The OpenBLAS Project




***************************************
The coordinates will be read from file: opt.xyz
***************************************


XCFun DFT library Copyright 2009-2010 Ulf Ekstrom and contributors.
See http://admol.org/xcfun for more information.
This is free software; see the source code for copying conditions.
There is ABSOLUTELY NO WARRANTY; not even for MERCHANTABILITY or FITNESS FOR A PARTICULAR PURPOSE.
For details see the documentation.
Scientific users of this library should cite U. Ekstrom, L. Visscher, R. Bast, A. J. Thorvaldsen and K. Ruud;
J.Chem.Theor.Comp. 2010, DOI: 10.1021/ct100117s
XCFun Version 0.99 

================================================================================

----- Orbital basis set information -----
Your calculation utilizes the basis: def2-TZVP
   F. Weigend and R. Ahlrichs, Phys. Chem. Chem. Phys. 7, 3297 (2005).

----- AuxJ basis set information -----
Your calculation utilizes the auxiliary basis: def2/J
   F. Weigend, Phys. Chem. Chem. Phys. 8, 1057 (2006).

================================================================================
                                        WARNINGS
                       Please study these warnings very carefully!
================================================================================


WARNING: your system is open-shell and RHF/RKS was chosen
  ===> : WILL SWITCH to UHF/UKS


WARNING: Geometry Optimization
  ===> : Switching off AutoStart
         For restart on a previous wavefunction, please use MOREAD

WARNING: Minnesota functionals are quite sensitive to the integration grid.
         see SE Wheeler, KN Houk, JCTC 2010, 6, 395,
             N Mardirossian, M Head-Gordon, JCTC 2016, 12, 4303.
         DEFGRID3 seems to be a minimum grid for reliable results with these functionals!
  ===> : Please increase the integration grid!


INFO   : the flag for use of the SHARK integral package has been found!

================================================================================
                                       INPUT FILE
================================================================================
NAME = freq.inp
|  1> ! M062X def2-TZVP OPT FREQ
|  2> %pal nprocs 16 end
|  3> *XYZFile 0 2 opt.xyz
|  4> 
|  5>                          ****END OF INPUT****
================================================================================

                       *****************************
                       * Geometry Optimization Run *
                       *****************************

Geometry optimization settings:
Update method            Update   .... BFGS
Choice of coordinates    CoordSys .... Z-matrix Internals
Initial Hessian          InHess   .... Almoef's Model

Convergence Tolerances:
Energy Change            TolE     ....  5.0000e-06 Eh
Max. Gradient            TolMAXG  ....  3.0000e-04 Eh/bohr
RMS Gradient             TolRMSG  ....  1.0000e-04 Eh/bohr
Max. Displacement        TolMAXD  ....  4.0000e-03 bohr
RMS Displacement         TolRMSD  ....  2.0000e-03 bohr
Strict Convergence                ....  False
------------------------------------------------------------------------------
                        ORCA OPTIMIZATION COORDINATE SETUP
------------------------------------------------------------------------------

The optimization will be done in new redundant internal coordinates
Making redundant internal coordinates   ...  (new redundants) done
Evaluating the initial hessian          ...  (Almloef) done
Evaluating the coordinates              ...  done
Calculating the B-matrix                .... done
Calculating the G-matrix                .... done
Diagonalizing the G-matrix              .... done
Small eigenvalue found = 5.779e-03
Small eigenvalue found = 6.620e-03
Small eigenvalue found = 1.021e-02
Small eigenvalue found = 2.469e-02
Small eigenvalue found = 2.716e-02
The first mode is                       ....   63
The number of degrees of freedom        ....   90

    -----------------------------------------------------------------
                    Redundant Internal Coordinates


    -----------------------------------------------------------------
         Definition                    Initial Value    Approx d2E/dq
    -----------------------------------------------------------------
      1. B(C   1,N   0)                  1.4529         0.444099   
      2. B(C   2,C   1)                  1.5428         0.356396   
      3. B(O   3,C   2)                  1.2334         0.994785   
      4. B(C   4,C   1)                  1.5545         0.341482   
      5. B(C   5,C   4)                  1.5002         0.416772   
      6. B(C   6,C   5)                  1.5001         0.416946   
      7. B(C   7,C   6)                  1.5379         0.362926   
      8. B(N   8,C   7)                  1.4738         0.411326   
      9. B(H   9,C   5)                  1.0885         0.362136   
     10. B(H  10,C   6)                  1.1076         0.337602   
     11. B(H  11,C   6)                  1.0987         0.348769   
     12. B(H  12,C   7)                  1.0958         0.352454   
     13. B(H  13,C   7)                  1.1038         0.342284   
     14. B(H  14,N   8)                  1.0164         0.422581   
     15. B(H  15,N   8)                  1.0172         0.421346   
     16. B(H  16,N   0)                  1.0125         0.428752   
     17. B(C  17,N   0)                  1.3675         0.607842   
     18. B(N  18,C   2)                  1.3612         0.621964   
     19. B(H  19,N  18)                  1.0076         0.436511   
     20. B(O  20,C  17)                  1.2325         0.998210   
     21. B(C  21,C  17)                  1.5255         0.379744   
     22. B(H  22,C  21)                  1.0935         0.355510   
     23. B(H  23,C  21)                  1.0933         0.355787   
     24. B(H  24,C  21)                  1.0932         0.355935   
     25. B(C  25,N  18)                  1.4605         0.431917   
     26. B(H  26,C  25)                  1.0951         0.353416   
     27. B(H  27,C  25)                  1.0917         0.357808   
     28. B(H  28,C  25)                  1.0923         0.357043   
     29. B(H  29,C   1)                  1.0967         0.351303   
     30. B(H  30,C   4)                  1.1003         0.346773   
     31. B(H  31,C   4)                  1.1024         0.344046   
     32. A(C   1,N   0,H  16)          115.0846         0.338533   
     33. A(H  16,N   0,C  17)          121.4549         0.356905   
     34. A(C   1,N   0,C  17)          121.9738         0.402314   
     35. A(C   2,C   1,H  29)          109.6866         0.320525   
     36. A(C   2,C   1,C   4)          111.7660         0.354981   
     37. A(C   4,C   1,H  29)          107.6240         0.318296   
     38. A(N   0,C   1,H  29)          108.2728         0.330343   
     39. A(N   0,C   1,C   4)          112.5803         0.366260   
     40. A(N   0,C   1,C   2)          106.8504         0.368956   
     41. A(C   1,C   2,N  18)          115.4607         0.391134   
     42. A(C   1,C   2,O   3)          121.8717         0.425020   
     43. A(O   3,C   2,N  18)          122.6624         0.467018   
     44. A(C   1,C   4,H  30)          109.1860         0.317623   
     45. A(C   1,C   4,H  31)          106.1157         0.317215   
     46. A(C   5,C   4,H  31)          111.1882         0.327742   
     47. A(H  30,C   4,H  31)          105.3749         0.287069   
     48. A(C   1,C   4,C   5)          114.5581         0.364571   
     49. A(C   5,C   4,H  30)          109.9585         0.328169   
     50. A(C   4,C   5,C   6)          120.9998         0.377310   
     51. A(C   6,C   5,H   9)          118.6526         0.330550   
     52. A(C   4,C   5,H   9)          118.4197         0.330527   
     53. A(H  10,C   6,H  11)          105.3053         0.286479   
     54. A(C   7,C   6,H  11)          108.7640         0.321098   
     55. A(C   5,C   6,C   7)          113.4083         0.368423   
     56. A(C   5,C   6,H  11)          110.6870         0.328503   
     57. A(C   7,C   6,H  10)          108.4589         0.319395   
     58. A(C   5,C   6,H  10)          109.8757         0.326745   
     59. A(H  12,C   7,H  13)          106.9585         0.287568   
     60. A(N   8,C   7,H  13)          113.7322         0.324800   
     61. A(C   6,C   7,H  13)          108.7018         0.320114   
     62. A(N   8,C   7,H  12)          107.9634         0.326368   
     63. A(C   6,C   7,H  12)          108.8303         0.321651   
     64. A(C   6,C   7,N   8)          110.4980         0.365274   
     65. A(H  14,N   8,H  15)          106.0362         0.300832   
     66. A(C   7,N   8,H  15)          109.3556         0.333276   
     67. A(C   7,N   8,H  14)          109.6766         0.333438   
     68. A(N   0,C  17,C  21)          115.7564         0.393916   
     69. A(N   0,C  17,O  20)          122.3415         0.465350   
     70. A(O  20,C  17,C  21)          121.8991         0.430146   
     71. A(C   2,N  18,H  19)          118.8552         0.359397   
     72. A(H  19,N  18,C  25)          119.1278         0.337976   
     73. A(C   2,N  18,C  25)          122.0037         0.401970   
     74. A(H  23,C  21,H  24)          109.3998         0.289760   
     75. A(H  22,C  21,H  24)          109.2465         0.289725   
     76. A(C  17,C  21,H  24)          113.4947         0.324572   
     77. A(H  22,C  21,H  23)          107.6049         0.289706   
     78. A(C  17,C  21,H  23)          108.4426         0.324550   
     79. A(C  17,C  21,H  22)          108.4838         0.324508   
     80. A(H  27,C  25,H  28)          109.2849         0.290159   
     81. A(H  26,C  25,H  28)          108.2039         0.289598   
     82. A(N  18,C  25,H  28)          109.9584         0.329710   
     83. A(H  26,C  25,H  27)          109.1226         0.289695   
     84. A(N  18,C  25,H  27)          108.8818         0.329827   
     85. A(N  18,C  25,H  26)          111.3605         0.329155   
     86. D(C   4,C   1,N   0,C  17)     82.3714         0.016820   
     87. D(H  29,C   1,N   0,H  16)    129.7830         0.016820   
     88. D(C   4,C   1,N   0,H  16)   -111.3596         0.016820   
     89. D(C   2,C   1,N   0,H  16)     11.7042         0.016820   
     90. D(C   2,C   1,N   0,C  17)   -154.5649         0.016820   
     91. D(H  29,C   1,N   0,C  17)    -36.4860         0.016820   
     92. D(O   3,C   2,C   1,N   0)    -13.6552         0.009567   
     93. D(O   3,C   2,C   1,C   4)    109.9135         0.009567   
     94. D(N  18,C   2,C   1,H  29)     49.9974         0.009567   
     95. D(N  18,C   2,C   1,C   4)    -69.2846         0.009567   
     96. D(O   3,C   2,C   1,H  29)   -130.8045         0.009567   
     97. D(N  18,C   2,C   1,N   0)    167.1467         0.009567   
     98. D(C   5,C   4,C   1,H  29)   -176.1700         0.009434   
     99. D(C   5,C   4,C   1,C   2)    -55.6763         0.009434   
    100. D(H  31,C   4,C   1,C   2)   -178.7463         0.009434   
    101. D(H  31,C   4,C   1,N   0)    -58.4757         0.009434   
    102. D(H  30,C   4,C   1,H  29)    -52.3655         0.009434   
    103. D(H  31,C   4,C   1,H  29)     60.7601         0.009434   
    104. D(H  30,C   4,C   1,C   2)     68.1282         0.009434   
    105. D(H  30,C   4,C   1,N   0)   -171.6013         0.009434   
    106. D(C   5,C   4,C   1,N   0)     64.5942         0.009434   
    107. D(H   9,C   5,C   4,H  30)   -150.6344         0.012850   
    108. D(H   9,C   5,C   4,C   1)    -27.2433         0.012850   
    109. D(C   6,C   5,C   4,H  31)    -70.9357         0.012850   
    110. D(C   6,C   5,C   4,H  30)     45.3788         0.012850   
    111. D(H   9,C   5,C   4,H  31)     93.0511         0.012850   
    112. D(C   6,C   5,C   4,C   1)    168.7699         0.012850   
    113. D(H  10,C   6,C   5,C   4)     72.2118         0.012861   
    114. D(C   7,C   6,C   5,H   9)     29.8204         0.012861   
    115. D(C   7,C   6,C   5,C   4)   -166.2292         0.012861   
    116. D(H  10,C   6,C   5,H   9)    -91.7387         0.012861   
    117. D(H  11,C   6,C   5,H   9)    152.3781         0.012861   
    118. D(H  11,C   6,C   5,C   4)    -43.6714         0.012861   
    119. D(H  13,C   7,C   6,H  11)   -179.2560         0.010556   
    120. D(H  13,C   7,C   6,H  10)     66.7086         0.010556   
    121. D(H  13,C   7,C   6,C   5)    -55.6400         0.010556   
    122. D(H  12,C   7,C   6,H  11)    -63.1016         0.010556   
    123. D(H  12,C   7,C   6,H  10)   -177.1370         0.010556   
    124. D(H  12,C   7,C   6,C   5)     60.5144         0.010556   
    125. D(N   8,C   7,C   6,H  11)     55.2814         0.010556   
    126. D(N   8,C   7,C   6,H  10)    -58.7540         0.010556   
    127. D(N   8,C   7,C   6,C   5)    178.8974         0.010556   
    128. D(H  15,N   8,C   7,H  13)    -56.6301         0.014432   
    129. D(H  15,N   8,C   7,H  12)   -175.1516         0.014432   
    130. D(H  15,N   8,C   7,C   6)     65.9376         0.014432   
    131. D(H  14,N   8,C   7,H  13)     59.2549         0.014432   
    132. D(H  14,N   8,C   7,H  12)    -59.2666         0.014432   
    133. D(H  14,N   8,C   7,C   6)   -178.1774         0.014432   
    134. D(C  21,C  17,N   0,H  16)      9.6239         0.029828   
    135. D(C  21,C  17,N   0,C   1)    175.0275         0.029828   
    136. D(O  20,C  17,N   0,H  16)   -170.9921         0.029828   
    137. D(O  20,C  17,N   0,C   1)     -5.5885         0.029828   
    138. D(C  25,N  18,C   2,O   3)     -0.9379         0.031340   
    139. D(C  25,N  18,C   2,C   1)    178.2531         0.031340   
    140. D(H  19,N  18,C   2,O   3)    177.7236         0.031340   
    141. D(H  19,N  18,C   2,C   1)     -3.0853         0.031340   
    142. D(H  24,C  21,C  17,O  20)    178.9161         0.010762   
    143. D(H  24,C  21,C  17,N   0)     -1.6970         0.010762   
    144. D(H  23,C  21,C  17,O  20)     57.1295         0.010762   
    145. D(H  23,C  21,C  17,N   0)   -123.4836         0.010762   
    146. D(H  22,C  21,C  17,O  20)    -59.4632         0.010762   
    147. D(H  22,C  21,C  17,N   0)    119.9237         0.010762   
    148. D(H  26,C  25,N  18,C   2)     72.2437         0.015905   
    149. D(H  28,C  25,N  18,H  19)    133.6583         0.015905   
    150. D(H  28,C  25,N  18,C   2)    -47.6837         0.015905   
    151. D(H  27,C  25,N  18,H  19)     13.9518         0.015905   
    152. D(H  27,C  25,N  18,C   2)   -167.3902         0.015905   
    153. D(H  26,C  25,N  18,H  19)   -106.4143         0.015905   
    -----------------------------------------------------------------

Number of atoms                         .... 32
Number of degrees of freedom            .... 153

         *************************************************************
         *                GEOMETRY OPTIMIZATION CYCLE   1            *
         *************************************************************
---------------------------------
CARTESIAN COORDINATES (ANGSTROEM)
---------------------------------
  N      1.803580   -0.556686    0.370878
  C      1.096898    0.323783   -0.543655
  C      0.787984    1.620558    0.233019
  O      0.897612    1.686773    1.459747
  C     -0.193303   -0.324631   -1.119206
  C     -1.254511   -0.613482   -0.098888
  C     -2.642026   -1.002167   -0.516054
  C     -3.666574   -0.931323    0.628644
  N     -5.008668   -1.299479    0.143551
  H     -0.948347   -0.795938    0.929572
  H     -2.638714   -2.033274   -0.920405
  H     -2.990931   -0.367707   -1.342415
  H     -3.712045    0.098901    0.999374
  H     -3.308464   -1.558399    1.463470
  H     -5.680600   -1.219437    0.902013
  H     -5.010808   -2.278805   -0.131585
  H      1.794658   -0.265113    1.340446
  C      2.654847   -1.530184   -0.073725
  N      0.372816    2.672031   -0.525271
  H      0.337052    2.565324   -1.526584
  O      2.796667   -1.785490   -1.271081
  C      3.411018   -2.294461    1.008570
  H      3.150126   -3.353581    0.931594
  H      4.482593   -2.202751    0.812162
  H      3.196084   -1.943074    2.021163
  C      0.006141    3.955990    0.066384
  H      0.888387    4.495925    0.426046
  H     -0.500396    4.560922   -0.688180
  H     -0.665899    3.798103    0.912905
  H      1.760810    0.547717   -1.387394
  H     -0.600069    0.321279   -1.911624
  H      0.129375   -1.246501   -1.630433

----------------------------
CARTESIAN COORDINATES (A.U.)
----------------------------
  NO LB      ZA    FRAG     MASS         X           Y           Z
   0 N     7.0000    0    14.007    3.408272   -1.051985    0.700859
   1 C     6.0000    0    12.011    2.072836    0.611861   -1.027359
   2 C     6.0000    0    12.011    1.489074    3.062410    0.440343
   3 O     8.0000    0    15.999    1.696240    3.187538    2.758521
   4 C     6.0000    0    12.011   -0.365291   -0.613464   -2.114993
   5 C     6.0000    0    12.011   -2.370681   -1.159313   -0.186872
   6 C     6.0000    0    12.011   -4.992706   -1.893822   -0.975200
   7 C     6.0000    0    12.011   -6.928820   -1.759946    1.187965
   8 N     7.0000    0    14.007   -9.465011   -2.455659    0.271272
   9 H     1.0000    0     1.008   -1.792116   -1.504106    1.756637
  10 H     1.0000    0     1.008   -4.986447   -3.842331   -1.739314
  11 H     1.0000    0     1.008   -5.652040   -0.694866   -2.536797
  12 H     1.0000    0     1.008   -7.014749    0.186895    1.888544
  13 H     1.0000    0     1.008   -6.252091   -2.944947    2.765558
  14 H     1.0000    0     1.008  -10.734778   -2.304403    1.704557
  15 H     1.0000    0     1.008   -9.469055   -4.306317   -0.248660
  16 H     1.0000    0     1.008    3.391413   -0.500990    2.533077
  17 C     6.0000    0    12.011    5.016935   -2.891628   -0.139320
  18 N     7.0000    0    14.007    0.704519    5.049407   -0.992618
  19 H     1.0000    0     1.008    0.636936    4.847759   -2.884826
  20 O     8.0000    0    15.999    5.284935   -3.374088   -2.401994
  21 C     6.0000    0    12.011    6.445890   -4.335903    1.905922
  22 H     1.0000    0     1.008    5.952875   -6.337350    1.760457
  23 H     1.0000    0     1.008    8.470874   -4.162596    1.534764
  24 H     1.0000    0     1.008    6.039723   -3.671878    3.819445
  25 C     6.0000    0    12.011    0.011606    7.475737    0.125448
  26 H     1.0000    0     1.008    1.678808    8.496068    0.805111
  27 H     1.0000    0     1.008   -0.945612    8.618894   -1.300472
  28 H     1.0000    0     1.008   -1.258368    7.177374    1.725140
  29 H     1.0000    0     1.008    3.327449    1.035035   -2.621795
  30 H     1.0000    0     1.008   -1.133967    0.607130   -3.612445
  31 H     1.0000    0     1.008    0.244483   -2.355545   -3.081071

--------------------------------
INTERNAL COORDINATES (ANGSTROEM)
--------------------------------
 N      0   0   0     0.000000000000     0.00000000     0.00000000
 C      1   0   0     1.452926784383     0.00000000     0.00000000
 C      2   1   0     1.542814092194   106.85039139     0.00000000
 O      3   2   1     1.233394614975   121.87174556   346.34480669
 C      2   1   3     1.554451142347   112.58027630   236.93625952
 C      5   2   1     1.500214509731   114.55810688    64.59420717
 C      6   5   2     1.500100905061   120.99978044   168.76988831
 C      7   6   5     1.537871710543   113.40827740   193.77084160
 N      8   7   6     1.473794718967   110.49800367   178.89735355
 H      6   5   2     1.088465541569   118.41970914   332.75673449
 H      7   6   5     1.107561375168   109.87568709    72.21176695
 H      7   6   5     1.098702831839   110.68699957   316.32855129
 H      8   7   6     1.095842140990   108.83033793    60.51438331
 H      8   7   6     1.103812418980   108.70182594   304.35996164
 H      9   8   7     1.016446229197   109.67660431   181.82261996
 H      9   8   7     1.017243392986   109.35561355    65.93760525
 H      1   2   3     1.012500379172   115.08455954    11.70415943
 C      1   2   3     1.367488807392   121.97381081   205.43510830
 N      3   2   1     1.361236761272   115.46071130   167.14671787
 H     19   3   2     1.007618047541   118.85517349   356.91466807
 O     18   1   2     1.232458996478   122.34149570   354.41149055
 C     18   1   2     1.525541525473   115.75643916   175.02753696
 H     22  18   1     1.093492047537   108.48383630   119.92373948
 H     22  18   1     1.093279871277   108.44260372   236.51644518
 H     22  18   1     1.093166847441   113.49465968   358.30302723
 C     19   3   2     1.460498137618   122.00374179   178.25314438
 H     26  19   3     1.095100438996   111.36049204    72.24372274
 H     26  19   3     1.091737822449   108.88179209   192.60979143
 H     26  19   3     1.092320715001   109.95842339   312.31625413
 H      2   1   3     1.096732815664   108.27278514   118.07886377
 H      5   2   1     1.100265812913   109.18601697   188.39872725
 H      5   2   1     1.102414201152   106.11567589   301.52427297

---------------------------
INTERNAL COORDINATES (A.U.)
---------------------------
 N      0   0   0     0.000000000000     0.00000000     0.00000000
 C      1   0   0     2.745633715123     0.00000000     0.00000000
 C      2   1   0     2.915496109801   106.85039139     0.00000000
 O      3   2   1     2.330778037355   121.87174556   346.34480669
 C      2   1   3     2.937486947597   112.58027630   236.93625952
 C      5   2   1     2.834994565526   114.55810688    64.59420717
 C      6   5   2     2.834779883813   120.99978044   168.76988831
 C      7   6   5     2.906156362032   113.40827740   193.77084160
 N      8   7   6     2.785068396467   110.49800367   178.89735355
 H      6   5   2     2.056901779776   118.41970914   332.75673449
 H      7   6   5     2.092987675577   109.87568709    72.21176695
 H      7   6   5     2.076247454740   110.68699957   316.32855129
 H      8   7   6     2.070841532480   108.83033793    60.51438331
 H      8   7   6     2.085903175094   108.70182594   304.35996164
 H      9   8   7     1.920805003039   109.67660431   181.82261996
 H      9   8   7     1.922311424284   109.35561355    65.93760525
 H      1   2   3     1.913348427126   115.08455954    11.70415943
 C      1   2   3     2.584179337173   121.97381081   205.43510830
 N      3   2   1     2.572364682230   115.46071130   167.14671787
 H     19   3   2     1.904122157449   118.85517349   356.91466807
 O     18   1   2     2.329009974630   122.34149570   354.41149055
 C     18   1   2     2.882855689069   115.75643916   175.02753696
 H     22  18   1     2.066400499466   108.48383630   119.92373948
 H     22  18   1     2.065999544442   108.44260372   236.51644518
 H     22  18   1     2.065785960345   113.49465968   358.30302723
 C     19   3   2     2.759941499201   122.00374179   178.25314438
 H     26  19   3     2.069439918840   111.36049204    72.24372274
 H     26  19   3     2.063085494472   108.88179209   192.60979143
 H     26  19   3     2.064187001761   109.95842339   312.31625413
 H      2   1   3     2.072524663690   108.27278514   118.07886377
 H      5   2   1     2.079201060923   109.18601697   188.39872725
 H      5   2   1     2.083260926323   106.11567589   301.52427297

---------------------
BASIS SET INFORMATION
---------------------
There are 4 groups of distinct atoms

 Group   1 Type N   : 11s6p2d1f contracted to 5s3p2d1f pattern {62111/411/11/1}
 Group   2 Type C   : 11s6p2d1f contracted to 5s3p2d1f pattern {62111/411/11/1}
 Group   3 Type O   : 11s6p2d1f contracted to 5s3p2d1f pattern {62111/411/11/1}
 Group   4 Type H   : 5s1p contracted to 3s1p pattern {311/1}

Atom   0N    basis set group =>   1
Atom   1C    basis set group =>   2
Atom   2C    basis set group =>   2
Atom   3O    basis set group =>   3
Atom   4C    basis set group =>   2
Atom   5C    basis set group =>   2
Atom   6C    basis set group =>   2
Atom   7C    basis set group =>   2
Atom   8N    basis set group =>   1
Atom   9H    basis set group =>   4
Atom  10H    basis set group =>   4
Atom  11H    basis set group =>   4
Atom  12H    basis set group =>   4
Atom  13H    basis set group =>   4
Atom  14H    basis set group =>   4
Atom  15H    basis set group =>   4
Atom  16H    basis set group =>   4
Atom  17C    basis set group =>   2
Atom  18N    basis set group =>   1
Atom  19H    basis set group =>   4
Atom  20O    basis set group =>   3
Atom  21C    basis set group =>   2
Atom  22H    basis set group =>   4
Atom  23H    basis set group =>   4
Atom  24H    basis set group =>   4
Atom  25C    basis set group =>   2
Atom  26H    basis set group =>   4
Atom  27H    basis set group =>   4
Atom  28H    basis set group =>   4
Atom  29H    basis set group =>   4
Atom  30H    basis set group =>   4
Atom  31H    basis set group =>   4
---------------------------------
AUXILIARY/J BASIS SET INFORMATION
---------------------------------
There are 4 groups of distinct atoms

 Group   1 Type N   : 12s5p4d2f1g contracted to 6s4p3d1f1g pattern {711111/2111/211/2/1}
 Group   2 Type C   : 12s5p4d2f1g contracted to 6s4p3d1f1g pattern {711111/2111/211/2/1}
 Group   3 Type O   : 12s5p4d2f1g contracted to 6s4p3d1f1g pattern {711111/2111/211/2/1}
 Group   4 Type H   : 5s2p1d contracted to 3s1p1d pattern {311/2/1}

Atom   0N    basis set group =>   1
Atom   1C    basis set group =>   2
Atom   2C    basis set group =>   2
Atom   3O    basis set group =>   3
Atom   4C    basis set group =>   2
Atom   5C    basis set group =>   2
Atom   6C    basis set group =>   2
Atom   7C    basis set group =>   2
Atom   8N    basis set group =>   1
Atom   9H    basis set group =>   4
Atom  10H    basis set group =>   4
Atom  11H    basis set group =>   4
Atom  12H    basis set group =>   4
Atom  13H    basis set group =>   4
Atom  14H    basis set group =>   4
Atom  15H    basis set group =>   4
Atom  16H    basis set group =>   4
Atom  17C    basis set group =>   2
Atom  18N    basis set group =>   1
Atom  19H    basis set group =>   4
Atom  20O    basis set group =>   3
Atom  21C    basis set group =>   2
Atom  22H    basis set group =>   4
Atom  23H    basis set group =>   4
Atom  24H    basis set group =>   4
Atom  25C    basis set group =>   2
Atom  26H    basis set group =>   4
Atom  27H    basis set group =>   4
Atom  28H    basis set group =>   4
Atom  29H    basis set group =>   4
Atom  30H    basis set group =>   4
Atom  31H    basis set group =>   4


           ************************************************************
           *        Program running with 16 parallel MPI-processes    *
           *              working on a common directory               *
           ************************************************************
------------------------------------------------------------------------------
                           ORCA GTO INTEGRAL CALCULATION
                           -- RI-GTO INTEGRALS CHOSEN --
------------------------------------------------------------------------------
------------------------------------------------------------------------------
                   ___                                                        
                  /   \      - P O W E R E D   B Y -                         
                 /     \                                                     
                 |  |  |   _    _      __       _____    __    __             
                 |  |  |  | |  | |    /  \     |  _  \  |  |  /  |          
                  \  \/   | |  | |   /    \    | | | |  |  | /  /          
                 / \  \   | |__| |  /  /\  \   | |_| |  |  |/  /          
                |  |  |   |  __  | /  /__\  \  |    /   |      \           
                |  |  |   | |  | | |   __   |  |    \   |  |\   \          
                \     /   | |  | | |  |  |  |  | |\  \  |  | \   \       
                 \___/    |_|  |_| |__|  |__|  |_| \__\ |__|  \__/        
                                                                              
                      - O R C A' S   B I G   F R I E N D -                    
                                      &                                       
                       - I N T E G R A L  F E E D E R -                       
                                                                              
 v1 FN, 2020, v2 2021                                                         
------------------------------------------------------------------------------


Reading SHARK input file freq.SHARKINP.tmp ... ok
----------------------
SHARK INTEGRAL PACKAGE
----------------------

Number of atoms                             ...     32
Number of basis functions                   ...    542
Number of shells                            ...    226
Maximum angular momentum                    ...      3
Integral batch strategy                     ... SHARK/LIBINT Hybrid
RI-J (if used) integral strategy            ... SPLIT-RIJ (Revised 2003 algorithm where possible)
Printlevel                                  ...      1
Contraction scheme used                     ... SEGMENTED contraction
Coulomb Range Separation                    ... NOT USED
Exchange Range Separation                   ... NOT USED
Finite Nucleus Model                        ... NOT USED
Auxiliary Coulomb fitting basis             ... AVAILABLE
   # of basis functions in Aux-J            ...    884
   # of shells in Aux-J                     ...    300
   Maximum angular momentum in Aux-J        ...      4
Auxiliary J/K fitting basis                 ... NOT available
Auxiliary Correlation fitting basis         ... NOT available
Auxiliary 'external' fitting basis          ... NOT available
Integral threshold                          ...     2.500000e-11
Primitive cut-off                           ...     2.500000e-12
Primitive pair pre-selection threshold      ...     2.500000e-12

Calculating pre-screening integrals         ... done (  0.0 sec) Dimension = 226
Organizing shell pair data                  ... done (  0.1 sec)
Shell pair information
Total number of shell pairs                 ...     25651
Shell pairs after pre-screening             ...     19208
Total number of primitive shell pairs       ...     75828
Primitive shell pairs kept                  ...     39501
          la=0 lb=0:   5736 shell pairs
          la=1 lb=0:   5697 shell pairs
          la=1 lb=1:   1442 shell pairs
          la=2 lb=0:   2566 shell pairs
          la=2 lb=1:   1279 shell pairs
          la=2 lb=2:    307 shell pairs
          la=3 lb=0:   1213 shell pairs
          la=3 lb=1:    616 shell pairs
          la=3 lb=2:    279 shell pairs
          la=3 lb=3:     73 shell pairs

Calculating one electron integrals          ... done (  0.0 sec)
Calculating RI/J V-Matrix + Cholesky decomp.... done (  0.0 sec)
Calculating Nuclear repulsion               ... done (  0.0 sec) ENN=    914.777047837479 Eh

SHARK setup successfully completed in   0.4 seconds

Maximum memory used throughout the entire GTOINT-calculation: 30.9 MB


           ************************************************************
           *        Program running with 16 parallel MPI-processes    *
           *              working on a common directory               *
           ************************************************************
-------------------------------------------------------------------------------
                                 ORCA SCF
-------------------------------------------------------------------------------

------------
SCF SETTINGS
------------
Hamiltonian:
 Density Functional     Method          .... DFT(GTOs)
 Exchange Functional    Exchange        .... M062X
 Correlation Functional Correlation     .... M062X
 Gradients option       PostSCFGGA      .... off
 Hybrid DFT is turned on
   Fraction HF Exchange ScalHFX         ....  0.540000
   Scaling of DF-GGA-X  ScalDFX         ....  0.460000
   Scaling of DF-GGA-C  ScalDFC         ....  1.000000
   Scaling of DF-LDA-C  ScalLDAC        ....  1.000000
   Perturbative correction              ....  0.000000
   Density functional embedding theory  .... OFF
 RI-approximation to the Coulomb term is turned on
   Number of AuxJ basis functions       .... 884
   RIJ-COSX (HFX calculated with COS-X)).... on


General Settings:
 Integral files         IntName         .... freq
 Hartree-Fock type      HFTyp           .... UHF
 Total Charge           Charge          ....    0
 Multiplicity           Mult            ....    2
 Number of Electrons    NEL             ....  109
 Basis Dimension        Dim             ....  542
 Nuclear Repulsion      ENuc            ....    914.7770478375 Eh

Convergence Acceleration:
 DIIS                   CNVDIIS         .... on
   Start iteration      DIISMaxIt       ....    12
   Startup error        DIISStart       ....  0.200000
   # of expansion vecs  DIISMaxEq       ....     5
   Bias factor          DIISBfac        ....   1.050
   Max. coefficient     DIISMaxC        ....  10.000
 Trust-Rad. Augm. Hess. CNVTRAH         .... auto
   Auto Start mean grad. ratio tolernc. ....  1.125000
   Auto Start start iteration           ....    20
   Auto Start num. interpolation iter.  ....    10
   Max. Number of Micro iterations      ....    16
   Max. Number of Macro iterations      .... Maxiter - #DIIS iter
   Number of Davidson start vectors     ....     2
   Converg. threshold I  (grad. norm)   ....   1.000e-05
   Converg. threshold II (energy diff.) ....   1.000e-08
   Grad. Scal. Fac. for Micro threshold ....   0.100
   Minimum threshold for Micro iter.    ....   0.010
   NR start threshold (gradient norm)   ....   0.001
   Initial trust radius                 ....   0.400
   Minimum AH scaling param. (alpha)    ....   1.000
   Maximum AH scaling param. (alpha)    .... 1000.000
   Orbital update algorithm             .... Taylor
   White noise on init. David. guess    .... on
   Maximum white noise                  ....   0.010
   Quad. conv. algorithm                .... NR
 SOSCF                  CNVSOSCF        .... off
 Level Shifting         CNVShift        .... on
   Level shift para.    LevelShift      ....    0.2500
   Turn off err/grad.   ShiftErr        ....    0.0010
 Zerner damping         CNVZerner       .... off
 Static damping         CNVDamp         .... on
   Fraction old density DampFac         ....    0.7000
   Max. Damping (<1)    DampMax         ....    0.9800
   Min. Damping (>=0)   DampMin         ....    0.0000
   Turn off err/grad.   DampErr         ....    0.1000
 Fernandez-Rico         CNVRico         .... off

SCF Procedure:
 Maximum # iterations   MaxIter         ....   125
 SCF integral mode      SCFMode         .... Direct
   Integral package                     .... SHARK and LIBINT hybrid scheme
 Reset frequency        DirectResetFreq ....    20
 Integral Threshold     Thresh          ....  2.500e-11 Eh
 Primitive CutOff       TCut            ....  2.500e-12 Eh

Convergence Tolerance:
 Convergence Check Mode ConvCheckMode   .... Total+1el-Energy
 Convergence forced     ConvForced      .... 0
 Energy Change          TolE            ....  1.000e-08 Eh
 1-El. energy change                    ....  1.000e-05 Eh
 DIIS Error             TolErr          ....  5.000e-07


Diagonalization of the overlap matrix:
Smallest eigenvalue                        ... 5.184e-05
Time for diagonalization                   ...    0.035 sec
Threshold for overlap eigenvalues          ... 1.000e-08
Number of eigenvalues below threshold      ... 0
Time for construction of square roots      ...    0.024 sec
Total time needed                          ...    0.061 sec

Time for model grid setup =    0.118 sec

------------------------------
INITIAL GUESS: MODEL POTENTIAL
------------------------------
Loading Hartree-Fock densities                     ... done
Calculating cut-offs                               ... done
Initializing the effective Hamiltonian             ... done
Setting up the integral package (SHARK)            ... done
Starting the Coulomb interaction                   ... done (   0.1 sec)
Reading the grid                                   ... done
Mapping shells                                     ... done
Starting the XC term evaluation                    ... done (   0.1 sec)
  promolecular density results
     # of electrons  =    108.987641293
     EX              =    -87.230032689
     EC              =     -3.609966093
     EX+EC           =    -90.839998781
Transforming the Hamiltonian                       ... done (   0.0 sec)
Diagonalizing the Hamiltonian                      ... done (   0.0 sec)
Back transforming the eigenvectors                 ... done (   0.0 sec)
Now organizing SCF variables                       ... done
                      ------------------
                      INITIAL GUESS DONE (   0.4 sec)
                      ------------------
-------------------
DFT GRID GENERATION
-------------------

General Integration Accuracy     IntAcc      ... 4.388
Radial Grid Type                 RadialGrid  ... OptM3 with GC (2021)
Angular Grid (max. ang.)         AngularGrid ... 4 (Lebedev-302)
Angular grid pruning method      GridPruning ... 4 (adaptive)
Weight generation scheme         WeightScheme... Becke
Basis function cutoff            BFCut       ... 1.0000e-11
Integration weight cutoff        WCut        ... 1.0000e-14
Angular grids for H and He will be reduced by one unit
Partially contracted basis set               ... off
Rotationally invariant grid construction     ... off

Total number of grid points                  ...   141797
Total number of batches                      ...     2236
Average number of points per batch           ...       63
Average number of grid points per atom       ...     4431
Time for grid setup =    0.605 sec

--------------------
COSX GRID GENERATION
--------------------

GRIDX 1
-------
General Integration Accuracy     IntAcc      ... 3.816
Radial Grid Type                 RadialGrid  ... OptM3 with GC (2021)
Angular Grid (max. ang.)         AngularGrid ... 1 (Lebedev-50)
Angular grid pruning method      GridPruning ... 4 (adaptive)
Weight generation scheme         WeightScheme... Becke
Basis function cutoff            BFCut       ... 1.0000e-11
Integration weight cutoff        WCut        ... 1.0000e-14
Angular grids for H and He will be reduced by one unit
Partially contracted basis set               ... on
Rotationally invariant grid construction     ... off

Total number of grid points                  ...    18101
Total number of batches                      ...      303
Average number of points per batch           ...       59
Average number of grid points per atom       ...      566
UseSFitting                                  ... on

GRIDX 2
-------
General Integration Accuracy     IntAcc      ... 4.020
Radial Grid Type                 RadialGrid  ... OptM3 with GC (2021)
Angular Grid (max. ang.)         AngularGrid ... 2 (Lebedev-110)
Angular grid pruning method      GridPruning ... 4 (adaptive)
Weight generation scheme         WeightScheme... Becke
Basis function cutoff            BFCut       ... 1.0000e-11
Integration weight cutoff        WCut        ... 1.0000e-14
Angular grids for H and He will be reduced by one unit
Partially contracted basis set               ... on
Rotationally invariant grid construction     ... off

Total number of grid points                  ...    38386
Total number of batches                      ...      616
Average number of points per batch           ...       62
Average number of grid points per atom       ...     1200
UseSFitting                                  ... on

GRIDX 3
-------
General Integration Accuracy     IntAcc      ... 4.338
Radial Grid Type                 RadialGrid  ... OptM3 with GC (2021)
Angular Grid (max. ang.)         AngularGrid ... 3 (Lebedev-194)
Angular grid pruning method      GridPruning ... 4 (adaptive)
Weight generation scheme         WeightScheme... Becke
Basis function cutoff            BFCut       ... 1.0000e-11
Integration weight cutoff        WCut        ... 1.0000e-14
Angular grids for H and He will be reduced by one unit
Partially contracted basis set               ... on
Rotationally invariant grid construction     ... off

Total number of grid points                  ...    83701
Total number of batches                      ...     1325
Average number of points per batch           ...       63
Average number of grid points per atom       ...     2616
UseSFitting                                  ... on

Time for X-Grid setup             =    0.807 sec

--------------
SCF ITERATIONS
--------------
ITER       Energy         Delta-E        Max-DP      RMS-DP      [F,P]     Damp
               ***  Starting incremental Fock matrix formation  ***
  0   -667.9142872599   0.000000000000 0.05367854  0.00047205  0.1480641 0.7000
  1   -668.1460726757  -0.231785415781 0.04636205  0.00039035  0.0703292 0.7000
                               ***Turning on DIIS***
  2   -668.2486708268  -0.102598151102 0.07939264  0.00073899  0.0268114 0.0000
  3   -668.4103845847  -0.161713757883 0.03525460  0.00028210  0.0358003 0.0000
  4   -668.4417369729  -0.031352388213 0.00655532  0.00008637  0.0060257 0.0000
  5   -668.4428407540  -0.001103781142 0.00394687  0.00003748  0.0037374 0.0000
  6   -668.4430717253  -0.000230971256 0.00246064  0.00001963  0.0012799 0.0000
  7   -668.4431137232  -0.000041997908 0.00195566  0.00001559  0.0006484 0.0000
               *** Restarting incremental Fock matrix formation ***
                                   *** Resetting DIIS ***
  8   -668.4430303884   0.000083334741 0.00070227  0.00000629  0.0002252 0.0000
  9   -668.4430312806  -0.000000892136 0.00013078  0.00000161  0.0002350 0.0000
 10   -668.4430323433  -0.000001062727 0.00010763  0.00000091  0.0000557 0.0000
 11   -668.4430324539  -0.000000110597 0.00003896  0.00000040  0.0000523 0.0000
 12   -668.4430324673  -0.000000013398 0.00002047  0.00000016  0.0000222 0.0000
 13   -668.4430324739  -0.000000006629 0.00000783  0.00000006  0.0000054 0.0000
 14   -668.4430324896  -0.000000015647 0.00000369  0.00000003  0.0000016 0.0000
                            ***DIIS convergence achieved***

               *****************************************************
               *                     SUCCESS                       *
               *           SCF CONVERGED AFTER  15 CYCLES          *
               *****************************************************

Old exchange energy                            =    -48.246796184 Eh
New exchange energy                            =    -48.246812210 Eh
Exchange energy change after final integration =     -0.000016026 Eh
Total energy after final integration           =   -668.443048506 Eh
Final COS-X integration done in                =     4.717 sec

----------------
TOTAL SCF ENERGY
----------------

Total Energy       :         -668.44304851 Eh          -18189.26007 eV

Components:
Nuclear Repulsion  :          914.77704784 Eh           24892.34897 eV
Electronic Energy  :        -1583.22009634 Eh          -43081.60905 eV
One Electron Energy:        -2723.29061757 Eh          -74104.50510 eV
Two Electron Energy:         1140.07052122 Eh           31022.89606 eV
Max COSX asymmetry :            0.00000308 Eh               0.00008 eV

Virial components:
Potential Energy   :        -1333.22041612 Eh          -36278.77190 eV
Kinetic Energy     :          664.77736761 Eh           18089.51183 eV
Virial Ratio       :            2.00551415


DFT components:
N(Alpha)           :       55.000003627609 electrons
N(Beta)            :       54.000035503615 electrons
N(Total)           :      109.000039131224 electrons
E(XC)              :      -45.002164946374 Eh       
DFET-embed. en.    :        0.000000000000 Eh       

---------------
SCF CONVERGENCE
---------------

  Last Energy change         ...    1.0033e-08  Tolerance :   1.0000e-08
  Last MAX-Density change    ...    0.0000e+00  Tolerance :   1.0000e-07
  Last RMS-Density change    ...    0.0000e+00  Tolerance :   5.0000e-09
  Last DIIS Error            ...    6.9836e-07  Tolerance :   5.0000e-07

             **** THE GBW FILE WAS UPDATED (freq.gbw) ****
             **** DENSITY freq.scfp WAS UPDATED ****
             **** ENERGY FILE WAS UPDATED (freq.en.tmp) ****
----------------------
UHF SPIN CONTAMINATION
----------------------

Warning: in a DFT calculation there is little theoretical justification to 
         calculate <S**2> as in Hartree-Fock theory. We will do it anyways
         but you should keep in mind that the values have only limited relevance

Expectation value of <S**2>     :     0.755161
Ideal value S*(S+1) for S=0.5   :     0.750000
Deviation                       :     0.005161

             **** THE GBW FILE WAS UPDATED (freq.gbw) ****
             **** DENSITY freq.scfp WAS UPDATED ****
----------------
ORBITAL ENERGIES
----------------
                 SPIN UP ORBITALS
  NO   OCC          E(Eh)            E(eV) 
   0   1.0000     -19.607551      -533.5486 
   1   1.0000     -19.586736      -532.9822 
   2   1.0000     -14.788079      -402.4041 
   3   1.0000     -14.769223      -401.8910 
   4   1.0000     -14.727671      -400.7603 
   5   1.0000     -10.656681      -289.9830 
   6   1.0000     -10.643396      -289.6215 
   7   1.0000     -10.596063      -288.3335 
   8   1.0000     -10.580700      -287.9155 
   9   1.0000     -10.560487      -287.3655 
  10   1.0000     -10.550225      -287.0862 
  11   1.0000     -10.547562      -287.0138 
  12   1.0000     -10.540469      -286.8207 
  13   1.0000     -10.537781      -286.7476 
  14   1.0000      -1.170205       -31.8429 
  15   1.0000      -1.148653       -31.2564 
  16   1.0000      -1.042038       -28.3553 
  17   1.0000      -1.030695       -28.0466 
  18   1.0000      -0.987010       -26.8579 
  19   1.0000      -0.906005       -24.6536 
  20   1.0000      -0.862241       -23.4628 
  21   1.0000      -0.825160       -22.4538 
  22   1.0000      -0.810868       -22.0648 
  23   1.0000      -0.760200       -20.6861 
  24   1.0000      -0.706265       -19.2184 
  25   1.0000      -0.682222       -18.5642 
  26   1.0000      -0.671819       -18.2811 
  27   1.0000      -0.643188       -17.5020 
  28   1.0000      -0.617994       -16.8165 
  29   1.0000      -0.569480       -15.4963 
  30   1.0000      -0.561802       -15.2874 
  31   1.0000      -0.550452       -14.9786 
  32   1.0000      -0.545511       -14.8441 
  33   1.0000      -0.535618       -14.5749 
  34   1.0000      -0.530162       -14.4264 
  35   1.0000      -0.524673       -14.2771 
  36   1.0000      -0.508517       -13.8375 
  37   1.0000      -0.499718       -13.5980 
  38   1.0000      -0.496025       -13.4975 
  39   1.0000      -0.475484       -12.9386 
  40   1.0000      -0.473192       -12.8762 
  41   1.0000      -0.472519       -12.8579 
  42   1.0000      -0.458721       -12.4824 
  43   1.0000      -0.448125       -12.1941 
  44   1.0000      -0.441430       -12.0119 
  45   1.0000      -0.433711       -11.8019 
  46   1.0000      -0.417023       -11.3478 
  47   1.0000      -0.410717       -11.1762 
  48   1.0000      -0.398108       -10.8331 
  49   1.0000      -0.348403        -9.4805 
  50   1.0000      -0.337547        -9.1851 
  51   1.0000      -0.328552        -8.9403 
  52   1.0000      -0.319155        -8.6847 
  53   1.0000      -0.311967        -8.4890 
  54   1.0000      -0.245036        -6.6678 
  55   0.0000       0.040393         1.0991 
  56   0.0000       0.049872         1.3571 
  57   0.0000       0.063011         1.7146 
  58   0.0000       0.064753         1.7620 
  59   0.0000       0.070549         1.9197 
  60   0.0000       0.084179         2.2906 
  61   0.0000       0.094383         2.5683 
  62   0.0000       0.104007         2.8302 
  63   0.0000       0.109693         2.9849 
  64   0.0000       0.114522         3.1163 
  65   0.0000       0.119843         3.2611 
  66   0.0000       0.132276         3.5994 
  67   0.0000       0.139425         3.7940 
  68   0.0000       0.147762         4.0208 
  69   0.0000       0.150388         4.0923 
  70   0.0000       0.154806         4.2125 
  71   0.0000       0.161607         4.3976 
  72   0.0000       0.164393         4.4734 
  73   0.0000       0.171924         4.6783 
  74   0.0000       0.174576         4.7505 
  75   0.0000       0.183547         4.9946 
  76   0.0000       0.185105         5.0370 
  77   0.0000       0.197723         5.3803 
  78   0.0000       0.203829         5.5465 
  79   0.0000       0.209661         5.7052 
  80   0.0000       0.215019         5.8510 
  81   0.0000       0.226676         6.1682 
  82   0.0000       0.232884         6.3371 
  83   0.0000       0.237818         6.4714 
  84   0.0000       0.246414         6.7053 
  85   0.0000       0.250515         6.8168 
  86   0.0000       0.259717         7.0673 
  87   0.0000       0.263952         7.1825 
  88   0.0000       0.266055         7.2397 
  89   0.0000       0.280735         7.6392 
  90   0.0000       0.283620         7.7177 
  91   0.0000       0.291589         7.9345 
  92   0.0000       0.304148         8.2763 
  93   0.0000       0.311845         8.4857 
  94   0.0000       0.318973         8.6797 
  95   0.0000       0.325444         8.8558 
  96   0.0000       0.329004         8.9526 
  97   0.0000       0.339454         9.2370 
  98   0.0000       0.340453         9.2642 
  99   0.0000       0.353898         9.6301 
 100   0.0000       0.370521        10.0824 
 101   0.0000       0.373779        10.1711 
 102   0.0000       0.386144        10.5075 
 103   0.0000       0.391061        10.6413 
 104   0.0000       0.401800        10.9335 
 105   0.0000       0.405394        11.0313 
 106   0.0000       0.410518        11.1708 
 107   0.0000       0.420446        11.4409 
 108   0.0000       0.424487        11.5509 
 109   0.0000       0.426327        11.6009 
 110   0.0000       0.434892        11.8340 
 111   0.0000       0.443604        12.0711 
 112   0.0000       0.446391        12.1469 
 113   0.0000       0.450650        12.2628 
 114   0.0000       0.451284        12.2801 
 115   0.0000       0.458823        12.4852 
 116   0.0000       0.464298        12.6342 
 117   0.0000       0.468794        12.7565 
 118   0.0000       0.476602        12.9690 
 119   0.0000       0.479272        13.0417 
 120   0.0000       0.487042        13.2531 
 121   0.0000       0.493944        13.4409 
 122   0.0000       0.497001        13.5241 
 123   0.0000       0.501538        13.6475 
 124   0.0000       0.507549        13.8111 
 125   0.0000       0.511479        13.9180 
 126   0.0000       0.518707        14.1147 
 127   0.0000       0.522242        14.2109 
 128   0.0000       0.525031        14.2868 
 129   0.0000       0.528644        14.3851 
 130   0.0000       0.538391        14.6504 
 131   0.0000       0.543044        14.7770 
 132   0.0000       0.548329        14.9208 
 133   0.0000       0.561662        15.2836 
 134   0.0000       0.567724        15.4485 
 135   0.0000       0.570298        15.5186 
 136   0.0000       0.575630        15.6637 
 137   0.0000       0.583291        15.8722 
 138   0.0000       0.592691        16.1279 
 139   0.0000       0.594690        16.1823 
 140   0.0000       0.607075        16.5193 
 141   0.0000       0.608415        16.5558 
 142   0.0000       0.615730        16.7549 
 143   0.0000       0.616176        16.7670 
 144   0.0000       0.634299        17.2602 
 145   0.0000       0.638726        17.3806 
 146   0.0000       0.646100        17.5813 
 147   0.0000       0.662979        18.0406 
 148   0.0000       0.664243        18.0750 
 149   0.0000       0.673988        18.3401 
 150   0.0000       0.687523        18.7085 
 151   0.0000       0.692752        18.8507 
 152   0.0000       0.709682        19.3114 
 153   0.0000       0.728578        19.8256 
 154   0.0000       0.741862        20.1871 
 155   0.0000       0.760888        20.7048 
 156   0.0000       0.769868        20.9492 
 157   0.0000       0.782714        21.2987 
 158   0.0000       0.794155        21.6101 
 159   0.0000       0.801110        21.7993 
 160   0.0000       0.803829        21.8733 
 161   0.0000       0.813506        22.1366 
 162   0.0000       0.827891        22.5281 
 163   0.0000       0.847631        23.0652 
 164   0.0000       0.869632        23.6639 
 165   0.0000       0.881435        23.9851 
 166   0.0000       0.887935        24.1619 
 167   0.0000       0.900740        24.5104 
 168   0.0000       0.911370        24.7996 
 169   0.0000       0.921791        25.0832 
 170   0.0000       0.929551        25.2944 
 171   0.0000       0.937885        25.5211 
 172   0.0000       0.953222        25.9385 
 173   0.0000       0.961012        26.1505 
 174   0.0000       0.968839        26.3634 
 175   0.0000       0.982421        26.7330 
 176   0.0000       1.001692        27.2574 
 177   0.0000       1.004248        27.3270 
 178   0.0000       1.015906        27.6442 
 179   0.0000       1.024241        27.8710 
 180   0.0000       1.040976        28.3264 
 181   0.0000       1.045583        28.4518 
 182   0.0000       1.066928        29.0326 
 183   0.0000       1.068318        29.0704 
 184   0.0000       1.081806        29.4374 
 185   0.0000       1.092656        29.7327 
 186   0.0000       1.100353        29.9421 
 187   0.0000       1.113934        30.3117 
 188   0.0000       1.121657        30.5218 
 189   0.0000       1.151654        31.3381 
 190   0.0000       1.163442        31.6589 
 191   0.0000       1.170598        31.8536 
 192   0.0000       1.174482        31.9593 
 193   0.0000       1.205445        32.8018 
 194   0.0000       1.207278        32.8517 
 195   0.0000       1.222511        33.2662 
 196   0.0000       1.235768        33.6270 
 197   0.0000       1.257247        34.2114 
 198   0.0000       1.269019        34.5318 
 199   0.0000       1.282584        34.9009 
 200   0.0000       1.293529        35.1987 
 201   0.0000       1.309885        35.6438 
 202   0.0000       1.322769        35.9944 
 203   0.0000       1.331356        36.2280 
 204   0.0000       1.343686        36.5636 
 205   0.0000       1.348529        36.6953 
 206   0.0000       1.377081        37.4723 
 207   0.0000       1.389404        37.8076 
 208   0.0000       1.393369        37.9155 
 209   0.0000       1.400417        38.1073 
 210   0.0000       1.406635        38.2765 
 211   0.0000       1.424882        38.7730 
 212   0.0000       1.443139        39.2698 
 213   0.0000       1.452708        39.5302 
 214   0.0000       1.464148        39.8415 
 215   0.0000       1.487704        40.4825 
 216   0.0000       1.494455        40.6662 
 217   0.0000       1.504496        40.9394 
 218   0.0000       1.524373        41.4803 
 219   0.0000       1.528778        41.6002 
 220   0.0000       1.541647        41.9503 
 221   0.0000       1.545490        42.0549 
 222   0.0000       1.555179        42.3186 
 223   0.0000       1.560558        42.4649 
 224   0.0000       1.570296        42.7299 
 225   0.0000       1.573583        42.8194 
 226   0.0000       1.583736        43.0957 
 227   0.0000       1.590259        43.2732 
 228   0.0000       1.594749        43.3953 
 229   0.0000       1.606874        43.7253 
 230   0.0000       1.611918        43.8625 
 231   0.0000       1.619676        44.0736 
 232   0.0000       1.629676        44.3457 
 233   0.0000       1.635253        44.4975 
 234   0.0000       1.638560        44.5875 
 235   0.0000       1.659693        45.1625 
 236   0.0000       1.673001        45.5247 
 237   0.0000       1.685964        45.8774 
 238   0.0000       1.691370        46.0245 
 239   0.0000       1.693182        46.0738 
 240   0.0000       1.719982        46.8031 
 241   0.0000       1.729898        47.0729 
 242   0.0000       1.753301        47.7097 
 243   0.0000       1.762085        47.9488 
 244   0.0000       1.768716        48.1292 
 245   0.0000       1.773324        48.2546 
 246   0.0000       1.776695        48.3463 
 247   0.0000       1.803341        49.0714 
 248   0.0000       1.819411        49.5087 
 249   0.0000       1.828188        49.7475 
 250   0.0000       1.841753        50.1166 
 251   0.0000       1.847881        50.2834 
 252   0.0000       1.853703        50.4418 
 253   0.0000       1.871053        50.9139 
 254   0.0000       1.884766        51.2871 
 255   0.0000       1.891612        51.4734 
 256   0.0000       1.906559        51.8801 
 257   0.0000       1.915420        52.1212 
 258   0.0000       1.921708        52.2923 
 259   0.0000       1.934766        52.6477 
 260   0.0000       1.949364        53.0449 
 261   0.0000       1.958652        53.2976 
 262   0.0000       1.969052        53.5806 
 263   0.0000       1.976145        53.7736 
 264   0.0000       1.995517        54.3008 
 265   0.0000       1.998818        54.3906 
 266   0.0000       2.005042        54.5600 
 267   0.0000       2.016885        54.8822 
 268   0.0000       2.018427        54.9242 
 269   0.0000       2.029845        55.2349 
 270   0.0000       2.037825        55.4520 
 271   0.0000       2.052354        55.8474 
 272   0.0000       2.058592        56.0171 
 273   0.0000       2.072639        56.3994 
 274   0.0000       2.081264        56.6341 
 275   0.0000       2.090372        56.8819 
 276   0.0000       2.106225        57.3133 
 277   0.0000       2.115825        57.5745 
 278   0.0000       2.136424        58.1350 
 279   0.0000       2.155976        58.6671 
 280   0.0000       2.161096        58.8064 
 281   0.0000       2.185417        59.4682 
 282   0.0000       2.188511        59.5524 
 283   0.0000       2.194662        59.7198 
 284   0.0000       2.220405        60.4203 
 285   0.0000       2.233706        60.7822 
 286   0.0000       2.245198        61.0949 
 287   0.0000       2.253057        61.3088 
 288   0.0000       2.268542        61.7302 
 289   0.0000       2.287258        62.2395 
 290   0.0000       2.290990        62.3410 
 291   0.0000       2.303346        62.6772 
 292   0.0000       2.315455        63.0067 
 293   0.0000       2.323633        63.2293 
 294   0.0000       2.330949        63.4284 
 295   0.0000       2.348233        63.8987 
 296   0.0000       2.349562        63.9348 
 297   0.0000       2.365634        64.3722 
 298   0.0000       2.375155        64.6313 
 299   0.0000       2.384188        64.8771 
 300   0.0000       2.395077        65.1734 
 301   0.0000       2.398897        65.2773 
 302   0.0000       2.406735        65.4906 
 303   0.0000       2.426564        66.0302 
 304   0.0000       2.431024        66.1515 
 305   0.0000       2.467768        67.1514 
 306   0.0000       2.468422        67.1692 
 307   0.0000       2.476935        67.4008 
 308   0.0000       2.477605        67.4191 
 309   0.0000       2.506935        68.2172 
 310   0.0000       2.525537        68.7234 
 311   0.0000       2.539579        69.1055 
 312   0.0000       2.547178        69.3122 
 313   0.0000       2.553875        69.4945 
 314   0.0000       2.559739        69.6541 
 315   0.0000       2.562526        69.7299 
 316   0.0000       2.569377        69.9163 
 317   0.0000       2.573762        70.0356 
 318   0.0000       2.594720        70.6059 
 319   0.0000       2.605105        70.8885 
 320   0.0000       2.625606        71.4464 
 321   0.0000       2.627168        71.4889 
 322   0.0000       2.631799        71.6149 
 323   0.0000       2.637523        71.7707 
 324   0.0000       2.650415        72.1215 
 325   0.0000       2.658124        72.3312 
 326   0.0000       2.662669        72.4549 
 327   0.0000       2.692663        73.2711 
 328   0.0000       2.700272        73.4781 
 329   0.0000       2.710099        73.7455 
 330   0.0000       2.716659        73.9241 
 331   0.0000       2.724438        74.1357 
 332   0.0000       2.740516        74.5732 
 333   0.0000       2.753597        74.9292 
 334   0.0000       2.769269        75.3556 
 335   0.0000       2.777506        75.5798 
 336   0.0000       2.781610        75.6915 
 337   0.0000       2.805767        76.3488 
 338   0.0000       2.812187        76.5235 
 339   0.0000       2.832663        77.0807 
 340   0.0000       2.840466        77.2930 
 341   0.0000       2.844427        77.4008 
 342   0.0000       2.852132        77.6105 
 343   0.0000       2.874135        78.2092 
 344   0.0000       2.893620        78.7394 
 345   0.0000       2.925427        79.6049 
 346   0.0000       2.929466        79.7148 
 347   0.0000       2.944094        80.1129 
 348   0.0000       2.959449        80.5307 
 349   0.0000       2.965751        80.7022 
 350   0.0000       2.973338        80.9086 
 351   0.0000       2.980766        81.1108 
 352   0.0000       2.993042        81.4448 
 353   0.0000       3.006623        81.8144 
 354   0.0000       3.013388        81.9985 
 355   0.0000       3.023945        82.2857 
 356   0.0000       3.042319        82.7857 
 357   0.0000       3.046960        82.9120 
 358   0.0000       3.053678        83.0948 
 359   0.0000       3.069596        83.5280 
 360   0.0000       3.072632        83.6106 
 361   0.0000       3.091371        84.1205 
 362   0.0000       3.106172        84.5232 
 363   0.0000       3.113950        84.7349 
 364   0.0000       3.118371        84.8552 
 365   0.0000       3.126246        85.0695 
 366   0.0000       3.137028        85.3629 
 367   0.0000       3.154363        85.8346 
 368   0.0000       3.162739        86.0625 
 369   0.0000       3.166846        86.1743 
 370   0.0000       3.174375        86.3791 
 371   0.0000       3.186482        86.7086 
 372   0.0000       3.192915        86.8836 
 373   0.0000       3.200037        87.0774 
 374   0.0000       3.217062        87.5407 
 375   0.0000       3.225451        87.7690 
 376   0.0000       3.232954        87.9731 
 377   0.0000       3.238878        88.1343 
 378   0.0000       3.251681        88.4827 
 379   0.0000       3.256573        88.6159 
 380   0.0000       3.269381        88.9644 
 381   0.0000       3.279348        89.2356 
 382   0.0000       3.281524        89.2948 
 383   0.0000       3.291201        89.5581 
 384   0.0000       3.302344        89.8613 
 385   0.0000       3.312080        90.1263 
 386   0.0000       3.318673        90.3057 
 387   0.0000       3.321479        90.3820 
 388   0.0000       3.336773        90.7982 
 389   0.0000       3.346640        91.0667 
 390   0.0000       3.351892        91.2096 
 391   0.0000       3.358221        91.3818 
 392   0.0000       3.367444        91.6328 
 393   0.0000       3.378536        91.9346 
 394   0.0000       3.387363        92.1748 
 395   0.0000       3.404294        92.6356 
 396   0.0000       3.409711        92.7830 
 397   0.0000       3.416550        92.9691 
 398   0.0000       3.429587        93.3238 
 399   0.0000       3.435792        93.4927 
 400   0.0000       3.439217        93.5859 
 401   0.0000       3.455832        94.0380 
 402   0.0000       3.484165        94.8089 
 403   0.0000       3.506093        95.4056 
 404   0.0000       3.517965        95.7287 
 405   0.0000       3.524204        95.8985 
 406   0.0000       3.531295        96.0914 
 407   0.0000       3.541936        96.3810 
 408   0.0000       3.552978        96.6814 
 409   0.0000       3.568310        97.0987 
 410   0.0000       3.586925        97.6052 
 411   0.0000       3.595188        97.8300 
 412   0.0000       3.630537        98.7919 
 413   0.0000       3.638312        99.0035 
 414   0.0000       3.673100        99.9501 
 415   0.0000       3.698759       100.6484 
 416   0.0000       3.704867       100.8145 
 417   0.0000       3.731236       101.5321 
 418   0.0000       3.752724       102.1168 
 419   0.0000       3.766006       102.4782 
 420   0.0000       3.775940       102.7485 
 421   0.0000       3.788081       103.0789 
 422   0.0000       3.804792       103.5337 
 423   0.0000       3.836324       104.3917 
 424   0.0000       3.840429       104.5034 
 425   0.0000       3.842729       104.5660 
 426   0.0000       3.865282       105.1797 
 427   0.0000       3.868919       105.2786 
 428   0.0000       3.884294       105.6970 
 429   0.0000       3.897577       106.0585 
 430   0.0000       3.908264       106.3493 
 431   0.0000       3.926955       106.8579 
 432   0.0000       3.952400       107.5503 
 433   0.0000       3.966550       107.9353 
 434   0.0000       4.010893       109.1419 
 435   0.0000       4.014204       109.2320 
 436   0.0000       4.038603       109.8960 
 437   0.0000       4.043725       110.0354 
 438   0.0000       4.085647       111.1761 
 439   0.0000       4.099932       111.5648 
 440   0.0000       4.121616       112.1549 
 441   0.0000       4.142831       112.7322 
 442   0.0000       4.148660       112.8908 
 443   0.0000       4.177818       113.6842 
 444   0.0000       4.188726       113.9810 
 445   0.0000       4.201229       114.3212 
 446   0.0000       4.248262       115.6011 
 447   0.0000       4.264440       116.0413 
 448   0.0000       4.305250       117.1518 
 449   0.0000       4.320303       117.5614 
 450   0.0000       4.325139       117.6930 
 451   0.0000       4.334962       117.9603 
 452   0.0000       4.342284       118.1595 
 453   0.0000       4.363296       118.7313 
 454   0.0000       4.387799       119.3981 
 455   0.0000       4.392713       119.5318 
 456   0.0000       4.418651       120.2376 
 457   0.0000       4.443996       120.9273 
 458   0.0000       4.472497       121.7028 
 459   0.0000       4.504478       122.5731 
 460   0.0000       4.521803       123.0445 
 461   0.0000       4.525338       123.1407 
 462   0.0000       4.540573       123.5553 
 463   0.0000       4.578867       124.5973 
 464   0.0000       4.625681       125.8712 
 465   0.0000       4.639532       126.2481 
 466   0.0000       4.661314       126.8408 
 467   0.0000       4.703493       127.9886 
 468   0.0000       4.720387       128.4483 
 469   0.0000       4.743165       129.0681 
 470   0.0000       4.756869       129.4410 
 471   0.0000       4.773738       129.9000 
 472   0.0000       4.800774       130.6357 
 473   0.0000       4.821749       131.2064 
 474   0.0000       4.835737       131.5871 
 475   0.0000       4.857346       132.1751 
 476   0.0000       4.867321       132.4465 
 477   0.0000       4.919242       133.8594 
 478   0.0000       4.940552       134.4393 
 479   0.0000       4.951072       134.7255 
 480   0.0000       4.969672       135.2317 
 481   0.0000       4.975882       135.4006 
 482   0.0000       5.021617       136.6452 
 483   0.0000       5.055312       137.5620 
 484   0.0000       5.067457       137.8925 
 485   0.0000       5.096361       138.6790 
 486   0.0000       5.106860       138.9647 
 487   0.0000       5.115448       139.1984 
 488   0.0000       5.183514       141.0506 
 489   0.0000       5.200130       141.5027 
 490   0.0000       5.213340       141.8622 
 491   0.0000       5.226679       142.2252 
 492   0.0000       5.244219       142.7025 
 493   0.0000       5.261752       143.1795 
 494   0.0000       5.265005       143.2681 
 495   0.0000       5.274255       143.5198 
 496   0.0000       5.294519       144.0712 
 497   0.0000       5.309157       144.4695 
 498   0.0000       5.384999       146.5333 
 499   0.0000       5.428793       147.7250 
 500   0.0000       5.438507       147.9893 
 501   0.0000       5.479086       149.0935 
 502   0.0000       5.519511       150.1935 
 503   0.0000       5.539468       150.7366 
 504   0.0000       5.581415       151.8780 
 505   0.0000       5.647157       153.6670 
 506   0.0000       5.673466       154.3829 
 507   0.0000       5.723056       155.7323 
 508   0.0000       5.736739       156.1046 
 509   0.0000       5.772482       157.0772 
 510   0.0000       5.889211       160.2536 
 511   0.0000       5.907050       160.7390 
 512   0.0000       6.085048       165.5826 
 513   0.0000       6.109049       166.2357 
 514   0.0000       6.291162       171.1912 
 515   0.0000       6.300896       171.4561 
 516   0.0000       6.415808       174.5830 
 517   0.0000       6.424040       174.8070 
 518   0.0000       6.548434       178.1920 
 519   0.0000       6.558491       178.4656 
 520   0.0000       6.649964       180.9547 
 521   0.0000       6.659053       181.2020 
 522   0.0000       6.827613       185.7888 
 523   0.0000       6.834016       185.9630 
 524   0.0000       7.045678       191.7227 
 525   0.0000       7.068217       192.3360 
 526   0.0000       7.078479       192.6152 
 527   0.0000       7.101427       193.2396 
 528   0.0000      22.401579       609.5780 
 529   0.0000      22.461896       611.2193 
 530   0.0000      22.467824       611.3806 
 531   0.0000      22.506208       612.4250 
 532   0.0000      22.585906       614.5938 
 533   0.0000      22.625803       615.6794 
 534   0.0000      22.796506       620.3245 
 535   0.0000      23.356709       635.5684 
 536   0.0000      23.401875       636.7974 
 537   0.0000      32.051350       872.1616 
 538   0.0000      32.504609       884.4954 
 539   0.0000      32.679717       889.2603 
 540   0.0000      44.065883      1199.0936 
 541   0.0000      44.097523      1199.9546 

                 SPIN DOWN ORBITALS
  NO   OCC          E(Eh)            E(eV) 
   0   1.0000     -19.607473      -533.5465 
   1   1.0000     -19.586661      -532.9801 
   2   1.0000     -14.788076      -402.4040 
   3   1.0000     -14.769203      -401.8904 
   4   1.0000     -14.727647      -400.7597 
   5   1.0000     -10.656694      -289.9834 
   6   1.0000     -10.643400      -289.6216 
   7   1.0000     -10.595933      -288.3300 
   8   1.0000     -10.580696      -287.9154 
   9   1.0000     -10.560316      -287.3608 
  10   1.0000     -10.550885      -287.1042 
  11   1.0000     -10.540716      -286.8275 
  12   1.0000     -10.540469      -286.8207 
  13   1.0000     -10.538409      -286.7647 
  14   1.0000      -1.170054       -31.8388 
  15   1.0000      -1.148516       -31.2527 
  16   1.0000      -1.041987       -28.3539 
  17   1.0000      -1.030414       -28.0390 
  18   1.0000      -0.986533       -26.8449 
  19   1.0000      -0.895693       -24.3730 
  20   1.0000      -0.855646       -23.2833 
  21   1.0000      -0.824984       -22.4490 
  22   1.0000      -0.809365       -22.0239 
  23   1.0000      -0.755411       -20.5558 
  24   1.0000      -0.700939       -19.0735 
  25   1.0000      -0.682165       -18.5626 
  26   1.0000      -0.666028       -18.1235 
  27   1.0000      -0.630375       -17.1534 
  28   1.0000      -0.617306       -16.7977 
  29   1.0000      -0.567684       -15.4475 
  30   1.0000      -0.560170       -15.2430 
  31   1.0000      -0.549955       -14.9650 
  32   1.0000      -0.544184       -14.8080 
  33   1.0000      -0.534786       -14.5523 
  34   1.0000      -0.525004       -14.2861 
  35   1.0000      -0.523739       -14.2517 
  36   1.0000      -0.500054       -13.6072 
  37   1.0000      -0.496792       -13.5184 
  38   1.0000      -0.492661       -13.4060 
  39   1.0000      -0.473702       -12.8901 
  40   1.0000      -0.472511       -12.8577 
  41   1.0000      -0.469415       -12.7734 
  42   1.0000      -0.456411       -12.4196 
  43   1.0000      -0.445081       -12.1113 
  44   1.0000      -0.438602       -11.9350 
[...]
     60      -0.000267  -0.000010   0.000007   0.000016  -0.000480   0.000006
     61       0.000224   0.000012   0.000006   0.000006   0.000668  -0.000014
     62       0.000415   0.000031   0.000004   0.000000   0.001511  -0.000036
     63       0.056596   0.000236   0.000007   0.000017   0.000170   0.000011
     64      -0.030893  -0.000165   0.000005   0.000007  -0.000100  -0.000000
     65      -0.067817  -0.000323   0.000001  -0.000002  -0.000317  -0.000004
     66       0.051157   0.000364   0.000012   0.000023  -0.000269  -0.000012
     67       0.112023   0.000936   0.000003   0.000002   0.000528  -0.000049
     68      -0.010149  -0.000028  -0.000003  -0.000002  -0.000069  -0.000000
     69      -0.648510  -0.002808   0.000002   0.000017  -0.000759   0.000023
     70      -0.012981  -0.000048   0.000006   0.000012  -0.000016  -0.000015
     71       0.151688   0.000651   0.000005   0.000001   0.000161   0.000017
     72      -0.088075  -0.000442   0.000009   0.000011  -0.001812  -0.000031
     73       0.276022   0.001379   0.000007   0.000013   0.003317   0.000052
     74       0.668920   0.003349   0.000007   0.000008   0.004503  -0.000020
     75       0.000206  -0.035289  -0.000009  -0.000011   0.000052  -0.000765
     76      -0.000183   0.035444  -0.000003  -0.000013  -0.000091   0.001603
     77       0.000442  -0.079083   0.000002   0.000002  -0.000008   0.000122
     78      -0.001076   0.185907  -0.000019  -0.000032  -0.000025   0.003297
     79      -0.000819   0.140720  -0.000011  -0.000005  -0.000024   0.005363
     80      -0.000342   0.059745  -0.000008   0.000010   0.000188   0.002320
     81      -0.002449   0.468674  -0.000003  -0.000022  -0.000255   0.004655
     82       0.002403  -0.457925  -0.000008   0.000005   0.000251  -0.005434
     83      -0.003048   0.590757   0.000006  -0.000012  -0.000423   0.005496
     84       0.001232  -0.239564  -0.000003  -0.000007   0.000160  -0.005102
     85       0.000456  -0.090986  -0.000003  -0.000005  -0.000066   0.000978
     86      -0.001490   0.297850  -0.000015   0.000022   0.000157   0.006296
     87      -0.000925  -0.000290  -0.000008   0.000040  -0.002251  -0.000228
     88      -0.000796   0.000043   0.000002   0.000013  -0.005203  -0.000158
     89       0.001663   0.000378   0.000025   0.000031   0.006092   0.000888
     90       0.000459   0.000252  -0.000040  -0.000038   0.001158  -0.000536
     91      -0.000560  -0.000438   0.000010   0.000023  -0.000476  -0.002129
     92       0.000946   0.000679  -0.000021  -0.000034   0.001057   0.000072
     93       0.000040  -0.000005  -0.000015   0.000059  -0.000710  -0.000321
     94       0.000300   0.000228   0.000002  -0.000029  -0.000830  -0.000200
     95       0.000110   0.000120   0.000022  -0.000053  -0.000595  -0.000342


-----------
IR SPECTRUM
-----------

 Mode   freq       eps      Int      T**2         TX        TY        TZ
       cm**-1   L/(mol*cm) km/mol    a.u.
----------------------------------------------------------------------------
  7:     44.81   0.000786    3.97  0.005470  (-0.066440 -0.017915  0.027110)
  8:     52.03   0.000053    0.27  0.000316  (-0.007819  0.000466  0.015967)
  9:     70.28   0.000730    3.69  0.003240  ( 0.035356  0.042056  0.014871)
 10:     84.71   0.000719    3.63  0.002649  (-0.034448 -0.038241 -0.000053)
 11:     90.12   0.000214    1.08  0.000742  ( 0.022904  0.004894 -0.013912)
 12:     91.98   0.001880    9.50  0.006377  (-0.072172 -0.024559  0.023761)
 13:    107.23   0.002496   12.61  0.007264  ( 0.020810  0.081084  0.016003)
 14:    132.84   0.001335    6.74  0.003135  (-0.051920  0.020264 -0.005380)
 15:    150.46   0.000556    2.81  0.001154  ( 0.003100 -0.033627 -0.003624)
 16:    161.60   0.000815    4.12  0.001573  (-0.036129 -0.014250  0.008036)
 17:    164.75   0.000456    2.31  0.000864  ( 0.013108 -0.025789 -0.005218)
 18:    212.44   0.000692    3.50  0.001016  (-0.021826  0.008564  0.021597)
 19:    234.09   0.001649    8.34  0.002199  ( 0.025208 -0.039319  0.004171)
 20:    256.55   0.005494   27.76  0.006683  ( 0.041352 -0.053096 -0.046407)
 21:    291.90   0.001954    9.87  0.002089  ( 0.034613 -0.028674 -0.008285)
 22:    323.82   0.002685   13.57  0.002588  ( 0.049097 -0.000077 -0.013314)
 23:    361.12   0.001110    5.61  0.000959  ( 0.025413 -0.017629 -0.001512)
 24:    380.62   0.005884   29.74  0.004824  ( 0.029859  0.061923 -0.009911)
 25:    401.28   0.010679   53.96  0.008304  (-0.063214 -0.064988  0.009213)
 26:    412.78   0.006081   30.73  0.004598  ( 0.063075 -0.021096 -0.013196)
 27:    445.27   0.000513    2.59  0.000360  ( 0.010108  0.000391  0.016043)
 28:    511.74   0.001763    8.91  0.001075  ( 0.007012 -0.021304  0.023912)
 29:    552.68   0.007496   37.88  0.004233  (-0.063019 -0.011895  0.010938)
 30:    578.17   0.009204   46.51  0.004968  ( 0.036902  0.057871 -0.016022)
 31:    633.12   0.004358   22.02  0.002148  (-0.044653  0.005395  0.011178)
 32:    665.04   0.000896    4.53  0.000421  ( 0.014683  0.012260 -0.007396)
 33:    696.02   0.000300    1.52  0.000135  ( 0.008645  0.006800  0.003686)
 34:    780.09   0.001587    8.02  0.000635  ( 0.006932 -0.007769  0.022943)
 35:    806.80   0.002364   11.95  0.000914  (-0.027851 -0.006401 -0.009884)
 36:    845.01   0.026160  132.20  0.009661  (-0.065567  0.032482 -0.065625)
 37:    878.39   0.001378    6.96  0.000490  ( 0.005005 -0.013068 -0.017138)
 38:    922.40   0.000493    2.49  0.000167  (-0.000324 -0.008666 -0.009561)
 39:    954.31   0.001053    5.32  0.000344  (-0.012425  0.007707 -0.011424)
 40:    979.06   0.000254    1.28  0.000081  ( 0.000418 -0.006287  0.006411)
 41:   1016.37   0.000380    1.92  0.000117  ( 0.005571 -0.004319 -0.008184)
 42:   1028.84   0.002548   12.87  0.000773  (-0.021364  0.017748 -0.001168)
 43:   1041.25   0.001436    7.26  0.000430  (-0.011596  0.003933 -0.016747)
 44:   1064.03   0.001204    6.09  0.000353  (-0.015472 -0.010215  0.003089)
 45:   1082.84   0.001345    6.80  0.000388  ( 0.005793 -0.007169  0.017396)
 46:   1114.31   0.004300   21.73  0.001204  ( 0.033668  0.008325 -0.001130)
 47:   1127.21   0.000177    0.89  0.000049  (-0.003457  0.005085  0.003328)
 48:   1150.68   0.000488    2.47  0.000132  ( 0.004595  0.003758 -0.009860)
 49:   1155.62   0.000420    2.12  0.000113  ( 0.001387  0.004601 -0.009506)
 50:   1161.43   0.000226    1.14  0.000061  ( 0.002868 -0.007009  0.001841)
 51:   1167.81   0.000126    0.64  0.000034  ( 0.003429  0.004680  0.000296)
 52:   1198.67   0.000038    0.19  0.000010  (-0.001030 -0.002614  0.001378)
 53:   1225.08   0.000649    3.28  0.000165  ( 0.004802 -0.009660  0.006987)
 54:   1238.04   0.000887    4.48  0.000224  (-0.013272  0.006677 -0.001707)
 55:   1261.14   0.010863   54.90  0.002688  (-0.026161  0.044761  0.000397)
 56:   1280.43   0.001954    9.87  0.000476  (-0.012312 -0.015375 -0.009389)
 57:   1293.26   0.000233    1.18  0.000056  (-0.007390 -0.001070  0.000690)
 58:   1319.45   0.004311   21.79  0.001020  (-0.027648  0.015884  0.001711)
 59:   1339.39   0.000838    4.24  0.000195  ( 0.006386 -0.011668 -0.004288)
 60:   1367.17   0.002875   14.53  0.000656  (-0.015074  0.019664  0.006496)
 61:   1381.37   0.000486    2.46  0.000110  (-0.001239  0.009286  0.004701)
 62:   1409.58   0.005794   29.28  0.001283  ( 0.023187 -0.025446  0.009875)
 63:   1428.22   0.001663    8.40  0.000363  (-0.018706 -0.003079  0.001989)
 64:   1450.34   0.001373    6.94  0.000295  ( 0.013940  0.009031  0.004413)
 65:   1458.29   0.004266   21.56  0.000913  ( 0.010267 -0.024806  0.013859)
 66:   1472.17   0.000577    2.91  0.000122  ( 0.004797 -0.005406 -0.008369)
 67:   1479.73   0.002968   15.00  0.000626  (-0.015848  0.004698  0.018783)
 68:   1480.87   0.002720   13.75  0.000573  ( 0.014201  0.008726  0.017187)
 69:   1485.28   0.002730   13.80  0.000574  ( 0.022967 -0.004390 -0.005180)
 70:   1491.32   0.010964   55.41  0.002294  ( 0.022855 -0.039579 -0.014331)
 71:   1518.51   0.003604   18.21  0.000741  ( 0.010874 -0.024035 -0.006692)
 72:   1523.86   0.000470    2.37  0.000096  ( 0.007195 -0.005043 -0.004355)
 73:   1543.40   0.121583  614.43  0.024583  ( 0.099405 -0.119660  0.019572)
 74:   1576.82   0.019438   98.23  0.003847  ( 0.005355 -0.058568  0.019696)
 75:   1654.92   0.007546   38.13  0.001423  (-0.025415 -0.025925  0.010239)
 76:   1773.87   0.083737  423.17  0.014731  (-0.007070  0.021663  0.119214)
 77:   1786.82   0.016998   85.90  0.002969  (-0.040873  0.030339 -0.019431)
 78:   2970.74   0.005890   29.76  0.000619  (-0.010361 -0.018696 -0.012721)
 79:   3010.88   0.009455   47.78  0.000980  (-0.015871  0.005665 -0.026381)
 80:   3024.95   0.001600    8.08  0.000165  ( 0.003011  0.001456  0.012404)
 81:   3067.19   0.001919    9.70  0.000195  ( 0.003857 -0.008888  0.010069)
 82:   3077.23   0.002653   13.40  0.000269  (-0.003151  0.001378 -0.016037)
 83:   3080.48   0.009745   49.25  0.000987  ( 0.005357 -0.030566  0.004917)
 84:   3081.66   0.001385    7.00  0.000140  ( 0.002782 -0.004165 -0.010730)
 85:   3089.40   0.000613    3.10  0.000062  (-0.002328  0.001814 -0.007295)
 86:   3102.94   0.004399   22.23  0.000442  (-0.000498  0.021025 -0.000344)
 87:   3148.80   0.002019   10.20  0.000200  ( 0.012612  0.006194 -0.001630)
 88:   3173.00   0.000458    2.32  0.000045  ( 0.003334  0.004235  0.004002)
 89:   3181.40   0.001278    6.46  0.000125  (-0.003839  0.002636 -0.010182)
 90:   3182.20   0.001294    6.54  0.000127  ( 0.003153 -0.003423 -0.010256)
 91:   3185.11   0.001492    7.54  0.000146  (-0.004918  0.004702 -0.009996)
 92:   3525.26   0.000162    0.82  0.000014  (-0.003049 -0.001796  0.001363)
 93:   3610.21   0.000839    4.24  0.000073  (-0.002975  0.005970  0.005294)
 94:   3613.69   0.020513  103.66  0.001771  (-0.010682  0.027568  0.029955)
 95:   3677.60   0.008472   42.82  0.000719  ( 0.006884 -0.003889  0.025621)

* The epsilon (eps) is given for a Dirac delta lineshape.
** The dipole moment derivative (T) already includes vibrational overlap.

The first frequency considered to be a vibration is 7
The total number of vibrations considered is 89


--------------------------
THERMOCHEMISTRY AT 298.15K
--------------------------

Temperature         ... 298.15 K
Pressure            ... 1.00 atm
Total Mass          ... 200.26 AMU

Throughout the following assumptions are being made:
  (1) The electronic state is orbitally nondegenerate
      but the spin degeneracy is treated
  (2) There are no thermally accessible electronically excited states
  (3) Hindered rotations indicated by low frequency modes are not
      treated as such but are treated as vibrations and this may
      cause some error
  (4) All equations used are the standard statistical mechanics
      equations for an ideal gas
  (5) All vibrations are strictly harmonic

freq.      44.81  E(vib)   ...       0.53 
freq.      52.03  E(vib)   ...       0.52 
freq.      70.28  E(vib)   ...       0.50 
freq.      84.71  E(vib)   ...       0.48 
freq.      90.12  E(vib)   ...       0.47 
freq.      91.98  E(vib)   ...       0.47 
freq.     107.23  E(vib)   ...       0.45 
freq.     132.84  E(vib)   ...       0.42 
freq.     150.46  E(vib)   ...       0.40 
freq.     161.60  E(vib)   ...       0.39 
freq.     164.75  E(vib)   ...       0.39 
freq.     212.44  E(vib)   ...       0.34 
freq.     234.09  E(vib)   ...       0.32 
freq.     256.55  E(vib)   ...       0.30 
freq.     291.90  E(vib)   ...       0.27 
freq.     323.82  E(vib)   ...       0.25 
freq.     361.12  E(vib)   ...       0.22 
freq.     380.62  E(vib)   ...       0.21 
freq.     401.28  E(vib)   ...       0.19 
freq.     412.78  E(vib)   ...       0.19 
freq.     445.27  E(vib)   ...       0.17 
freq.     511.74  E(vib)   ...       0.14 
freq.     552.68  E(vib)   ...       0.12 
freq.     578.17  E(vib)   ...       0.11 
freq.     633.12  E(vib)   ...       0.09 
freq.     665.04  E(vib)   ...       0.08 
freq.     696.02  E(vib)   ...       0.07 
freq.     780.09  E(vib)   ...       0.05 
freq.     806.80  E(vib)   ...       0.05 
freq.     845.01  E(vib)   ...       0.04 
freq.     878.39  E(vib)   ...       0.04 
freq.     922.40  E(vib)   ...       0.03 
freq.     954.31  E(vib)   ...       0.03 
freq.     979.06  E(vib)   ...       0.03 
freq.    1016.37  E(vib)   ...       0.02 
freq.    1028.84  E(vib)   ...       0.02 
freq.    1041.25  E(vib)   ...       0.02 
freq.    1064.03  E(vib)   ...       0.02 
freq.    1082.84  E(vib)   ...       0.02 
freq.    1114.31  E(vib)   ...       0.01 
freq.    1127.21  E(vib)   ...       0.01 
freq.    1150.68  E(vib)   ...       0.01 
freq.    1155.62  E(vib)   ...       0.01 
freq.    1161.43  E(vib)   ...       0.01 
freq.    1167.81  E(vib)   ...       0.01 
freq.    1198.67  E(vib)   ...       0.01 
freq.    1225.08  E(vib)   ...       0.01 
freq.    1238.04  E(vib)   ...       0.01 
freq.    1261.14  E(vib)   ...       0.01 
freq.    1280.43  E(vib)   ...       0.01 
freq.    1293.26  E(vib)   ...       0.01 
freq.    1319.45  E(vib)   ...       0.01 
freq.    1339.39  E(vib)   ...       0.01 
freq.    1367.17  E(vib)   ...       0.01 
freq.    1381.37  E(vib)   ...       0.01 
freq.    1409.58  E(vib)   ...       0.00 
freq.    1428.22  E(vib)   ...       0.00 
freq.    1450.34  E(vib)   ...       0.00 
freq.    1458.29  E(vib)   ...       0.00 
freq.    1472.17  E(vib)   ...       0.00 
freq.    1479.73  E(vib)   ...       0.00 
freq.    1480.87  E(vib)   ...       0.00 
freq.    1485.28  E(vib)   ...       0.00 
freq.    1491.32  E(vib)   ...       0.00 
freq.    1518.51  E(vib)   ...       0.00 
freq.    1523.86  E(vib)   ...       0.00 
freq.    1543.40  E(vib)   ...       0.00 
freq.    1576.82  E(vib)   ...       0.00 
freq.    1654.92  E(vib)   ...       0.00 
freq.    1773.87  E(vib)   ...       0.00 
freq.    1786.82  E(vib)   ...       0.00 
freq.    2970.74  E(vib)   ...       0.00 
freq.    3010.88  E(vib)   ...       0.00 
freq.    3024.95  E(vib)   ...       0.00 
freq.    3067.19  E(vib)   ...       0.00 
freq.    3077.23  E(vib)   ...       0.00 
freq.    3080.48  E(vib)   ...       0.00 
freq.    3081.66  E(vib)   ...       0.00 
freq.    3089.40  E(vib)   ...       0.00 
freq.    3102.94  E(vib)   ...       0.00 
freq.    3148.80  E(vib)   ...       0.00 
freq.    3173.00  E(vib)   ...       0.00 
freq.    3181.40  E(vib)   ...       0.00 
freq.    3182.20  E(vib)   ...       0.00 
freq.    3185.11  E(vib)   ...       0.00 
freq.    3525.26  E(vib)   ...       0.00 
freq.    3610.21  E(vib)   ...       0.00 
freq.    3613.69  E(vib)   ...       0.00 
freq.    3677.60  E(vib)   ...       0.00 

------------
INNER ENERGY
------------

The inner energy is: U= E(el) + E(ZPE) + E(vib) + E(rot) + E(trans)
    E(el)   - is the total energy from the electronic structure calculation
              = E(kin-el) + E(nuc-el) + E(el-el) + E(nuc-nuc)
    E(ZPE)  - the the zero temperature vibrational energy from the frequency calculation
    E(vib)  - the the finite temperature correction to E(ZPE) due to population
              of excited vibrational states
    E(rot)  - is the rotational thermal energy
    E(trans)- is the translational thermal energy

Summary of contributions to the inner energy U:
Electronic energy                ...   -668.44645001 Eh
Zero point energy                ...      0.27708142 Eh     173.87 kcal/mol
Thermal vibrational correction   ...      0.01377012 Eh       8.64 kcal/mol
Thermal rotational correction    ...      0.00141627 Eh       0.89 kcal/mol
Thermal translational correction ...      0.00141627 Eh       0.89 kcal/mol
-----------------------------------------------------------------------
Total thermal energy                   -668.15276593 Eh


Summary of corrections to the electronic energy:
(perhaps to be used in another calculation)
Total thermal correction                  0.01660266 Eh      10.42 kcal/mol
Non-thermal (ZPE) correction              0.27708142 Eh     173.87 kcal/mol
-----------------------------------------------------------------------
Total correction                          0.29368408 Eh     184.29 kcal/mol


--------
ENTHALPY
--------

The enthalpy is H = U + kB*T
                kB is Boltzmann's constant
Total free energy                 ...   -668.15276593 Eh 
Thermal Enthalpy correction       ...      0.00094421 Eh       0.59 kcal/mol
-----------------------------------------------------------------------
Total Enthalpy                    ...   -668.15182172 Eh


Note: Only C1 symmetry has been detected, increase convergence thresholds 
      if your molecule has a higher symmetry. Symmetry factor of 1.0 is   
      used for the rotational entropy correction. 
 

Note: Rotational entropy computed according to Herzberg 
Infrared and Raman Spectra, Chapter V,1, Van Nostrand Reinhold, 1945 
Point Group:  C1, Symmetry Number:   1  
Rotational constants in cm-1:     0.023300     0.012914     0.009494 

Vibrational entropy computed according to the QRRHO of S. Grimme
Chem.Eur.J. 2012 18 9955


-------
ENTROPY
-------

The entropy contributions are T*S = T*(S(el)+S(vib)+S(rot)+S(trans))
     S(el)   - electronic entropy
     S(vib)  - vibrational entropy
     S(rot)  - rotational entropy
     S(trans)- translational entropy
The entropies will be listed as multiplied by the temperature to get
units of energy

Electronic entropy                ...      0.00065446 Eh      0.41 kcal/mol
Vibrational entropy               ...      0.02476293 Eh     15.54 kcal/mol
Rotational entropy                ...      0.01553743 Eh      9.75 kcal/mol
Translational entropy             ...      0.01985478 Eh     12.46 kcal/mol
-----------------------------------------------------------------------
Final entropy term                ...      0.06080960 Eh     38.16 kcal/mol

In case the symmetry of your molecule has not been determined correctly
or in case you have a reason to use a different symmetry number we print 
out the resulting rotational entropy values for sn=1,12 :
 --------------------------------------------------------
|  sn= 1 | S(rot)=       0.01553743 Eh      9.75 kcal/mol|
|  sn= 2 | S(rot)=       0.01488298 Eh      9.34 kcal/mol|
|  sn= 3 | S(rot)=       0.01450014 Eh      9.10 kcal/mol|
|  sn= 4 | S(rot)=       0.01422852 Eh      8.93 kcal/mol|
|  sn= 5 | S(rot)=       0.01401783 Eh      8.80 kcal/mol|
|  sn= 6 | S(rot)=       0.01384569 Eh      8.69 kcal/mol|
|  sn= 7 | S(rot)=       0.01370014 Eh      8.60 kcal/mol|
|  sn= 8 | S(rot)=       0.01357406 Eh      8.52 kcal/mol|
|  sn= 9 | S(rot)=       0.01346286 Eh      8.45 kcal/mol|
|  sn=10 | S(rot)=       0.01336338 Eh      8.39 kcal/mol|
|  sn=11 | S(rot)=       0.01327339 Eh      8.33 kcal/mol|
|  sn=12 | S(rot)=       0.01319123 Eh      8.28 kcal/mol|
 --------------------------------------------------------


-------------------
GIBBS FREE ENERGY
-------------------

The Gibbs free energy is G = H - T*S

Total enthalpy                    ...   -668.15182172 Eh 
Total entropy correction          ...     -0.06080960 Eh    -38.16 kcal/mol
-----------------------------------------------------------------------
Final Gibbs free energy         ...   -668.21263132 Eh

For completeness - the Gibbs free energy minus the electronic energy
G-E(el)                           ...      0.23381869 Eh    146.72 kcal/mol


Timings for individual modules:

Sum of individual times         ...     1706.338 sec (=  28.439 min)
GTO integral calculation        ...       46.384 sec (=   0.773 min)   2.7 %
SCF iterations                  ...      684.394 sec (=  11.407 min)  40.1 %
SCF Gradient evaluation         ...      207.707 sec (=   3.462 min)  12.2 %
Geometry relaxation             ...        0.746 sec (=   0.012 min)   0.0 %
Analytical frequency calculation...      767.108 sec (=  12.785 min)  45.0 %
                             ****ORCA TERMINATED NORMALLY****
TOTAL RUN TIME: 0 days 0 hours 29 minutes 5 seconds 971 msec
