32
Energy: -6.681532350276615E+02
 N         1.813081179526     -0.512665562550      0.365291195191
 C         1.127595169218      0.365494382555     -0.551537625817
 C         0.819354497197      1.663770608412      0.215991402002
 O         0.966694937583      1.748103958402      1.421535899908
 C        -0.162699455606     -0.276131568504     -1.124348218240
 C        -1.225573156868     -0.519646233352     -0.095809740672
 C        -2.588172193801     -0.987516438551     -0.507612772402
 C        -3.608752580889     -0.960095945886      0.639722902009
 N        -4.919790133298     -1.400380861042      0.162456787194
 H        -0.936814051221     -0.575934832297      0.954273804816
 H        -2.530930929380     -2.021861741620     -0.903002014419
 H        -2.973203202686     -0.378955764823     -1.341207134795
 H        -3.708893394075      0.070783328002      1.003538384690
 H        -3.216901876664     -1.564648604771      1.477417679226
 H        -5.616815823353     -1.335570414052      0.896593384066
 H        -4.886708822032     -2.370570821397     -0.136126399201
 H         1.821798989060     -0.214123231443      1.331731638878
 C         2.554620384137     -1.561215338354     -0.069702266349
 N         0.361287261611      2.688186980448     -0.533864383533
 H         0.278551041302      2.568544878733     -1.530463199112
 O         2.634844305856     -1.854354962611     -1.248580805216
 C         3.280120349505     -2.356622202803      1.006791715646
 H         2.964907635393     -3.403434850066      0.933700621381
 H         4.355304603273     -2.316656920590      0.798232873458
 H         3.089919099609     -1.988106276979      2.020130948620
 C        -0.010166131149      3.957006131987      0.063811039785
 H         0.873303061594      4.496548546879      0.428497241816
 H        -0.520196629968      4.566914532679     -0.687363103495
 H        -0.681861911194      3.787129415446      0.912477794321
 H         1.798919412082      0.586202730869     -1.392980757205
 H        -0.558920099232      0.359854171157     -1.933562623962
 H         0.151390464471     -1.215227093875     -1.612993268588
