
                                 *****************
                                 * O   R   C   A *
                                 *****************

                                            #,                                       
                                            ###                                      
                                            ####                                     
                                            #####                                    
                                            ######                                   
                                           ########,                                 
                                     ,,################,,,,,                         
                               ,,#################################,,                 
                          ,,##########################################,,             
                       ,#########################################, ''#####,          
                    ,#############################################,,   '####,        
                  ,##################################################,,,,####,       
                ,###########''''           ''''###############################       
              ,#####''   ,,,,##########,,,,          '''####'''          '####       
            ,##' ,,,,###########################,,,                        '##       
           ' ,,###''''                  '''############,,,                           
         ,,##''                                '''############,,,,        ,,,,,,###''
      ,#''                                            '''#######################'''  
     '                                                          ''''####''''         
             ,#######,   #######,   ,#######,      ##                                
            ,#'     '#,  ##    ##  ,#'     '#,    #''#        ######   ,####,        
            ##       ##  ##   ,#'  ##            #'  '#       #        #'  '#        
            ##       ##  #######   ##           ,######,      #####,   #    #        
            '#,     ,#'  ##    ##  '#,     ,#' ,#      #,         ##   #,  ,#        
             '#######'   ##     ##  '#######'  #'      '#     #####' # '####'        



                  #######################################################
                  #                        -***-                        #
                  #          Department of theory and spectroscopy      #
                  #    Directorship and core code : Frank Neese         #
                  #        Max Planck Institute fuer Kohlenforschung    #
                  #                Kaiser Wilhelm Platz 1               #
                  #                 D-45470 Muelheim/Ruhr               #
                  #                      Germany                        #
                  #                                                     #
                  #                  All rights reserved                #
                  #                        -***-                        #
                  #######################################################


                         Program Version 5.0.4 -  RELEASE  -


 With contributions from (in alphabetic order):
   Daniel Aravena         : Magnetic Suceptibility
   Michael Atanasov       : Ab Initio Ligand Field Theory (pilot matlab implementation)
   Alexander A. Auer      : GIAO ZORA, VPT2 properties, NMR spectrum
   Ute Becker             : Parallelization
   Giovanni Bistoni       : ED, misc. LED, open-shell LED, HFLD
   Martin Brehm           : Molecular dynamics
   Dmytro Bykov           : SCF Hessian
   Vijay G. Chilkuri      : MRCI spin determinant printing, contributions to CSF-ICE
   Dipayan Datta          : RHF DLPNO-CCSD density
   Achintya Kumar Dutta   : EOM-CC, STEOM-CC
   Dmitry Ganyushin       : Spin-Orbit,Spin-Spin,Magnetic field MRCI
   Miquel Garcia          : C-PCM and meta-GGA Hessian, CC/C-PCM, Gaussian charge scheme
   Yang Guo               : DLPNO-NEVPT2, F12-NEVPT2, CIM, IAO-localization
   Andreas Hansen         : Spin unrestricted coupled pair/coupled cluster methods
   Benjamin Helmich-Paris : MC-RPA, TRAH-SCF, COSX integrals
   Lee Huntington         : MR-EOM, pCC
   Robert Izsak           : Overlap fitted RIJCOSX, COSX-SCS-MP3, EOM
   Marcus Kettner         : VPT2
   Christian Kollmar      : KDIIS, OOCD, Brueckner-CCSD(T), CCSD density, CASPT2, CASPT2-K
   Simone Kossmann        : Meta GGA functionals, TD-DFT gradient, OOMP2, MP2 Hessian
   Martin Krupicka        : Initial AUTO-CI
   Lucas Lang             : DCDCAS
   Marvin Lechner         : AUTO-CI (C++ implementation), FIC-MRCC
   Dagmar Lenk            : GEPOL surface, SMD
   Dimitrios Liakos       : Extrapolation schemes; Compound Job, initial MDCI parallelization
   Dimitrios Manganas     : Further ROCIS development; embedding schemes
   Dimitrios Pantazis     : SARC Basis sets
   Anastasios Papadopoulos: AUTO-CI, single reference methods and gradients
   Taras Petrenko         : DFT Hessian,TD-DFT gradient, ASA, ECA, R-Raman, ABS, FL, XAS/XES, NRVS
   Peter Pinski           : DLPNO-MP2, DLPNO-MP2 Gradient
   Christoph Reimann      : Effective Core Potentials
   Marius Retegan         : Local ZFS, SOC
   Christoph Riplinger    : Optimizer, TS searches, QM/MM, DLPNO-CCSD(T), (RO)-DLPNO pert. Triples
   Tobias Risthaus        : Range-separated hybrids, TD-DFT gradient, RPA, STAB
   Michael Roemelt        : Original ROCIS implementation
   Masaaki Saitow         : Open-shell DLPNO-CCSD energy and density
   Barbara Sandhoefer     : DKH picture change effects
   Avijit Sen             : IP-ROCIS
   Kantharuban Sivalingam : CASSCF convergence, NEVPT2, FIC-MRCI
   Bernardo de Souza      : ESD, SOC TD-DFT
   Georgi Stoychev        : AutoAux, RI-MP2 NMR, DLPNO-MP2 response
   Willem Van den Heuvel  : Paramagnetic NMR
   Boris Wezisla          : Elementary symmetry handling
   Frank Wennmohs         : Technical directorship


 We gratefully acknowledge several colleagues who have allowed us to
 interface, adapt or use parts of their codes:
   Stefan Grimme, W. Hujo, H. Kruse, P. Pracht,  : VdW corrections, initial TS optimization,
                  C. Bannwarth, S. Ehlert          DFT functionals, gCP, sTDA/sTD-DF
   Ed Valeev, F. Pavosevic, A. Kumar             : LibInt (2-el integral package), F12 methods
   Garnet Chan, S. Sharma, J. Yang, R. Olivares  : DMRG
   Ulf Ekstrom                                   : XCFun DFT Library
   Mihaly Kallay                                 : mrcc  (arbitrary order and MRCC methods)
   Jiri Pittner, Ondrej Demel                    : Mk-CCSD
   Frank Weinhold                                : gennbo (NPA and NBO analysis)
   Christopher J. Cramer and Donald G. Truhlar   : smd solvation model
   Lars Goerigk                                  : TD-DFT with DH, B97 family of functionals
   V. Asgeirsson, H. Jonsson                     : NEB implementation
   FAccTs GmbH                                   : IRC, NEB, NEB-TS, DLPNO-Multilevel, CI-OPT
                                                   MM, QMMM, 2- and 3-layer-ONIOM, Crystal-QMMM,
                                                   LR-CPCM, SF, NACMEs, symmetry and pop. for TD-DFT,
                                                   nearIR, NL-DFT gradient (VV10), updates on ESD,
                                                   ML-optimized integration grids
   S Lehtola, MJT Oliveira, MAL Marques          : LibXC Library
   Liviu Ungur et al                             : ANISO software


 Your calculation uses the libint2 library for the computation of 2-el integrals
 For citations please refer to: http://libint.valeyev.net

 Your ORCA version has been built with support for libXC version: 5.1.0
 For citations please refer to: https://tddft.org/programs/libxc/

 This ORCA versions uses:
   CBLAS   interface :  Fast vector & matrix operations
   LAPACKE interface :  Fast linear algebra routines
   SCALAPACK package :  Parallel linear algebra routines
   Shared memory     :  Shared parallel matrices
   BLAS/LAPACK       :  OpenBLAS 0.3.15  USE64BITINT DYNAMIC_ARCH NO_AFFINITY Zen SINGLE_THREADED
        Core in use  :  Zen
   Copyright (c) 2011-2014, The OpenBLAS Project




***************************************
The coordinates will be read from file: model.xyz
***************************************


================================================================================

----- Orbital basis set information -----
Your calculation utilizes the basis: EPR-II
   V. Barone, in Recent Advances in Density Functional Methods, Part 1 (ed. D. P. Chong), World Scientific, Singapore, 1995, p. 287.

----- AuxJ basis set information -----
Your calculation utilizes the auxiliary basis: def2/J
   F. Weigend, Phys. Chem. Chem. Phys. 8, 1057 (2006).

================================================================================
                                        WARNINGS
                       Please study these warnings very carefully!
================================================================================


WARNING: your system is open-shell and RHF/RKS was chosen
  ===> : WILL SWITCH to UHF/UKS


WARNING: Geometry Optimization
  ===> : Switching off AutoStart
         For restart on a previous wavefunction, please use MOREAD

INFO   : the flag for use of the SHARK integral package has been found!

================================================================================
                                       INPUT FILE
================================================================================
NAME = opt.inp
|  1> ! B3LYP EPR-II OPT
|  2> %pal nprocs 16 end
|  3> *XYZFile 0 2 model.xyz
|  4> 
|  5>                          ****END OF INPUT****
================================================================================

                       *****************************
                       * Geometry Optimization Run *
                       *****************************

Geometry optimization settings:
Update method            Update   .... BFGS
Choice of coordinates    CoordSys .... Z-matrix Internals
Initial Hessian          InHess   .... Almoef's Model

Convergence Tolerances:
Energy Change            TolE     ....  5.0000e-06 Eh
Max. Gradient            TolMAXG  ....  3.0000e-04 Eh/bohr
RMS Gradient             TolRMSG  ....  1.0000e-04 Eh/bohr
Max. Displacement        TolMAXD  ....  4.0000e-03 bohr
RMS Displacement         TolRMSD  ....  2.0000e-03 bohr
Strict Convergence                ....  False
------------------------------------------------------------------------------
                        ORCA OPTIMIZATION COORDINATE SETUP
------------------------------------------------------------------------------

The optimization will be done in new redundant internal coordinates
Making redundant internal coordinates   ...  (new redundants) done
Evaluating the initial hessian          ...  (Almloef) done
Evaluating the coordinates              ...  done
Calculating the B-matrix                .... done
Calculating the G-matrix                .... done
Diagonalizing the G-matrix              .... done
Small eigenvalue found = 5.790e-03
Small eigenvalue found = 6.788e-03
Small eigenvalue found = 9.794e-03
Small eigenvalue found = 2.553e-02
Small eigenvalue found = 2.703e-02
The first mode is                       ....   63
The number of degrees of freedom        ....   90

    -----------------------------------------------------------------
                    Redundant Internal Coordinates


    -----------------------------------------------------------------
         Definition                    Initial Value    Approx d2E/dq
    -----------------------------------------------------------------
      1. B(C   1,N   0)                  1.4428         0.460955   
      2. B(C   2,C   1)                  1.5394         0.360945   
      3. B(O   3,C   2)                  1.2174         1.054836   
      4. B(C   4,C   1)                  1.5507         0.346226   
      5. B(C   5,C   4)                  1.4990         0.418692   
      6. B(C   6,C   5)                  1.4984         0.419581   
      7. B(C   7,C   6)                  1.5358         0.365684   
      8. B(N   8,C   7)                  1.4630         0.427920   
      9. B(H   9,C   5)                  1.0905         0.359418   
     10. B(H  10,C   6)                  1.1088         0.336046   
     11. B(H  11,C   6)                  1.1016         0.345105   
     12. B(H  12,C   7)                  1.0978         0.349965   
     13. B(H  13,C   7)                  1.1049         0.340942   
     14. B(H  14,N   8)                  1.0144         0.425774   
     15. B(H  15,N   8)                  1.0156         0.423842   
     16. B(H  16,N   0)                  1.0115         0.430269   
     17. B(C  17,N   0)                  1.3559         0.634200   
     18. B(N  18,C   2)                  1.3496         0.649025   
     19. B(H  19,N  18)                  1.0072         0.437248   
     20. B(O  20,C  17)                  1.2174         1.054895   
     21. B(C  21,C  17)                  1.5225         0.384078   
     22. B(H  22,C  21)                  1.0957         0.352662   
     23. B(H  23,C  21)                  1.0960         0.352309   
     24. B(H  24,C  21)                  1.0949         0.353658   
     25. B(C  25,N  18)                  1.4509         0.447427   
     26. B(H  26,C  25)                  1.0976         0.350247   
     27. B(H  27,C  25)                  1.0938         0.355118   
     28. B(H  28,C  25)                  1.0956         0.352809   
     29. B(H  29,C   1)                  1.0988         0.348614   
     30. B(H  30,C   4)                  1.1029         0.343485   
     31. B(H  31,C   4)                  1.1042         0.341757   
     32. A(C   1,N   0,H  16)          115.5681         0.340848   
     33. A(H  16,N   0,C  17)          122.0069         0.359708   
     34. A(C   1,N   0,C  17)          121.7793         0.408017   
     35. A(C   2,C   1,H  29)          109.5572         0.320787   
     36. A(C   2,C   1,C   4)          111.5017         0.356580   
     37. A(C   4,C   1,H  29)          107.9747         0.318613   
     38. A(N   0,C   1,H  29)          108.5781         0.331964   
     39. A(N   0,C   1,C   4)          112.2234         0.369483   
     40. A(N   0,C   1,C   2)          106.9554         0.372138   
     41. A(C   1,C   2,N  18)          115.5369         0.394938   
     42. A(C   1,C   2,O   3)          121.8650         0.430486   
     43. A(O   3,C   2,N  18)          122.5927         0.475776   
     44. A(C   1,C   4,H  30)          109.3518         0.317844   
     45. A(C   1,C   4,H  31)          106.1811         0.317583   
     46. A(C   5,C   4,H  31)          111.5413         0.327630   
     47. A(H  30,C   4,H  31)          105.5408         0.286344   
     48. A(C   1,C   4,C   5)          113.8133         0.365721   
     49. A(C   5,C   4,H  30)          110.0236         0.327903   
     50. A(C   4,C   5,C   6)          120.4617         0.378022   
     51. A(C   6,C   5,H   9)          119.2959         0.330483   
     52. A(C   4,C   5,H   9)          118.7739         0.330367   
     53. A(H  10,C   6,H  11)          105.2805         0.285802   
     54. A(C   7,C   6,H  11)          108.8557         0.320941   
     55. A(C   5,C   6,C   7)          113.1670         0.369301   
     56. A(C   5,C   6,H  11)          110.6907         0.328272   
     57. A(C   7,C   6,H  10)          108.5027         0.319549   
     58. A(C   5,C   6,H  10)          110.0191         0.326836   
     59. A(H  12,C   7,H  13)          107.1520         0.287073   
     60. A(N   8,C   7,H  13)          113.6079         0.326709   
     61. A(C   6,C   7,H  13)          108.7207         0.320305   
     62. A(N   8,C   7,H  12)          107.9972         0.328118   
     63. A(C   6,C   7,H  12)          108.9637         0.321676   
     64. A(C   6,C   7,N   8)          110.2679         0.368236   
     65. A(H  14,N   8,H  15)          107.2281         0.301477   
     66. A(C   7,N   8,H  15)          110.7438         0.335802   
     67. A(C   7,N   8,H  14)          111.1267         0.336056   
     68. A(N   0,C  17,C  21)          115.9627         0.397651   
     69. A(N   0,C  17,O  20)          122.2009         0.473764   
     70. A(O  20,C  17,C  21)          121.8361         0.435326   
     71. A(C   2,N  18,H  19)          119.1754         0.362120   
     72. A(H  19,N  18,C  25)          119.3715         0.340068   
     73. A(C   2,N  18,C  25)          121.4529         0.407535   
     74. A(H  23,C  21,H  24)          109.5281         0.289024   
     75. A(H  22,C  21,H  24)          109.4706         0.289069   
     76. A(C  17,C  21,H  24)          113.3144         0.324835   
     77. A(H  22,C  21,H  23)          107.7208         0.288896   
     78. A(C  17,C  21,H  23)          108.2941         0.324631   
     79. A(C  17,C  21,H  22)          108.3541         0.324684   
     80. A(H  27,C  25,H  28)          109.4245         0.289275   
     81. A(H  26,C  25,H  28)          108.2008         0.288650   
     82. A(N  18,C  25,H  28)          109.9052         0.330986   
     83. A(H  26,C  25,H  27)          109.2336         0.288945   
     84. A(N  18,C  25,H  27)          108.9118         0.331343   
     85. A(N  18,C  25,H  26)          111.1427         0.330587   
     86. D(C   4,C   1,N   0,C  17)     76.5821         0.018140   
     87. D(H  29,C   1,N   0,H  16)    128.2681         0.018140   
     88. D(C   4,C   1,N   0,H  16)   -112.4563         0.018140   
     89. D(C   2,C   1,N   0,H  16)     10.1252         0.018140   
     90. D(C   2,C   1,N   0,C  17)   -160.8364         0.018140   
     91. D(H  29,C   1,N   0,C  17)    -42.6935         0.018140   
     92. D(O   3,C   2,C   1,N   0)    -10.5893         0.009793   
     93. D(O   3,C   2,C   1,C   4)    112.4415         0.009793   
     94. D(N  18,C   2,C   1,H  29)     52.7319         0.009793   
     95. D(N  18,C   2,C   1,C   4)    -66.7358         0.009793   
     96. D(O   3,C   2,C   1,H  29)   -128.0909         0.009793   
     97. D(N  18,C   2,C   1,N   0)    170.2335         0.009793   
     98. D(C   5,C   4,C   1,H  29)   -174.8359         0.009675   
     99. D(C   5,C   4,C   1,C   2)    -54.4345         0.009675   
    100. D(H  31,C   4,C   1,C   2)   -177.5244         0.009675   
    101. D(H  31,C   4,C   1,N   0)    -57.5544         0.009675   
    102. D(H  30,C   4,C   1,H  29)    -51.3536         0.009675   
    103. D(H  31,C   4,C   1,H  29)     62.0741         0.009675   
    104. D(H  30,C   4,C   1,C   2)     69.0479         0.009675   
    105. D(H  30,C   4,C   1,N   0)   -170.9821         0.009675   
    106. D(C   5,C   4,C   1,N   0)     65.5355         0.009675   
    107. D(H   9,C   5,C   4,H  30)   -144.0422         0.012965   
    108. D(H   9,C   5,C   4,C   1)    -20.9258         0.012965   
    109. D(C   6,C   5,C   4,H  31)    -66.8932         0.012965   
    110. D(C   6,C   5,C   4,H  30)     49.8783         0.012965   
    111. D(H   9,C   5,C   4,H  31)     99.1862         0.012965   
    112. D(C   6,C   5,C   4,C   1)    172.9948         0.012965   
    113. D(H  10,C   6,C   5,C   4)     68.0077         0.013019   
    114. D(C   7,C   6,C   5,H   9)     23.5537         0.013019   
    115. D(C   7,C   6,C   5,C   4)   -170.4388         0.013019   
    116. D(H  10,C   6,C   5,H   9)    -97.9997         0.013019   
    117. D(H  11,C   6,C   5,H   9)    146.0597         0.013019   
    118. D(H  11,C   6,C   5,C   4)    -47.9329         0.013019   
    119. D(H  13,C   7,C   6,H  11)   -179.5690         0.010706   
    120. D(H  13,C   7,C   6,H  10)     66.3544         0.010706   
    121. D(H  13,C   7,C   6,C   5)    -56.0477         0.010706   
    122. D(H  12,C   7,C   6,H  11)    -63.1011         0.010706   
    123. D(H  12,C   7,C   6,H  10)   -177.1776         0.010706   
    124. D(H  12,C   7,C   6,C   5)     60.4203         0.010706   
    125. D(N   8,C   7,C   6,H  11)     55.2684         0.010706   
    126. D(N   8,C   7,C   6,H  10)    -58.8081         0.010706   
    127. D(N   8,C   7,C   6,C   5)    178.7898         0.010706   
    128. D(H  15,N   8,C   7,H  13)    -58.0714         0.015612   
    129. D(H  15,N   8,C   7,H  12)   -176.7819         0.015612   
    130. D(H  15,N   8,C   7,C   6)     64.2577         0.015612   
    131. D(H  14,N   8,C   7,H  13)     60.9985         0.015612   
    132. D(H  14,N   8,C   7,H  12)    -57.7120         0.015612   
    133. D(H  14,N   8,C   7,C   6)   -176.6724         0.015612   
    134. D(C  21,C  17,N   0,H  16)      6.5001         0.032688   
    135. D(C  21,C  17,N   0,C   1)    176.8799         0.032688   
    136. D(O  20,C  17,N   0,H  16)   -173.7017         0.032688   
    137. D(O  20,C  17,N   0,C   1)     -3.3219         0.032688   
    138. D(C  25,N  18,C   2,O   3)     -1.1719         0.034368   
    139. D(C  25,N  18,C   2,C   1)    177.9987         0.034368   
    140. D(H  19,N  18,C   2,O   3)    178.6508         0.034368   
    141. D(H  19,N  18,C   2,C   1)     -2.1786         0.034368   
    142. D(H  24,C  21,C  17,O  20)   -178.4724         0.010994   
    143. D(H  24,C  21,C  17,N   0)      1.3266         0.010994   
    144. D(H  23,C  21,C  17,O  20)     59.8025         0.010994   
    145. D(H  23,C  21,C  17,N   0)   -120.3986         0.010994   
    146. D(H  22,C  21,C  17,O  20)    -56.7776         0.010994   
    147. D(H  22,C  21,C  17,N   0)    123.0213         0.010994   
    148. D(H  26,C  25,N  18,C   2)     69.9417         0.017075   
    149. D(H  28,C  25,N  18,H  19)    130.3702         0.017075   
    150. D(H  28,C  25,N  18,C   2)    -49.8074         0.017075   
    151. D(H  27,C  25,N  18,H  19)     10.5067         0.017075   
    152. D(H  27,C  25,N  18,C   2)   -169.6709         0.017075   
    153. D(H  26,C  25,N  18,H  19)   -109.8807         0.017075   
    -----------------------------------------------------------------

Number of atoms                         .... 32
Number of degrees of freedom            .... 153

         *************************************************************
         *                GEOMETRY OPTIMIZATION CYCLE   1            *
         *************************************************************
---------------------------------
CARTESIAN COORDINATES (ANGSTROEM)
---------------------------------
  N      1.813081   -0.512666    0.365291
  C      1.127595    0.365494   -0.551538
  C      0.819354    1.663771    0.215991
  O      0.966695    1.748104    1.421536
  C     -0.162699   -0.276132   -1.124348
  C     -1.225573   -0.519646   -0.095810
  C     -2.588172   -0.987516   -0.507613
  C     -3.608753   -0.960096    0.639723
  N     -4.919790   -1.400381    0.162457
  H     -0.936814   -0.575935    0.954274
  H     -2.530931   -2.021862   -0.903002
  H     -2.973203   -0.378956   -1.341207
  H     -3.708893    0.070783    1.003538
  H     -3.216902   -1.564649    1.477418
  H     -5.616816   -1.335570    0.896593
  H     -4.886709   -2.370571   -0.136126
  H      1.821799   -0.214123    1.331732
  C      2.554620   -1.561215   -0.069702
  N      0.361287    2.688187   -0.533864
  H      0.278551    2.568545   -1.530463
  O      2.634844   -1.854355   -1.248581
  C      3.280120   -2.356622    1.006792
  H      2.964908   -3.403435    0.933701
  H      4.355305   -2.316657    0.798233
  H      3.089919   -1.988106    2.020131
  C     -0.010166    3.957006    0.063811
  H      0.873303    4.496549    0.428497
  H     -0.520197    4.566915   -0.687363
  H     -0.681862    3.787129    0.912478
  H      1.798919    0.586203   -1.392981
  H     -0.558920    0.359854   -1.933563
  H      0.151390   -1.215227   -1.612993

----------------------------
CARTESIAN COORDINATES (A.U.)
----------------------------
  NO LB      ZA    FRAG     MASS         X           Y           Z
   0 N     7.0000    0    14.007    3.426227   -0.968798    0.690300
   1 C     6.0000    0    12.011    2.130846    0.690684   -1.042255
   2 C     6.0000    0    12.011    1.548356    3.144071    0.408165
   3 O     8.0000    0    15.999    1.826789    3.303438    2.686314
   4 C     6.0000    0    12.011   -0.307457   -0.521813   -2.124710
   5 C     6.0000    0    12.011   -2.315998   -0.981989   -0.181054
   6 C     6.0000    0    12.011   -4.890937   -1.866136   -0.959249
   7 C     6.0000    0    12.011   -6.819554   -1.814318    1.208901
   8 N     7.0000    0    14.007   -9.297056   -2.646336    0.306999
   9 H     1.0000    0     1.008   -1.770322   -1.088359    1.803316
  10 H     1.0000    0     1.008   -4.782766   -3.820765   -1.706427
  11 H     1.0000    0     1.008   -5.618540   -0.716123   -2.534514
  12 H     1.0000    0     1.008   -7.008793    0.133761    1.896413
  13 H     1.0000    0     1.008   -6.079064   -2.956757    2.791915
  14 H     1.0000    0     1.008  -10.614244   -2.523862    1.694316
  15 H     1.0000    0     1.008   -9.234541   -4.479730   -0.257242
  16 H     1.0000    0     1.008    3.442701   -0.404634    2.516608
  17 C     6.0000    0    12.011    4.827533   -2.950269   -0.131718
  18 N     7.0000    0    14.007    0.682734    5.079937   -1.008857
  19 H     1.0000    0     1.008    0.526385    4.853846   -2.892156
  20 O     8.0000    0    15.999    4.979134   -3.504223   -2.359476
  21 C     6.0000    0    12.011    6.198529   -4.453371    1.902561
  22 H     1.0000    0     1.008    5.602863   -6.431560    1.764438
  23 H     1.0000    0     1.008    8.230333   -4.377847    1.508442
  24 H     1.0000    0     1.008    5.839101   -3.756976    3.817494
  25 C     6.0000    0    12.011   -0.019211    7.477658    0.120585
  26 H     1.0000    0     1.008    1.650304    8.497245    0.809742
  27 H     1.0000    0     1.008   -0.983029    8.630218   -1.298928
  28 H     1.0000    0     1.008   -1.288532    7.156637    1.724333
  29 H     1.0000    0     1.008    3.399465    1.107763   -2.632352
  30 H     1.0000    0     1.008   -1.056206    0.680026   -3.653904
  31 H     1.0000    0     1.008    0.286087   -2.296446   -3.048116

--------------------------------
INTERNAL COORDINATES (ANGSTROEM)
--------------------------------
 N      0   0   0     0.000000000000     0.00000000     0.00000000
 C      1   0   0     1.442785863025     0.00000000     0.00000000
 C      2   1   0     1.539361646611   106.95542834     0.00000000
 O      3   2   1     1.217439466965   121.86495121   349.41072016
 C      2   1   3     1.550695345551   112.22342167   237.41847552
 C      5   2   1     1.498963407381   113.81327615    65.53553375
 C      6   5   2     1.498385932030   120.46165161   172.99477925
 C      7   6   5     1.535810977856   113.16702113   189.56115784
 N      8   7   6     1.463028781224   110.26791730   178.78977025
 H      6   5   2     1.090516244707   118.77393403   339.07422473
 H      7   6   5     1.108818930681   110.01906431    68.00774272
 H      7   6   5     1.101578200776   110.69073715   312.06711576
 H      8   7   6     1.097771362915   108.96368569    60.42026280
 H      8   7   6     1.104881636893   108.72067860   303.95228449
 H      9   8   7     1.014397234570   111.12668335   183.32758897
 H      9   8   7     1.015635196085   110.74383556    64.25771056
 H      1   2   3     1.011538755985   115.56813499    10.12523630
 C      1   2   3     1.355933750556   121.77930487   199.16358730
 N      3   2   1     1.349643728809   115.53694087   170.23349506
 H     19   3   2     1.007158733203   119.17540118   357.82142868
 O     18   1   2     1.217424053618   122.20088402   356.67810341
 C     18   1   2     1.522452486297   115.96274446   176.87994967
 H     22  18   1     1.095681560340   108.35409158   123.02131796
 H     22  18   1     1.095954010891   108.29409836   239.60140972
 H     22  18   1     1.094914108107   113.31444821     1.32658580
 C     19   3   2     1.450894749437   121.45290847   177.99868527
 H     26  19   3     1.097551756386   111.14272288    69.94173719
 H     26  19   3     1.093792466829   108.91175252   190.32914720
 H     26  19   3     1.095567697592   109.90523764   310.19262673
 H      2   1   3     1.098824352402   108.57808344   118.14287667
 H      5   2   1     1.102858383436   109.35176875   189.01791051
 H      5   2   1     1.104231347542   106.18107157   302.44561729

---------------------------
INTERNAL COORDINATES (A.U.)
---------------------------
 N      0   0   0     0.000000000000     0.00000000     0.00000000
 C      1   0   0     2.726470151011     0.00000000     0.00000000
 C      2   1   0     2.908971933158   106.95542834     0.00000000
 O      3   2   1     2.300627177192   121.86495121   349.41072016
 C      2   1   3     2.930389520238   112.22342167   237.41847552
 C      5   2   1     2.832630324720   113.81327615    65.53553375
 C      6   5   2     2.831539054457   120.46165161   172.99477925
 C      7   6   5     2.902262141618   113.16702113   189.56115784
 N      8   7   6     2.764723722559   110.26791730   178.78977025
 H      6   5   2     2.060777047089   118.77393403   339.07422473
 H      7   6   5     2.095364111094   110.01906431    68.00774272
 H      7   6   5     2.081681114564   110.69073715   312.06711576
 H      8   7   6     2.074487233570   108.96368569    60.42026280
 H      8   7   6     2.087923704126   108.72067860   303.95228449
 H      9   8   7     1.916932964344   111.12668335   183.32758897
 H      9   8   7     1.919272372572   110.74383556    64.25771056
 H      1   2   3     1.911531222659   115.56813499    10.12523630
 C      1   2   3     2.562343444291   121.77930487   199.16358730
 N      3   2   1     2.550457025813   115.53694087   170.23349506
 H     19   3   2     1.903254179141   119.17540118   357.82142868
 O     18   1   2     2.300598050186   122.20088402   356.67810341
 C     18   1   2     2.877018251010   115.96274446   176.87994967
 H     22  18   1     2.070538079030   108.35409158   123.02131796
 H     22  18   1     2.071052935956   108.29409836   239.60140972
 H     22  18   1     2.069087804489   113.31444821     1.32658580
 C     19   3   2     2.741793725580   121.45290847   177.99868527
 H     26  19   3     2.074072237373   111.14272288    69.94173719
 H     26  19   3     2.066968209654   108.91175252   190.32914720
 H     26  19   3     2.070322909620   109.90523764   310.19262673
 H      2   1   3     2.076477095324   108.57808344   118.14287667
 H      5   2   1     2.084100309194   109.35176875   189.01791051
 H      5   2   1     2.086694835346   106.18107157   302.44561729

---------------------
BASIS SET INFORMATION
---------------------
There are 4 groups of distinct atoms

 Group   1 Type N   : 10s5p1d contracted to 6s2p1d pattern {511111/41/1}
 Group   2 Type C   : 10s5p1d contracted to 6s2p1d pattern {511111/41/1}
 Group   3 Type O   : 10s5p1d contracted to 6s2p1d pattern {511111/41/1}
 Group   4 Type H   : 6s1p contracted to 4s1p pattern {3111/1}

Atom   0N    basis set group =>   1
Atom   1C    basis set group =>   2
Atom   2C    basis set group =>   2
Atom   3O    basis set group =>   3
Atom   4C    basis set group =>   2
Atom   5C    basis set group =>   2
Atom   6C    basis set group =>   2
Atom   7C    basis set group =>   2
Atom   8N    basis set group =>   1
Atom   9H    basis set group =>   4
Atom  10H    basis set group =>   4
Atom  11H    basis set group =>   4
Atom  12H    basis set group =>   4
Atom  13H    basis set group =>   4
Atom  14H    basis set group =>   4
Atom  15H    basis set group =>   4
Atom  16H    basis set group =>   4
Atom  17C    basis set group =>   2
Atom  18N    basis set group =>   1
Atom  19H    basis set group =>   4
Atom  20O    basis set group =>   3
Atom  21C    basis set group =>   2
Atom  22H    basis set group =>   4
Atom  23H    basis set group =>   4
Atom  24H    basis set group =>   4
Atom  25C    basis set group =>   2
Atom  26H    basis set group =>   4
Atom  27H    basis set group =>   4
Atom  28H    basis set group =>   4
Atom  29H    basis set group =>   4
Atom  30H    basis set group =>   4
Atom  31H    basis set group =>   4
---------------------------------
AUXILIARY/J BASIS SET INFORMATION
---------------------------------
There are 4 groups of distinct atoms

 Group   1 Type N   : 12s5p4d2f1g contracted to 6s4p3d1f1g pattern {711111/2111/211/2/1}
 Group   2 Type C   : 12s5p4d2f1g contracted to 6s4p3d1f1g pattern {711111/2111/211/2/1}
 Group   3 Type O   : 12s5p4d2f1g contracted to 6s4p3d1f1g pattern {711111/2111/211/2/1}
 Group   4 Type H   : 5s2p1d contracted to 3s1p1d pattern {311/2/1}

Atom   0N    basis set group =>   1
Atom   1C    basis set group =>   2
Atom   2C    basis set group =>   2
Atom   3O    basis set group =>   3
Atom   4C    basis set group =>   2
Atom   5C    basis set group =>   2
Atom   6C    basis set group =>   2
Atom   7C    basis set group =>   2
Atom   8N    basis set group =>   1
Atom   9H    basis set group =>   4
Atom  10H    basis set group =>   4
Atom  11H    basis set group =>   4
Atom  12H    basis set group =>   4
Atom  13H    basis set group =>   4
Atom  14H    basis set group =>   4
Atom  15H    basis set group =>   4
Atom  16H    basis set group =>   4
Atom  17C    basis set group =>   2
Atom  18N    basis set group =>   1
Atom  19H    basis set group =>   4
Atom  20O    basis set group =>   3
Atom  21C    basis set group =>   2
Atom  22H    basis set group =>   4
Atom  23H    basis set group =>   4
Atom  24H    basis set group =>   4
Atom  25C    basis set group =>   2
Atom  26H    basis set group =>   4
Atom  27H    basis set group =>   4
Atom  28H    basis set group =>   4
Atom  29H    basis set group =>   4
Atom  30H    basis set group =>   4
Atom  31H    basis set group =>   4


           ************************************************************
           *        Program running with 16 parallel MPI-processes    *
           *              working on a common directory               *
           ************************************************************
------------------------------------------------------------------------------
                           ORCA GTO INTEGRAL CALCULATION
                           -- RI-GTO INTEGRALS CHOSEN --
------------------------------------------------------------------------------
------------------------------------------------------------------------------
                   ___                                                        
                  /   \      - P O W E R E D   B Y -                         
                 /     \                                                     
                 |  |  |   _    _      __       _____    __    __             
                 |  |  |  | |  | |    /  \     |  _  \  |  |  /  |          
                  \  \/   | |  | |   /    \    | | | |  |  | /  /          
                 / \  \   | |__| |  /  /\  \   | |_| |  |  |/  /          
                |  |  |   |  __  | /  /__\  \  |    /   |      \           
                |  |  |   | |  | | |   __   |  |    \   |  |\   \          
                \     /   | |  | | |  |  |  |  | |\  \  |  | \   \       
                 \___/    |_|  |_| |__|  |__|  |_| \__\ |__|  \__/        
                                                                              
                      - O R C A' S   B I G   F R I E N D -                    
                                      &                                       
                       - I N T E G R A L  F E E D E R -                       
                                                                              
 v1 FN, 2020, v2 2021                                                         
------------------------------------------------------------------------------


Reading SHARK input file opt.SHARKINP.tmp ... ok
----------------------
SHARK INTEGRAL PACKAGE
----------------------

Number of atoms                             ...     32
Number of basis functions                   ...    364
Number of shells                            ...    216
Maximum angular momentum                    ...      2
Integral batch strategy                     ... SHARK/LIBINT Hybrid
RI-J (if used) integral strategy            ... SPLIT-RIJ (Revised 2003 algorithm where possible)
Printlevel                                  ...      1
Contraction scheme used                     ... SEGMENTED contraction
Coulomb Range Separation                    ... NOT USED
Exchange Range Separation                   ... NOT USED
Finite Nucleus Model                        ... NOT USED
Auxiliary Coulomb fitting basis             ... AVAILABLE
   # of basis functions in Aux-J            ...    884
   # of shells in Aux-J                     ...    300
   Maximum angular momentum in Aux-J        ...      4
Auxiliary J/K fitting basis                 ... NOT available
Auxiliary Correlation fitting basis         ... NOT available
Auxiliary 'external' fitting basis          ... NOT available
Integral threshold                          ...     2.500000e-11
Primitive cut-off                           ...     2.500000e-12
Primitive pair pre-selection threshold      ...     2.500000e-12

Calculating pre-screening integrals         ... done (  0.0 sec) Dimension = 216
Organizing shell pair data                  ... done (  0.0 sec)
Shell pair information
Total number of shell pairs                 ...     23436
Shell pairs after pre-screening             ...     15297
Total number of primitive shell pairs       ...     61703
Primitive shell pairs kept                  ...     29258
          la=0 lb=0:   7165 shell pairs
          la=1 lb=0:   5223 shell pairs
          la=1 lb=1:    894 shell pairs
          la=2 lb=0:   1425 shell pairs
          la=2 lb=1:    509 shell pairs
          la=2 lb=2:     81 shell pairs

Calculating one electron integrals          ... done (  0.0 sec)
Calculating RI/J V-Matrix + Cholesky decomp.... done (  0.0 sec)
Calculating Nuclear repulsion               ... done (  0.0 sec) ENN=    921.174681103845 Eh

SHARK setup successfully completed in   0.2 seconds

Maximum memory used throughout the entire GTOINT-calculation: 22.2 MB


           ************************************************************
           *        Program running with 16 parallel MPI-processes    *
           *              working on a common directory               *
           ************************************************************
-------------------------------------------------------------------------------
                                 ORCA SCF
-------------------------------------------------------------------------------

------------
SCF SETTINGS
------------
Hamiltonian:
 Density Functional     Method          .... DFT(GTOs)
 Exchange Functional    Exchange        .... B88
   X-Alpha parameter    XAlpha          ....  0.666667
   Becke's b parameter  XBeta           ....  0.004200
 Correlation Functional Correlation     .... LYP
 LDA part of GGA corr.  LDAOpt          .... VWN-5
 Gradients option       PostSCFGGA      .... off
 Hybrid DFT is turned on
   Fraction HF Exchange ScalHFX         ....  0.200000
   Scaling of DF-GGA-X  ScalDFX         ....  0.720000
   Scaling of DF-GGA-C  ScalDFC         ....  0.810000
   Scaling of DF-LDA-C  ScalLDAC        ....  1.000000
   Perturbative correction              ....  0.000000
   Density functional embedding theory  .... OFF
   NL short-range parameter             ....  4.800000
 RI-approximation to the Coulomb term is turned on
   Number of AuxJ basis functions       .... 884
   RIJ-COSX (HFX calculated with COS-X)).... on


General Settings:
 Integral files         IntName         .... opt
 Hartree-Fock type      HFTyp           .... UHF
 Total Charge           Charge          ....    0
 Multiplicity           Mult            ....    2
 Number of Electrons    NEL             ....  109
 Basis Dimension        Dim             ....  364
 Nuclear Repulsion      ENuc            ....    921.1746811038 Eh

Convergence Acceleration:
 DIIS                   CNVDIIS         .... on
   Start iteration      DIISMaxIt       ....    12
   Startup error        DIISStart       ....  0.200000
   # of expansion vecs  DIISMaxEq       ....     5
   Bias factor          DIISBfac        ....   1.050
   Max. coefficient     DIISMaxC        ....  10.000
 Trust-Rad. Augm. Hess. CNVTRAH         .... auto
   Auto Start mean grad. ratio tolernc. ....  1.125000
   Auto Start start iteration           ....    20
   Auto Start num. interpolation iter.  ....    10
   Max. Number of Micro iterations      ....    16
   Max. Number of Macro iterations      .... Maxiter - #DIIS iter
   Number of Davidson start vectors     ....     2
   Converg. threshold I  (grad. norm)   ....   1.000e-05
   Converg. threshold II (energy diff.) ....   1.000e-08
   Grad. Scal. Fac. for Micro threshold ....   0.100
   Minimum threshold for Micro iter.    ....   0.010
   NR start threshold (gradient norm)   ....   0.001
   Initial trust radius                 ....   0.400
   Minimum AH scaling param. (alpha)    ....   1.000
   Maximum AH scaling param. (alpha)    .... 1000.000
   Orbital update algorithm             .... Taylor
   White noise on init. David. guess    .... on
   Maximum white noise                  ....   0.010
   Quad. conv. algorithm                .... NR
 SOSCF                  CNVSOSCF        .... off
 Level Shifting         CNVShift        .... on
   Level shift para.    LevelShift      ....    0.2500
   Turn off err/grad.   ShiftErr        ....    0.0010
 Zerner damping         CNVZerner       .... off
 Static damping         CNVDamp         .... on
   Fraction old density DampFac         ....    0.7000
   Max. Damping (<1)    DampMax         ....    0.9800
   Min. Damping (>=0)   DampMin         ....    0.0000
   Turn off err/grad.   DampErr         ....    0.1000
 Fernandez-Rico         CNVRico         .... off

SCF Procedure:
 Maximum # iterations   MaxIter         ....   125
 SCF integral mode      SCFMode         .... Direct
   Integral package                     .... SHARK and LIBINT hybrid scheme
 Reset frequency        DirectResetFreq ....    20
 Integral Threshold     Thresh          ....  2.500e-11 Eh
 Primitive CutOff       TCut            ....  2.500e-12 Eh

Convergence Tolerance:
 Convergence Check Mode ConvCheckMode   .... Total+1el-Energy
 Convergence forced     ConvForced      .... 0
 Energy Change          TolE            ....  1.000e-08 Eh
 1-El. energy change                    ....  1.000e-05 Eh
 DIIS Error             TolErr          ....  5.000e-07


Diagonalization of the overlap matrix:
Smallest eigenvalue                        ... 9.049e-04
Time for diagonalization                   ...    0.014 sec
Threshold for overlap eigenvalues          ... 1.000e-08
Number of eigenvalues below threshold      ... 0
Time for construction of square roots      ...    0.010 sec
Total time needed                          ...    0.025 sec

Time for model grid setup =    0.107 sec

------------------------------
INITIAL GUESS: MODEL POTENTIAL
------------------------------
Loading Hartree-Fock densities                     ... done
Calculating cut-offs                               ... done
Initializing the effective Hamiltonian             ... done
Setting up the integral package (SHARK)            ... done
Starting the Coulomb interaction                   ... done (   0.0 sec)
Reading the grid                                   ... done
Mapping shells                                     ... done
Starting the XC term evaluation                    ... done (   0.0 sec)
  promolecular density results
     # of electrons  =    108.988905439
     EX              =    -87.746569859
     EC              =     -3.659856959
     EX+EC           =    -91.406426819
Transforming the Hamiltonian                       ... done (   0.0 sec)
Diagonalizing the Hamiltonian                      ... done (   0.0 sec)
Back transforming the eigenvectors                 ... done (   0.0 sec)
Now organizing SCF variables                       ... done
                      ------------------
                      INITIAL GUESS DONE (   0.3 sec)
                      ------------------
-------------------
DFT GRID GENERATION
-------------------

General Integration Accuracy     IntAcc      ... 4.388
Radial Grid Type                 RadialGrid  ... OptM3 with GC (2021)
Angular Grid (max. ang.)         AngularGrid ... 4 (Lebedev-302)
Angular grid pruning method      GridPruning ... 4 (adaptive)
Weight generation scheme         WeightScheme... Becke
Basis function cutoff            BFCut       ... 1.0000e-11
Integration weight cutoff        WCut        ... 1.0000e-14
Angular grids for H and He will be reduced by one unit
Partially contracted basis set               ... off
Rotationally invariant grid construction     ... off

Total number of grid points                  ...   141739
Total number of batches                      ...     2234
Average number of points per batch           ...       63
Average number of grid points per atom       ...     4429
Time for grid setup =    0.569 sec

--------------------
COSX GRID GENERATION
--------------------

GRIDX 1
-------
General Integration Accuracy     IntAcc      ... 3.816
Radial Grid Type                 RadialGrid  ... OptM3 with GC (2021)
Angular Grid (max. ang.)         AngularGrid ... 1 (Lebedev-50)
Angular grid pruning method      GridPruning ... 4 (adaptive)
Weight generation scheme         WeightScheme... Becke
Basis function cutoff            BFCut       ... 1.0000e-11
Integration weight cutoff        WCut        ... 1.0000e-14
Angular grids for H and He will be reduced by one unit
Partially contracted basis set               ... on
Rotationally invariant grid construction     ... off

Total number of grid points                  ...    18094
Total number of batches                      ...      303
Average number of points per batch           ...       59
Average number of grid points per atom       ...      565
UseSFitting                                  ... on

GRIDX 2
-------
General Integration Accuracy     IntAcc      ... 4.020
Radial Grid Type                 RadialGrid  ... OptM3 with GC (2021)
Angular Grid (max. ang.)         AngularGrid ... 2 (Lebedev-110)
Angular grid pruning method      GridPruning ... 4 (adaptive)
Weight generation scheme         WeightScheme... Becke
Basis function cutoff            BFCut       ... 1.0000e-11
Integration weight cutoff        WCut        ... 1.0000e-14
Angular grids for H and He will be reduced by one unit
Partially contracted basis set               ... on
Rotationally invariant grid construction     ... off

Total number of grid points                  ...    38384
Total number of batches                      ...      616
Average number of points per batch           ...       62
Average number of grid points per atom       ...     1200
UseSFitting                                  ... on

GRIDX 3
-------
General Integration Accuracy     IntAcc      ... 4.338
Radial Grid Type                 RadialGrid  ... OptM3 with GC (2021)
Angular Grid (max. ang.)         AngularGrid ... 3 (Lebedev-194)
Angular grid pruning method      GridPruning ... 4 (adaptive)
Weight generation scheme         WeightScheme... Becke
Basis function cutoff            BFCut       ... 1.0000e-11
Integration weight cutoff        WCut        ... 1.0000e-14
Angular grids for H and He will be reduced by one unit
Partially contracted basis set               ... on
Rotationally invariant grid construction     ... off

Total number of grid points                  ...    83700
Total number of batches                      ...     1323
Average number of points per batch           ...       63
Average number of grid points per atom       ...     2616
UseSFitting                                  ... on

Time for X-Grid setup             =    0.687 sec

--------------
SCF ITERATIONS
--------------
ITER       Energy         Delta-E        Max-DP      RMS-DP      [F,P]     Damp
               ***  Starting incremental Fock matrix formation  ***
  0   -667.6894652836   0.000000000000 0.06073668  0.00098008  0.1285836 0.7000
  1   -667.9418224790  -0.252357195403 0.05032335  0.00070533  0.0533389 0.7000
                               ***Turning on DIIS***
  2   -668.0332780459  -0.091455566942 0.08120196  0.00109101  0.0168790 0.0000
  3   -668.1809841365  -0.147706090618 0.04399399  0.00052456  0.0323466 0.0000
  4   -668.2145478794  -0.033563742823 0.01722636  0.00018385  0.0075680 0.0000
  5   -668.2163456175  -0.001797738139 0.00764441  0.00007350  0.0049109 0.0000
  6   -668.2167202187  -0.000374601175 0.00487941  0.00004634  0.0007314 0.0000
               *** Restarting incremental Fock matrix formation ***
                                   *** Resetting DIIS ***
  7   -668.2167292335  -0.000009014848 0.00160408  0.00001976  0.0006954 0.0000
  8   -668.2167163705   0.000012863024 0.00073436  0.00000774  0.0010634 0.0000
  9   -668.2167387722  -0.000022401715 0.00029087  0.00000489  0.0002840 0.0000
 10   -668.2167403993  -0.000001627054 0.00013038  0.00000142  0.0000707 0.0000
 11   -668.2167404512  -0.000000051988 0.00008099  0.00000091  0.0000788 0.0000
 12   -668.2167405341  -0.000000082838 0.00002606  0.00000032  0.0000200 0.0000
 13   -668.2167405376  -0.000000003557 0.00001210  0.00000015  0.0000118 0.0000
 14   -668.2167405455  -0.000000007838 0.00000709  0.00000007  0.0000043 0.0000
 15   -668.2167405410   0.000000004449 0.00000329  0.00000004  0.0000037 0.0000
                            ***DIIS convergence achieved***

               *****************************************************
               *                     SUCCESS                       *
               *           SCF CONVERGED AFTER  16 CYCLES          *
               *****************************************************

Old exchange energy                            =    -17.870563102 Eh
New exchange energy                            =    -17.870625832 Eh
Exchange energy change after final integration =     -0.000062730 Eh
Total energy after final integration           =   -668.216803268 Eh
Final COS-X integration done in                =     2.198 sec

----------------
TOTAL SCF ENERGY
----------------

Total Energy       :         -668.21680327 Eh          -18183.10363 eV

Components:
Nuclear Repulsion  :          921.17468110 Eh           25066.43743 eV
Electronic Energy  :        -1589.39148437 Eh          -43249.54105 eV
One Electron Energy:        -2736.35782168 Eh          -74460.08181 eV
Two Electron Energy:         1146.96633731 Eh           31210.54075 eV
Max COSX asymmetry :            0.00000294 Eh               0.00008 eV

Virial components:
Potential Energy   :        -1332.05050586 Eh          -36246.93702 eV
Kinetic Energy     :          663.83370259 Eh           18063.83340 eV
Virial Ratio       :            2.00660271


DFT components:
N(Alpha)           :       55.000008818270 electrons
N(Beta)            :       54.000051532859 electrons
N(Total)           :      109.000060351129 electrons
E(X)               :      -70.972829587766 Eh       
E(C)               :       -4.315257505020 Eh       
E(XC)              :      -75.288087092786 Eh       
DFET-embed. en.    :        0.000000000000 Eh       

---------------
SCF CONVERGENCE
---------------

  Last Energy change         ...    3.3085e-09  Tolerance :   1.0000e-08
  Last MAX-Density change    ...    0.0000e+00  Tolerance :   1.0000e-07
  Last RMS-Density change    ...    0.0000e+00  Tolerance :   5.0000e-09
  Last DIIS Error            ...    5.8936e-07  Tolerance :   5.0000e-07

             **** THE GBW FILE WAS UPDATED (opt.gbw) ****
             **** DENSITY opt.scfp WAS UPDATED ****
             **** ENERGY FILE WAS UPDATED (opt.en.tmp) ****
----------------------
UHF SPIN CONTAMINATION
----------------------

Warning: in a DFT calculation there is little theoretical justification to 
         calculate <S**2> as in Hartree-Fock theory. We will do it anyways
         but you should keep in mind that the values have only limited relevance

Expectation value of <S**2>     :     0.754017
Ideal value S*(S+1) for S=0.5   :     0.750000
Deviation                       :     0.004017

             **** THE GBW FILE WAS UPDATED (opt.gbw) ****
             **** DENSITY opt.scfp WAS UPDATED ****
----------------
ORBITAL ENERGIES
----------------
                 SPIN UP ORBITALS
  NO   OCC          E(Eh)            E(eV) 
   0   1.0000     -19.120267      -520.2889 
   1   1.0000     -19.098581      -519.6988 
   2   1.0000     -14.368241      -390.9797 
   3   1.0000     -14.347650      -390.4194 
   4   1.0000     -14.306343      -389.2954 
   5   1.0000     -10.298065      -280.2246 
   6   1.0000     -10.284637      -279.8592 
   7   1.0000     -10.237072      -278.5649 
   8   1.0000     -10.224361      -278.2190 
   9   1.0000     -10.205708      -277.7114 
  10   1.0000     -10.193738      -277.3857 
  11   1.0000     -10.190498      -277.2975 
  12   1.0000     -10.184597      -277.1370 
  13   1.0000     -10.183745      -277.1138 
  14   1.0000      -1.052827       -28.6489 
  15   1.0000      -1.030268       -28.0350 
  16   1.0000      -0.933277       -25.3957 
  17   1.0000      -0.920308       -25.0429 
  18   1.0000      -0.876812       -23.8593 
  19   1.0000      -0.800748       -21.7895 
  20   1.0000      -0.760268       -20.6879 
  21   1.0000      -0.726706       -19.7747 
  22   1.0000      -0.713020       -19.4023 
  23   1.0000      -0.666449       -18.1350 
  24   1.0000      -0.616211       -16.7679 
  25   1.0000      -0.599058       -16.3012 
  26   1.0000      -0.584517       -15.9055 
  27   1.0000      -0.558193       -15.1892 
  28   1.0000      -0.538131       -14.6433 
  29   1.0000      -0.491292       -13.3687 
  30   1.0000      -0.481384       -13.0991 
  31   1.0000      -0.473646       -12.8886 
  32   1.0000      -0.464482       -12.6392 
  33   1.0000      -0.456957       -12.4344 
  34   1.0000      -0.454319       -12.3626 
  35   1.0000      -0.447983       -12.1902 
  36   1.0000      -0.433540       -11.7972 
  37   1.0000      -0.426179       -11.5969 
  38   1.0000      -0.422596       -11.4994 
  39   1.0000      -0.404593       -11.0095 
  40   1.0000      -0.401462       -10.9243 
  41   1.0000      -0.397112       -10.8060 
  42   1.0000      -0.388000       -10.5580 
  43   1.0000      -0.375966       -10.2306 
  44   1.0000      -0.371357       -10.1051 
  45   1.0000      -0.362998        -9.8777 
  46   1.0000      -0.349752        -9.5172 
  47   1.0000      -0.343890        -9.3577 
  48   1.0000      -0.331051        -9.0083 
  49   1.0000      -0.270258        -7.3541 
  50   1.0000      -0.268609        -7.3092 
  51   1.0000      -0.251337        -6.8392 
  52   1.0000      -0.246210        -6.6997 
  53   1.0000      -0.234449        -6.3797 
  54   1.0000      -0.184735        -5.0269 
  55   0.0000       0.008411         0.2289 
  56   0.0000       0.014602         0.3973 
  57   0.0000       0.026055         0.7090 
  58   0.0000       0.029402         0.8001 
  59   0.0000       0.032274         0.8782 
  60   0.0000       0.036775         1.0007 
  61   0.0000       0.047394         1.2897 
  62   0.0000       0.059573         1.6211 
  63   0.0000       0.064264         1.7487 
  64   0.0000       0.080704         2.1961 
  65   0.0000       0.090299         2.4572 
  66   0.0000       0.094682         2.5764 
  67   0.0000       0.117852         3.2069 
  68   0.0000       0.125207         3.4071 
  69   0.0000       0.149638         4.0719 
  70   0.0000       0.154780         4.2118 
  71   0.0000       0.162032         4.4091 
  72   0.0000       0.168091         4.5740 
  73   0.0000       0.176503         4.8029 
  74   0.0000       0.183893         5.0040 
  75   0.0000       0.187356         5.0982 
  76   0.0000       0.192341         5.2339 
  77   0.0000       0.196841         5.3563 
  78   0.0000       0.202763         5.5175 
  79   0.0000       0.205952         5.6042 
  80   0.0000       0.213934         5.8214 
  81   0.0000       0.223575         6.0838 
  82   0.0000       0.229457         6.2438 
  83   0.0000       0.231772         6.3068 
  84   0.0000       0.236129         6.4254 
  85   0.0000       0.244792         6.6611 
  86   0.0000       0.250278         6.8104 
  87   0.0000       0.251486         6.8433 
  88   0.0000       0.255462         6.9515 
  89   0.0000       0.264341         7.1931 
  90   0.0000       0.268090         7.2951 
  91   0.0000       0.277619         7.5544 
  92   0.0000       0.280330         7.6282 
  93   0.0000       0.283465         7.7135 
  94   0.0000       0.290327         7.9002 
  95   0.0000       0.292771         7.9667 
  96   0.0000       0.304324         8.2811 
  97   0.0000       0.311028         8.4635 
  98   0.0000       0.316185         8.6038 
  99   0.0000       0.320673         8.7259 
 100   0.0000       0.327905         8.9227 
 101   0.0000       0.328523         8.9396 
 102   0.0000       0.334150         9.0927 
 103   0.0000       0.347039         9.4434 
 104   0.0000       0.369750        10.0614 
 105   0.0000       0.373618        10.1667 
 106   0.0000       0.379215        10.3190 
 107   0.0000       0.386095        10.5062 
 108   0.0000       0.393172        10.6988 
 109   0.0000       0.407548        11.0899 
 110   0.0000       0.410518        11.1708 
 111   0.0000       0.426759        11.6127 
 112   0.0000       0.430226        11.7070 
 113   0.0000       0.449543        12.2327 
 114   0.0000       0.450823        12.2675 
 115   0.0000       0.462777        12.5928 
 116   0.0000       0.472635        12.8610 
 117   0.0000       0.491744        13.3810 
 118   0.0000       0.500713        13.6251 
 119   0.0000       0.510757        13.8984 
 120   0.0000       0.523833        14.2542 
 121   0.0000       0.532341        14.4857 
 122   0.0000       0.542317        14.7572 
 123   0.0000       0.565456        15.3868 
 124   0.0000       0.568553        15.4711 
 125   0.0000       0.574453        15.6317 
 126   0.0000       0.599126        16.3031 
 127   0.0000       0.612370        16.6634 
 128   0.0000       0.613031        16.6814 
 129   0.0000       0.628090        17.0912 
 130   0.0000       0.662618        18.0308 
 131   0.0000       0.672448        18.2983 
 132   0.0000       0.680196        18.5091 
 133   0.0000       0.688475        18.7344 
 134   0.0000       0.705054        19.1855 
 135   0.0000       0.736846        20.0506 
 136   0.0000       0.758871        20.6499 
 137   0.0000       0.783049        21.3079 
 138   0.0000       0.785793        21.3825 
 139   0.0000       0.792718        21.5710 
 140   0.0000       0.806590        21.9484 
 141   0.0000       0.815926        22.2025 
 142   0.0000       0.821126        22.3440 
 143   0.0000       0.831887        22.6368 
 144   0.0000       0.838471        22.8160 
 145   0.0000       0.846972        23.0473 
 146   0.0000       0.860234        23.4082 
 147   0.0000       0.867814        23.6144 
 148   0.0000       0.875169        23.8146 
 149   0.0000       0.878834        23.9143 
 150   0.0000       0.884262        24.0620 
 151   0.0000       0.889802        24.2127 
 152   0.0000       0.898307        24.4442 
 153   0.0000       0.915782        24.9197 
 154   0.0000       0.917009        24.9531 
 155   0.0000       0.923964        25.1424 
 156   0.0000       0.927802        25.2468 
 157   0.0000       0.931693        25.3527 
 158   0.0000       0.941931        25.6312 
 159   0.0000       0.943798        25.6821 
 160   0.0000       0.954108        25.9626 
 161   0.0000       0.962033        26.1782 
 162   0.0000       0.973076        26.4787 
 163   0.0000       0.975106        26.5340 
 164   0.0000       0.986694        26.8493 
 165   0.0000       1.005170        27.3521 
 166   0.0000       1.019640        27.7458 
 167   0.0000       1.029392        28.0112 
 168   0.0000       1.043783        28.4028 
 169   0.0000       1.046733        28.4831 
 170   0.0000       1.066675        29.0257 
 171   0.0000       1.087965        29.6050 
 172   0.0000       1.089662        29.6512 
 173   0.0000       1.139954        31.0197 
 174   0.0000       1.143785        31.1240 
 175   0.0000       1.155408        31.4403 
 176   0.0000       1.160886        31.5893 
 177   0.0000       1.171994        31.8916 
 178   0.0000       1.180001        32.1095 
 179   0.0000       1.182818        32.1861 
 180   0.0000       1.199356        32.6361 
 181   0.0000       1.214124        33.0380 
 182   0.0000       1.229988        33.4697 
 183   0.0000       1.239120        33.7182 
 184   0.0000       1.283107        34.9151 
 185   0.0000       1.300398        35.3856 
 186   0.0000       1.312959        35.7274 
 187   0.0000       1.338763        36.4296 
 188   0.0000       1.353305        36.8253 
 189   0.0000       1.365099        37.1462 
 190   0.0000       1.369228        37.2586 
 191   0.0000       1.381241        37.5855 
 192   0.0000       1.396233        37.9934 
 193   0.0000       1.405638        38.2493 
 194   0.0000       1.410154        38.3722 
 195   0.0000       1.412300        38.4306 
 196   0.0000       1.427042        38.8318 
 197   0.0000       1.461830        39.7784 
 198   0.0000       1.477710        40.2105 
 199   0.0000       1.488899        40.5150 
 200   0.0000       1.493465        40.6392 
 201   0.0000       1.503927        40.9239 
 202   0.0000       1.519116        41.3372 
 203   0.0000       1.525716        41.5168 
 204   0.0000       1.539082        41.8806 
 205   0.0000       1.561181        42.4819 
 206   0.0000       1.566715        42.6325 
 207   0.0000       1.573664        42.8216 
 208   0.0000       1.584776        43.1239 
 209   0.0000       1.593346        43.3572 
 210   0.0000       1.618631        44.0452 
 211   0.0000       1.623048        44.1654 
 212   0.0000       1.625976        44.2450 
 213   0.0000       1.637399        44.5559 
 214   0.0000       1.649984        44.8984 
 215   0.0000       1.657640        45.1067 
 216   0.0000       1.667761        45.3821 
 217   0.0000       1.685844        45.8741 
 218   0.0000       1.689337        45.9692 
 219   0.0000       1.698963        46.2311 
 220   0.0000       1.706954        46.4486 
 221   0.0000       1.723520        46.8994 
 222   0.0000       1.735547        47.2266 
 223   0.0000       1.737727        47.2860 
 224   0.0000       1.740402        47.3587 
 225   0.0000       1.754616        47.7455 
 226   0.0000       1.766632        48.0725 
 227   0.0000       1.787344        48.6361 
 228   0.0000       1.794115        48.8203 
 229   0.0000       1.830609        49.8134 
 230   0.0000       1.836529        49.9745 
 231   0.0000       1.843930        50.1759 
 232   0.0000       1.850023        50.3417 
 233   0.0000       1.870803        50.9071 
 234   0.0000       1.883875        51.2629 
 235   0.0000       1.895806        51.5875 
 236   0.0000       1.914261        52.0897 
 237   0.0000       1.943287        52.8795 
 238   0.0000       1.956368        53.2355 
 239   0.0000       1.976698        53.7887 
 240   0.0000       1.993451        54.2445 
 241   0.0000       2.017053        54.8868 
 242   0.0000       2.040572        55.5268 
 243   0.0000       2.047942        55.7273 
 244   0.0000       2.062245        56.1165 
 245   0.0000       2.073968        56.4355 
 246   0.0000       2.091837        56.9218 
 247   0.0000       2.101571        57.1866 
 248   0.0000       2.136496        58.1370 
 249   0.0000       2.143348        58.3235 
 250   0.0000       2.154054        58.6148 
 251   0.0000       2.161307        58.8122 
 252   0.0000       2.172288        59.1110 
 253   0.0000       2.201515        59.9063 
 254   0.0000       2.211750        60.1848 
 255   0.0000       2.244383        61.0728 
 256   0.0000       2.259515        61.4845 
 257   0.0000       2.259926        61.4957 
 258   0.0000       2.280180        62.0469 
 259   0.0000       2.296966        62.5036 
 260   0.0000       2.340262        63.6818 
 261   0.0000       2.345075        63.8127 
 262   0.0000       2.366867        64.4057 
 263   0.0000       2.390353        65.0448 
 264   0.0000       2.394039        65.1451 
 265   0.0000       2.397155        65.2299 
 266   0.0000       2.404694        65.4350 
 267   0.0000       2.418127        65.8006 
 268   0.0000       2.424652        65.9781 
 269   0.0000       2.435992        66.2867 
 270   0.0000       2.445282        66.5395 
 271   0.0000       2.460593        66.9561 
 272   0.0000       2.484174        67.5978 
 273   0.0000       2.495083        67.8947 
 274   0.0000       2.497380        67.9572 
 275   0.0000       2.501980        68.0823 
 276   0.0000       2.524058        68.6831 
 277   0.0000       2.557855        69.6028 
 278   0.0000       2.560905        69.6858 
 279   0.0000       2.593637        70.5765 
 280   0.0000       2.630500        71.5795 
 281   0.0000       2.641673        71.8836 
 282   0.0000       2.670475        72.6673 
 283   0.0000       2.689409        73.1825 
 284   0.0000       2.711610        73.7867 
 285   0.0000       2.724762        74.1445 
 286   0.0000       2.755216        74.9732 
 287   0.0000       2.763833        75.2077 
 288   0.0000       2.784368        75.7665 
 289   0.0000       2.791351        75.9565 
 290   0.0000       2.831618        77.0522 
 291   0.0000       2.916327        79.3573 
 292   0.0000       3.003066        81.7176 
 293   0.0000       3.046009        82.8861 
 294   0.0000       3.103873        84.4607 
 295   0.0000       3.129747        85.1647 
 296   0.0000       3.390605        92.2631 
 297   0.0000       3.441261        93.6415 
 298   0.0000       3.457016        94.0702 
 299   0.0000       3.465853        94.3106 
 300   0.0000       4.923448       133.9738 
 301   0.0000       4.975400       135.3875 
 302   0.0000       4.988091       135.7328 
 303   0.0000       4.991598       135.8283 
 304   0.0000       4.998806       136.0244 
 305   0.0000       5.013005       136.4108 
 306   0.0000       5.019498       136.5875 
 307   0.0000       5.048647       137.3807 
 308   0.0000       5.056275       137.5882 
 309   0.0000       5.081927       138.2863 
 310   0.0000       5.134419       139.7146 
 311   0.0000       5.162251       140.4720 
 312   0.0000       5.180060       140.9566 
 313   0.0000       5.204269       141.6154 
 314   0.0000       5.255000       142.9958 
 315   0.0000       5.268964       143.3758 
 316   0.0000       5.298307       144.1743 
 317   0.0000       5.307453       144.4231 
 318   0.0000       5.345290       145.4527 
 319   0.0000       5.354067       145.6916 
 320   0.0000       5.369793       146.1195 
 321   0.0000       5.478036       149.0649 
 322   0.0000       5.575630       151.7206 
 323   0.0000       5.641761       153.5201 
 324   0.0000       5.714048       155.4871 
 325   0.0000       5.740936       156.2188 
 326   0.0000       5.859399       159.4424 
 327   0.0000       7.222014       196.5210 
 328   0.0000       7.314478       199.0371 
 329   0.0000       7.346564       199.9102 
 330   0.0000       9.094871       247.4840 
 331   0.0000       9.116321       248.0677 
 332   0.0000      29.594841       805.3166 
 333   0.0000      29.635302       806.4176 
 334   0.0000      29.775533       810.2335 
 335   0.0000      29.900648       813.6380 
 336   0.0000      29.908533       813.8525 
 337   0.0000      30.051538       817.7439 
 338   0.0000      30.085296       818.6625 
 339   0.0000      30.153228       820.5110 
 340   0.0000      30.266625       823.5967 
 341   0.0000      36.540102       994.3067 
 342   0.0000      36.606115       996.1030 
 343   0.0000      36.607772       996.1481 
 344   0.0000      36.612786       996.2845 
 345   0.0000      36.619950       996.4795 
 346   0.0000      36.636959       996.9423 
 347   0.0000      36.642007       997.0797 
 348   0.0000      36.665946       997.7311 
 349   0.0000      36.700348       998.6672 
 350   0.0000      36.717740       999.1405 
 351   0.0000      36.731702       999.5204 
 352   0.0000      36.791844      1001.1570 
 353   0.0000      36.805835      1001.5377 
 354   0.0000      36.853896      1002.8455 
 355   0.0000      36.886968      1003.7454 
 356   0.0000      36.895662      1003.9820 
 357   0.0000      36.921430      1004.6832 
 358   0.0000      36.926189      1004.8127 
 359   0.0000      41.164311      1120.1379 
 360   0.0000      41.253682      1122.5698 
 361   0.0000      41.286753      1123.4697 
 362   0.0000      53.632502      1459.4146 
 363   0.0000      53.653099      1459.9750 

                 SPIN DOWN ORBITALS
  NO   OCC          E(Eh)            E(eV) 
   0   1.0000     -19.120200      -520.2871 
   1   1.0000     -19.098469      -519.6958 
   2   1.0000     -14.368207      -390.9788 
   3   1.0000     -14.347589      -390.4177 
   4   1.0000     -14.306295      -389.2941 
   5   1.0000     -10.298079      -280.2250 
   6   1.0000     -10.284647      -279.8595 
   7   1.0000     -10.236952      -278.5616 
   8   1.0000     -10.224359      -278.2190 
   9   1.0000     -10.205544      -277.7070 
  10   1.0000     -10.194593      -277.4090 
  11   1.0000     -10.184609      -277.1373 
  12   1.0000     -10.184596      -277.1369 
  13   1.0000     -10.176744      -276.9233 
  14   1.0000      -1.052703       -28.6455 
  15   1.0000      -1.030116       -28.0309 
  16   1.0000      -0.933195       -25.3935 
  17   1.0000      -0.920057       -25.0360 
  18   1.0000      -0.876438       -23.8491 
  19   1.0000      -0.792472       -21.5642 
  20   1.0000      -0.754330       -20.5264 
  21   1.0000      -0.726628       -19.7726 
  22   1.0000      -0.711877       -19.3712 
  23   1.0000      -0.662417       -18.0253 
  24   1.0000      -0.611461       -16.6387 
  25   1.0000      -0.598996       -16.2995 
  26   1.0000      -0.580283       -15.7903 
  27   1.0000      -0.547366       -14.8946 
  28   1.0000      -0.537642       -14.6300 
  29   1.0000      -0.490112       -13.3366 
  30   1.0000      -0.480088       -13.0639 
  31   1.0000      -0.473436       -12.8829 
  32   1.0000      -0.463334       -12.6080 
  33   1.0000      -0.456391       -12.4190 
  34   1.0000      -0.450363       -12.2550 
  35   1.0000      -0.447240       -12.1700 
  36   1.0000      -0.427544       -11.6341 
  37   1.0000      -0.423763       -11.5312 
  38   1.0000      -0.420314       -11.4373 
  39   1.0000      -0.404361       -11.0032 
  40   1.0000      -0.399178       -10.8622 
  41   1.0000      -0.395423       -10.7600 
  42   1.0000      -0.386178       -10.5084 
  43   1.0000      -0.373370       -10.1599 
  44   1.0000      -0.369376       -10.0512 
  45   1.0000      -0.360155        -9.8003 
  46   1.0000      -0.344920        -9.3857 
  47   1.0000      -0.340525        -9.2662 
  48   1.0000      -0.328705        -8.9445 
  49   1.0000      -0.269991        -7.3468 
  50   1.0000      -0.267970        -7.2918 
  51   1.0000      -0.250057        -6.8044 
  52   1.0000      -0.245837        -6.6896 
  53   1.0000      -0.233851        -6.3634 
  54   0.0000      -0.043779        -1.1913 
  55   0.0000       0.009257         0.2519 
  56   0.0000       0.014718         0.4005 
  57   0.0000       0.026234         0.7139 
  58   0.0000       0.030375         0.8265 
  59   0.0000       0.032610         0.8874 
  60   0.0000       0.037121         1.0101 
  61   0.0000       0.047621         1.2958 
  62   0.0000       0.061196         1.6652 
  63   0.0000       0.064602         1.7579 
  64   0.0000       0.081055         2.2056 
  65   0.0000       0.090960         2.4751 
  66   0.0000       0.095685         2.6037 
  67   0.0000       0.119414         3.2494 
  68   0.0000       0.126974         3.4551 
  69   0.0000       0.151767         4.1298 
  70   0.0000       0.155652         4.2355 
  71   0.0000       0.162355         4.4179 
  72   0.0000       0.169223         4.6048 
  73   0.0000       0.177553         4.8315 
  74   0.0000       0.184103         5.0097 
  75   0.0000       0.187953         5.1145 
  76   0.0000       0.194197         5.2844 
  77   0.0000       0.198028         5.3886 
  78   0.0000       0.203282         5.5316 
  79   0.0000       0.209165         5.6917 
  80   0.0000       0.215824         5.8729 
  81   0.0000       0.224952         6.1213 
  82   0.0000       0.230821         6.2809 
  83   0.0000       0.233509         6.3541 
  84   0.0000       0.239359         6.5133 
  85   0.0000       0.247018         6.7217 
  86   0.0000       0.251711         6.8494 
  87   0.0000       0.252453         6.8696 
  88   0.0000       0.257774         7.0144 
  89   0.0000       0.266718         7.2578 
  90   0.0000       0.269366         7.3298 
  91   0.0000       0.279991         7.6189 
  92   0.0000       0.281237         7.6529 
  93   0.0000       0.287414         7.8209 
  94   0.0000       0.293553         7.9880 
  95   0.0000       0.295096         8.0300 
  96   0.0000       0.306714         8.3461 
  97   0.0000       0.312388         8.5005 
  98   0.0000       0.316985         8.6256 
  99   0.0000       0.324543         8.8313 
 100   0.0000       0.329409         8.9637 
 101   0.0000       0.331744         9.0272 
 102   0.0000       0.334437         9.1005 
 103   0.0000       0.352914         9.6033 
 104   0.0000       0.370505        10.0819 
 105   0.0000       0.379051        10.3145 
 106   0.0000       0.381898        10.3920 
 107   0.0000       0.391979        10.6663 
 108   0.0000       0.393877        10.7179 
 109   0.0000       0.410305        11.1650 
 110   0.0000       0.413347        11.2477 
 111   0.0000       0.428896        11.6709 
 112   0.0000       0.431989        11.7550 
 113   0.0000       0.450042        12.2463 
 114   0.0000       0.451977        12.2989 
 115   0.0000       0.463801        12.6207 
 116   0.0000       0.475529        12.9398 
 117   0.0000       0.495885        13.4937 
 118   0.0000       0.501686        13.6516 
 119   0.0000       0.512516        13.9463 
 120   0.0000       0.529229        14.4011 
 121   0.0000       0.533283        14.5114 
 122   0.0000       0.544779        14.8242 
 123   0.0000       0.568511        15.4700 
 124   0.0000       0.573810        15.6142 
 125   0.0000       0.584856        15.9147 
 126   0.0000       0.600630        16.3440 
 127   0.0000       0.613540        16.6953 
 128   0.0000       0.615557        16.7502 
 129   0.0000       0.630833        17.1658 
 130   0.0000       0.663252        18.0480 
 131   0.0000       0.673602        18.3296 
 132   0.0000       0.681685        18.5496 
 133   0.0000       0.691296        18.8111 
 134   0.0000       0.706552        19.2263 
 135   0.0000       0.738593        20.0981 
 136   0.0000       0.760016        20.6811 
 137   0.0000       0.784647        21.3513 
 138   0.0000       0.789513        21.4837 
 139   0.0000       0.794778        21.6270 
 140   0.0000       0.809086        22.0164 
 141   0.0000       0.816866        22.2281 
 142   0.0000       0.823351        22.4045 
 143   0.0000       0.832521        22.6541 
 144   0.0000       0.840185        22.8626 
 145   0.0000       0.848561        23.0905 
 146   0.0000       0.860997        23.4289 
 147   0.0000       0.868936        23.6450 
 148   0.0000       0.876110        23.8402 
 149   0.0000       0.884075        24.0569 
 150   0.0000       0.887667        24.1546 
 151   0.0000       0.891158        24.2497 
 152   0.0000       0.901632        24.5346 
 153   0.0000       0.916345        24.9350 
 154   0.0000       0.918012        24.9804 
 155   0.0000       0.926119        25.2010 
 156   0.0000       0.928330        25.2611 
 157   0.0000       0.932967        25.3873 
 158   0.0000       0.944378        25.6978 
 159   0.0000       0.947659        25.7871 
 160   0.0000       0.956745        26.0344 
 161   0.0000       0.966686        26.3049 
 162   0.0000       0.974222        26.5099 
 163   0.0000       0.976800        26.5801 
 164   0.0000       0.988571        26.9004 
 165   0.0000       1.006292        27.3826 
 166   0.0000       1.021063        27.7845 
 167   0.0000       1.033511        28.1233 
 168   0.0000       1.044763        28.4294 
 169   0.0000       1.048251        28.5244 
 170   0.0000       1.067949        29.0604 
 171   0.0000       1.090113        29.6635 
 172   0.0000       1.094243        29.7759 
 173   0.0000       1.141004        31.0483 
 174   0.0000       1.148555        31.2538 
 175   0.0000       1.158163        31.5152 
 176   0.0000       1.163662        31.6648 
 177   0.0000       1.172698        31.9107 
 178   0.0000       1.182794        32.1855 
 179   0.0000       1.184985        32.2451 
 180   0.0000       1.201247        32.6876 
 181   0.0000       1.215964        33.0881 
 182   0.0000       1.231665        33.5153 
 183   0.0000       1.243129        33.8273 
 184   0.0000       1.286156        34.9981 
 185   0.0000       1.308781        35.6138 
 186   0.0000       1.314621        35.7727 
 187   0.0000       1.340765        36.4841 
 188   0.0000       1.354032        36.8451 
 189   0.0000       1.370884        37.3037 
 190   0.0000       1.375182        37.4206 
 191   0.0000       1.384933        37.6859 
 192   0.0000       1.404067        38.2066 
 193   0.0000       1.406604        38.2756 
 194   0.0000       1.410902        38.3926 
 195   0.0000       1.412528        38.4368 
 196   0.0000       1.432819        38.9890 
 197   0.0000       1.463970        39.8366 
 198   0.0000       1.479362        40.2555 
 199   0.0000       1.489861        40.5412 
 200   0.0000       1.496024        40.7089 
 201   0.0000       1.505109        40.9561 
 202   0.0000       1.522610        41.4323 
 203   0.0000       1.527430        41.5635 
 204   0.0000       1.540318        41.9142 
 205   0.0000       1.562353        42.5138 
 206   0.0000       1.567790        42.6617 
 207   0.0000       1.575775        42.8790 
 208   0.0000       1.585882        43.1540 
 209   0.0000       1.597861        43.4800 
 210   0.0000       1.621454        44.1220 
 211   0.0000       1.624517        44.2054 
 212   0.0000       1.628466        44.3128 
 213   0.0000       1.640097        44.6293 
 214   0.0000       1.652844        44.9762 
 215   0.0000       1.662747        45.2457 
 216   0.0000       1.669001        45.4158 
 217   0.0000       1.690629        46.0044 
 218   0.0000       1.690862        46.0107 
 219   0.0000       1.703645        46.3585 
 220   0.0000       1.709500        46.5178 
 221   0.0000       1.727499        47.0076 
 222   0.0000       1.736108        47.2419 
 223   0.0000       1.738548        47.3083 
 224   0.0000       1.742605        47.4187 
 225   0.0000       1.756813        47.8053 
 226   0.0000       1.768940        48.1353 
 227   0.0000       1.791655        48.7534 
 228   0.0000       1.799229        48.9595 
 229   0.0000       1.835837        49.9557 
 230   0.0000       1.837710        50.0066 
 231   0.0000       1.848367        50.2966 
 232   0.0000       1.850867        50.3647 
 233   0.0000       1.874092        50.9966 
 234   0.0000       1.888947        51.4009 
[...]
  6 C s       :     2.875327  s :     2.875327
      pz      :     1.018231  p :     3.044299
      px      :     1.010711
      py      :     1.015358
      dz2     :     0.025442  d :     0.177921
      dxz     :     0.047038
      dyz     :     0.033200
      dx2y2   :     0.044197
      dxy     :     0.028044
  7 C s       :     2.872095  s :     2.872095
      pz      :     1.016843  p :     2.967133
      px      :     0.920439
      py      :     1.029851
      dz2     :     0.029704  d :     0.217725
      dxz     :     0.069087
      dyz     :     0.033542
      dx2y2   :     0.051984
      dxy     :     0.033409
  8 N s       :     3.176297  s :     3.176297
      pz      :     1.422196  p :     3.866653
      px      :     1.152138
      py      :     1.292319
      dz2     :     0.006847  d :     0.053065
      dxz     :     0.018077
      dyz     :     0.002475
      dx2y2   :     0.019900
      dxy     :     0.005766
  9 H s       :     0.862762  s :     0.862762
      pz      :     0.047088  p :     0.091848
      px      :     0.019180
      py      :     0.025580
 10 H s       :     0.869010  s :     0.869010
      pz      :     0.021048  p :     0.079515
      px      :     0.016221
      py      :     0.042247
 11 H s       :     0.866302  s :     0.866302
      pz      :     0.034240  p :     0.079696
      px      :     0.018804
      py      :     0.026652
 12 H s       :     0.881703  s :     0.881703
      pz      :     0.019641  p :     0.078000
      px      :     0.013654
      py      :     0.044704
 13 H s       :     0.897224  s :     0.897224
      pz      :     0.034850  p :     0.079038
      px      :     0.018518
      py      :     0.025669
 14 H s       :     0.810000  s :     0.810000
      pz      :     0.062238  p :     0.140690
      px      :     0.047056
      py      :     0.031396
 15 H s       :     0.808318  s :     0.808318
      pz      :     0.041928  p :     0.140761
      px      :     0.024751
      py      :     0.074083
 16 H s       :     0.755369  s :     0.755369
      pz      :     0.079353  p :     0.154343
      px      :     0.036591
      py      :     0.038400
 17 C s       :     2.842968  s :     2.842968
      pz      :     1.008421  p :     2.772308
      px      :     0.869863
      py      :     0.894024
      dz2     :     0.116117  d :     0.488014
      dxz     :     0.132135
      dyz     :     0.136817
      dx2y2   :     0.058822
      dxy     :     0.044124
 18 N s       :     3.062249  s :     3.062249
      pz      :     1.123227  p :     3.815458
      px      :     1.507295
      py      :     1.184935
      dz2     :     0.020973  d :     0.080340
      dxz     :     0.006069
      dyz     :     0.025146
      dx2y2   :     0.014129
      dxy     :     0.014024
 19 H s       :     0.774255  s :     0.774255
      pz      :     0.076876  p :     0.146568
      px      :     0.045867
      py      :     0.023826
 20 O s       :     3.585749  s :     3.585749
      pz      :     1.441165  p :     4.581356
      px      :     1.559720
      py      :     1.580471
      dz2     :     0.016663  d :     0.031873
      dxz     :     0.006574
      dyz     :     0.007772
      dx2y2   :     0.000445
      dxy     :     0.000419
 21 C s       :     2.871770  s :     2.871770
      pz      :     1.002064  p :     3.065182
      px      :     1.032176
      py      :     1.030942
      dz2     :     0.029180  d :     0.105743
      dxz     :     0.018694
      dyz     :     0.020974
      dx2y2   :     0.025333
      dxy     :     0.011562
 22 H s       :     0.864349  s :     0.864349
      pz      :     0.015893  p :     0.081592
      px      :     0.019124
      py      :     0.046575
 23 H s       :     0.864081  s :     0.864081
      pz      :     0.016789  p :     0.081570
      px      :     0.047100
      py      :     0.017681
 24 H s       :     0.884848  s :     0.884848
      pz      :     0.043935  p :     0.081434
      px      :     0.017891
      py      :     0.019608
 25 C s       :     2.857069  s :     2.857069
      pz      :     1.026478  p :     2.971044
      px      :     1.042940
      py      :     0.901625
      dz2     :     0.016101  d :     0.159910
      dxz     :     0.031898
      dyz     :     0.037700
      dx2y2   :     0.031266
      dxy     :     0.042945
 26 H s       :     0.884517  s :     0.884517
      pz      :     0.020207  p :     0.079266
      px      :     0.037846
      py      :     0.021214
 27 H s       :     0.888651  s :     0.888651
      pz      :     0.030411  p :     0.078685
      px      :     0.024504
      py      :     0.023769
 28 H s       :     0.874524  s :     0.874524
      pz      :     0.037431  p :     0.080630
      px      :     0.029284
      py      :     0.013915
 29 H s       :     0.850033  s :     0.850033
      pz      :     0.036333  p :     0.083157
      px      :     0.030140
      py      :     0.016684
 30 H s       :     0.873221  s :     0.873221
      pz      :     0.032068  p :     0.079441
      px      :     0.020617
      py      :     0.026756
 31 H s       :     0.849665  s :     0.849665
      pz      :     0.023497  p :     0.082895
      px      :     0.019590
      py      :     0.039809

SPIN
  0 N s       :    -0.000050  s :    -0.000050
      pz      :    -0.000004  p :     0.001236
      px      :     0.000319
      py      :     0.000921
      dz2     :     0.000020  d :     0.000095
      dxz     :     0.000001
      dyz     :     0.000004
      dx2y2   :     0.000071
      dxy     :    -0.000002
  1 C s       :     0.001928  s :     0.001928
      pz      :     0.000396  p :     0.005003
      px      :     0.004477
      py      :     0.000130
      dz2     :    -0.000092  d :    -0.000185
      dxz     :     0.000092
      dyz     :     0.000112
      dx2y2   :    -0.000216
      dxy     :    -0.000081
  2 C s       :     0.002201  s :     0.002201
      pz      :     0.000048  p :     0.001742
      px      :     0.001644
      py      :     0.000049
      dz2     :     0.000259  d :     0.000682
      dxz     :     0.000017
      dyz     :    -0.000016
      dx2y2   :     0.000303
      dxy     :     0.000118
  3 O s       :     0.000774  s :     0.000774
      pz      :     0.000105  p :     0.002350
      px      :     0.001184
      py      :     0.001061
      dz2     :    -0.000000  d :     0.000001
      dxz     :     0.000000
      dyz     :    -0.000002
      dx2y2   :     0.000001
      dxy     :     0.000002
  4 C s       :    -0.003490  s :    -0.003490
      pz      :    -0.008753  p :    -0.022441
      px      :    -0.007707
      py      :    -0.005981
      dz2     :     0.000328  d :     0.035025
      dxz     :     0.004987
      dyz     :     0.017343
      dx2y2   :     0.000923
      dxy     :     0.011443
  5 C s       :     0.030681  s :     0.030681
      pz      :     0.032425  p :     0.795069
      px      :     0.056248
      py      :     0.706396
      dz2     :    -0.001098  d :    -0.003254
      dxz     :    -0.001319
      dyz     :     0.000954
      dx2y2   :    -0.001146
      dxy     :    -0.000645
  6 C s       :    -0.002391  s :    -0.002391
      pz      :    -0.004163  p :    -0.023222
      px      :    -0.013056
      py      :    -0.006003
      dz2     :     0.000983  d :     0.034380
      dxz     :     0.000936
      dyz     :     0.007297
      dx2y2   :     0.010892
      dxy     :     0.014272
  7 C s       :     0.002860  s :     0.002860
      pz      :     0.002916  p :     0.006041
      px      :     0.001806
      py      :     0.001319
      dz2     :    -0.000204  d :    -0.000615
      dxz     :    -0.000039
      dyz     :     0.000149
      dx2y2   :    -0.000283
      dxy     :    -0.000239
  8 N s       :    -0.000075  s :    -0.000075
      pz      :     0.000218  p :     0.001427
      px      :    -0.000351
      py      :     0.001560
      dz2     :     0.000018  d :     0.000061
      dxz     :    -0.000001
      dyz     :     0.000000
      dx2y2   :    -0.000004
      dxy     :     0.000048
  9 H s       :    -0.018631  s :    -0.018631
      pz      :     0.003997  p :     0.027364
      px      :     0.001577
      py      :     0.021790
 10 H s       :     0.044708  s :     0.044708
      pz      :    -0.000184  p :    -0.000685
      px      :     0.000128
      py      :    -0.000629
 11 H s       :     0.017984  s :     0.017984
      pz      :    -0.000409  p :    -0.000978
      px      :    -0.000353
      py      :    -0.000216
 12 H s       :    -0.000506  s :    -0.000506
      pz      :     0.000293  p :     0.000486
      px      :    -0.000022
      py      :     0.000215
 13 H s       :    -0.000387  s :    -0.000387
      pz      :     0.000045  p :     0.000206
      px      :     0.000141
      py      :     0.000019
 14 H s       :    -0.000158  s :    -0.000158
      pz      :     0.000004  p :     0.000135
      px      :    -0.000014
      py      :     0.000144
 15 H s       :     0.000156  s :     0.000156
      pz      :     0.000111  p :     0.000198
      px      :     0.000098
      py      :    -0.000011
 16 H s       :    -0.000019  s :    -0.000019
      pz      :     0.000006  p :     0.000062
      px      :     0.000004
      py      :     0.000052
 17 C s       :    -0.000024  s :    -0.000024
      pz      :     0.000135  p :    -0.000113
      px      :    -0.000278
      py      :     0.000030
      dz2     :     0.000012  d :     0.000344
      dxz     :     0.000201
      dyz     :    -0.000018
      dx2y2   :     0.000126
      dxy     :     0.000024
 18 N s       :     0.000240  s :     0.000240
      pz      :     0.000394  p :     0.000352
      px      :    -0.000206
      py      :     0.000164
      dz2     :     0.000008  d :     0.000002
      dxz     :    -0.000003
      dyz     :     0.000001
      dx2y2   :     0.000008
      dxy     :    -0.000012
 19 H s       :     0.000373  s :     0.000373
      pz      :     0.000026  p :     0.000146
      px      :     0.000005
      py      :     0.000115
 20 O s       :     0.000589  s :     0.000589
      pz      :     0.000161  p :     0.002423
      px      :     0.002246
      py      :     0.000016
      dz2     :    -0.000002  d :    -0.000003
      dxz     :    -0.000003
      dyz     :    -0.000001
      dx2y2   :     0.000003
      dxy     :     0.000000
 21 C s       :    -0.000009  s :    -0.000009
      pz      :     0.000017  p :     0.000019
      px      :     0.000005
      py      :    -0.000002
      dz2     :    -0.000000  d :     0.000002
      dxz     :    -0.000003
      dyz     :    -0.000000
      dx2y2   :     0.000004
      dxy     :     0.000001
 22 H s       :     0.000003  s :     0.000003
      pz      :    -0.000001  p :    -0.000002
      px      :    -0.000000
      py      :    -0.000001
 23 H s       :    -0.000008  s :    -0.000008
      pz      :     0.000000  p :     0.000002
      px      :     0.000002
      py      :    -0.000000
 24 H s       :     0.000026  s :     0.000026
      pz      :    -0.000002  p :    -0.000002
      px      :     0.000000
      py      :    -0.000001
 25 C s       :     0.000333  s :     0.000333
      pz      :     0.000013  p :     0.000046
      px      :    -0.000006
      py      :     0.000040
      dz2     :     0.000009  d :     0.000013
      dxz     :    -0.000003
      dyz     :     0.000002
      dx2y2   :     0.000019
      dxy     :    -0.000014
 26 H s       :    -0.000013  s :    -0.000013
      pz      :     0.000000  p :     0.000005
      px      :     0.000005
      py      :     0.000001
 27 H s       :     0.000014  s :     0.000014
      pz      :     0.000000  p :    -0.000001
      px      :    -0.000001
      py      :    -0.000001
 28 H s       :    -0.000001  s :    -0.000001
      pz      :     0.000006  p :     0.000016
      px      :     0.000010
      py      :     0.000000
 29 H s       :    -0.000281  s :    -0.000281
      pz      :     0.000003  p :     0.000162
      px      :     0.000175
      py      :    -0.000016
 30 H s       :     0.018606  s :     0.018606
      pz      :    -0.000669  p :    -0.000849
      px      :    -0.000265
      py      :     0.000085
 31 H s       :     0.042798  s :     0.042798
      pz      :    -0.000295  p :    -0.000978
      px      :    -0.000095
      py      :    -0.000588


                      *****************************
                      * MAYER POPULATION ANALYSIS *
                      *****************************

  NA   - Mulliken gross atomic population
  ZA   - Total nuclear charge
  QA   - Mulliken gross atomic charge
  VA   - Mayer's total valence
  BVA  - Mayer's bonded valence
  FA   - Mayer's free valence

  ATOM       NA         ZA         QA         VA         BVA        FA
  0 N      7.1114     7.0000    -0.1114     3.2717     3.2717    -0.0000
  1 C      6.1450     6.0000    -0.1450     4.1303     4.1302     0.0001
  2 C      5.8801     6.0000     0.1199     4.0236     4.0234     0.0002
  3 O      8.3360     8.0000    -0.3360     2.1044     2.1044    -0.0000
  4 C      6.2711     6.0000    -0.2711     3.9263     3.9241     0.0022
  5 C      6.0780     6.0000    -0.0780     3.8676     3.1006     0.7670
  6 C      6.3163     6.0000    -0.3163     3.9394     3.9367     0.0027
  7 C      6.2859     6.0000    -0.2859     3.9125     3.9124     0.0001
  8 N      7.4586     7.0000    -0.4586     2.9631     2.9631     0.0000
  9 H      0.8732     1.0000     0.1268     0.9825     0.9795     0.0029
 10 H      0.8525     1.0000     0.1475     0.9646     0.9615     0.0031
 11 H      0.8373     1.0000     0.1627     0.9662     0.9657     0.0004
 12 H      0.8341     1.0000     0.1659     0.9524     0.9524     0.0000
 13 H      0.8642     1.0000     0.1358     0.9484     0.9484     0.0000
 14 H      0.7902     1.0000     0.2098     0.9589     0.9589     0.0000
 15 H      0.7900     1.0000     0.2100     0.9610     0.9610     0.0000
 16 H      0.7486     1.0000     0.2514     0.9708     0.9708     0.0000
 17 C      5.8243     6.0000     0.1757     3.9654     3.9654     0.0000
 18 N      7.1039     7.0000    -0.1039     3.2138     3.2138     0.0000
 19 H      0.7666     1.0000     0.2334     0.9626     0.9626     0.0000
 20 O      8.3280     8.0000    -0.3280     2.1139     2.1138     0.0000
 21 C      6.5543     6.0000    -0.5543     3.8592     3.8592     0.0000
 22 H      0.8149     1.0000     0.1851     0.9591     0.9591     0.0000
 23 H      0.8139     1.0000     0.1861     0.9588     0.9588     0.0000
 24 H      0.8511     1.0000     0.1489     0.9714     0.9714     0.0000
 25 C      6.4427     6.0000    -0.4427     3.9407     3.9407     0.0000
 26 H      0.8232     1.0000     0.1768     0.9495     0.9495     0.0000
 27 H      0.8555     1.0000     0.1445     0.9668     0.9668    -0.0000
 28 H      0.8116     1.0000     0.1884     0.9534     0.9534     0.0000
 29 H      0.8444     1.0000     0.1556     0.9528     0.9528     0.0000
 30 H      0.8732     1.0000     0.1268     0.9725     0.9721     0.0004
 31 H      0.8196     1.0000     0.1804     0.9604     0.9577     0.0027

  Mayer bond orders larger than 0.100000
B(  0-N ,  1-C ) :   1.0319 B(  0-N , 16-H ) :   0.8910 B(  0-N , 17-C ) :   1.2072 
B(  1-C ,  2-C ) :   0.9059 B(  1-C ,  4-C ) :   0.9400 B(  1-C , 20-O ) :   0.1427 
B(  1-C , 29-H ) :   0.9715 B(  2-C ,  3-O ) :   1.8334 B(  2-C , 18-N ) :   1.2142 
B(  4-C ,  5-C ) :   0.9833 B(  4-C , 30-H ) :   0.9715 B(  4-C , 31-H ) :   0.9437 
B(  5-C ,  6-C ) :   0.9724 B(  5-C ,  9-H ) :   0.9913 B(  6-C ,  7-C ) :   0.9609 
B(  6-C , 10-H ) :   0.9585 B(  6-C , 11-H ) :   0.9655 B(  7-C ,  8-N ) :   1.0118 
B(  7-C , 12-H ) :   0.9579 B(  7-C , 13-H ) :   0.9436 B(  8-N , 14-H ) :   0.9440 
B(  8-N , 15-H ) :   0.9479 B( 17-C , 20-O ) :   1.8564 B( 17-C , 21-C ) :   0.8935 
B( 18-N , 19-H ) :   0.9347 B( 18-N , 25-C ) :   0.9653 B( 21-C , 22-H ) :   0.9591 
B( 21-C , 23-H ) :   0.9588 B( 21-C , 24-H ) :   0.9758 B( 25-C , 26-H ) :   0.9535 
B( 25-C , 27-H ) :   0.9671 B( 25-C , 28-H ) :   0.9489 

-------
TIMINGS
-------

Total SCF time: 0 days 0 hours 0 min 17 sec 

Total time                  ....      17.251 sec
Sum of individual times     ....      16.481 sec  ( 95.5%)

Fock matrix formation       ....      14.301 sec  ( 82.9%)
  Split-RI-J                ....       1.227 sec  (  8.6% of F)
  Chain of spheres X        ....       9.755 sec  ( 68.2% of F)
  XC integration            ....       2.996 sec  ( 20.9% of F)
    Basis function eval.    ....       0.319 sec  ( 10.7% of XC)
    Density eval.           ....       0.444 sec  ( 14.8% of XC)
    XC-Functional eval.     ....       0.072 sec  (  2.4% of XC)
    XC-Potential eval.      ....       0.286 sec  (  9.6% of XC)
Diagonalization             ....       0.517 sec  (  3.0%)
Density matrix formation    ....       0.025 sec  (  0.1%)
Population analysis         ....       0.055 sec  (  0.3%)
Initial guess               ....       0.058 sec  (  0.3%)
Orbital Transformation      ....       0.000 sec  (  0.0%)
Orbital Orthonormalization  ....       0.041 sec  (  0.2%)
DIIS solution               ....       0.273 sec  (  1.6%)
Grid generation             ....       1.252 sec  (  7.3%)

Maximum memory used throughout the entire SCF-calculation: 83.8 MB

-------------------------   --------------------
FINAL SINGLE POINT ENERGY      -668.218294632830
-------------------------   --------------------

                                *** OPTIMIZATION RUN DONE ***

                            ***************************************
                            *     ORCA property calculations      *
                            ***************************************

                                    ---------------------
                                    Active property flags
                                    ---------------------
   (+) Dipole Moment


------------------------------------------------------------------------------
                       ORCA ELECTRIC PROPERTIES CALCULATION
------------------------------------------------------------------------------

Dipole Moment Calculation                       ... on
Quadrupole Moment Calculation                   ... off
Polarizability Calculation                      ... off
GBWName                                         ... opt.gbw
Electron density                                ... opt.scfp
The origin for moment calculation is the CENTER OF MASS  = ( 0.107963, -0.005612 -0.008560)

-------------
DIPOLE MOMENT
-------------
                                X             Y             Z
Electronic contribution:      9.93404       1.40762      -0.95512
Nuclear contribution   :    -10.60773      -0.76890       1.20536
                        -----------------------------------------
Total Dipole Moment    :     -0.67369       0.63871       0.25024
                        -----------------------------------------
Magnitude (a.u.)       :      0.96147
Magnitude (Debye)      :      2.44387



--------------------
Rotational spectrum 
--------------------
 
Rotational constants in cm-1:     0.021166     0.012696     0.009061 
Rotational constants in MHz :   634.551148   380.624607   271.638405 

 Dipole components along the rotational axes: 
x,y,z [a.u.] :    -0.676237     0.647345     0.219266 
x,y,z [Debye]:    -1.718857     1.645420     0.557330 

 

Timings for individual modules:

Sum of individual times         ...      343.385 sec (=   5.723 min)
GTO integral calculation        ...       28.584 sec (=   0.476 min)   8.3 %
SCF iterations                  ...      233.512 sec (=   3.892 min)  68.0 %
SCF Gradient evaluation         ...       80.829 sec (=   1.347 min)  23.5 %
Geometry relaxation             ...        0.460 sec (=   0.008 min)   0.1 %
                             ****ORCA TERMINATED NORMALLY****
TOTAL RUN TIME: 0 days 0 hours 6 minutes 7 seconds 801 msec
