
                                 *****************
                                 * O   R   C   A *
                                 *****************

                                            #,                                       
                                            ###                                      
                                            ####                                     
                                            #####                                    
                                            ######                                   
                                           ########,                                 
                                     ,,################,,,,,                         
                               ,,#################################,,                 
                          ,,##########################################,,             
                       ,#########################################, ''#####,          
                    ,#############################################,,   '####,        
                  ,##################################################,,,,####,       
                ,###########''''           ''''###############################       
              ,#####''   ,,,,##########,,,,          '''####'''          '####       
            ,##' ,,,,###########################,,,                        '##       
           ' ,,###''''                  '''############,,,                           
         ,,##''                                '''############,,,,        ,,,,,,###''
      ,#''                                            '''#######################'''  
     '                                                          ''''####''''         
             ,#######,   #######,   ,#######,      ##                                
            ,#'     '#,  ##    ##  ,#'     '#,    #''#        ######   ,####,        
            ##       ##  ##   ,#'  ##            #'  '#       #        #'  '#        
            ##       ##  #######   ##           ,######,      #####,   #    #        
            '#,     ,#'  ##    ##  '#,     ,#' ,#      #,         ##   #,  ,#        
             '#######'   ##     ##  '#######'  #'      '#     #####' # '####'        



                  #######################################################
                  #                        -***-                        #
                  #          Department of theory and spectroscopy      #
                  #    Directorship and core code : Frank Neese         #
                  #        Max Planck Institute fuer Kohlenforschung    #
                  #                Kaiser Wilhelm Platz 1               #
                  #                 D-45470 Muelheim/Ruhr               #
                  #                      Germany                        #
                  #                                                     #
                  #                  All rights reserved                #
                  #                        -***-                        #
                  #######################################################


                         Program Version 5.0.4 -  RELEASE  -


 With contributions from (in alphabetic order):
   Daniel Aravena         : Magnetic Suceptibility
   Michael Atanasov       : Ab Initio Ligand Field Theory (pilot matlab implementation)
   Alexander A. Auer      : GIAO ZORA, VPT2 properties, NMR spectrum
   Ute Becker             : Parallelization
   Giovanni Bistoni       : ED, misc. LED, open-shell LED, HFLD
   Martin Brehm           : Molecular dynamics
   Dmytro Bykov           : SCF Hessian
   Vijay G. Chilkuri      : MRCI spin determinant printing, contributions to CSF-ICE
   Dipayan Datta          : RHF DLPNO-CCSD density
   Achintya Kumar Dutta   : EOM-CC, STEOM-CC
   Dmitry Ganyushin       : Spin-Orbit,Spin-Spin,Magnetic field MRCI
   Miquel Garcia          : C-PCM and meta-GGA Hessian, CC/C-PCM, Gaussian charge scheme
   Yang Guo               : DLPNO-NEVPT2, F12-NEVPT2, CIM, IAO-localization
   Andreas Hansen         : Spin unrestricted coupled pair/coupled cluster methods
   Benjamin Helmich-Paris : MC-RPA, TRAH-SCF, COSX integrals
   Lee Huntington         : MR-EOM, pCC
   Robert Izsak           : Overlap fitted RIJCOSX, COSX-SCS-MP3, EOM
   Marcus Kettner         : VPT2
   Christian Kollmar      : KDIIS, OOCD, Brueckner-CCSD(T), CCSD density, CASPT2, CASPT2-K
   Simone Kossmann        : Meta GGA functionals, TD-DFT gradient, OOMP2, MP2 Hessian
   Martin Krupicka        : Initial AUTO-CI
   Lucas Lang             : DCDCAS
   Marvin Lechner         : AUTO-CI (C++ implementation), FIC-MRCC
   Dagmar Lenk            : GEPOL surface, SMD
   Dimitrios Liakos       : Extrapolation schemes; Compound Job, initial MDCI parallelization
   Dimitrios Manganas     : Further ROCIS development; embedding schemes
   Dimitrios Pantazis     : SARC Basis sets
   Anastasios Papadopoulos: AUTO-CI, single reference methods and gradients
   Taras Petrenko         : DFT Hessian,TD-DFT gradient, ASA, ECA, R-Raman, ABS, FL, XAS/XES, NRVS
   Peter Pinski           : DLPNO-MP2, DLPNO-MP2 Gradient
   Christoph Reimann      : Effective Core Potentials
   Marius Retegan         : Local ZFS, SOC
   Christoph Riplinger    : Optimizer, TS searches, QM/MM, DLPNO-CCSD(T), (RO)-DLPNO pert. Triples
   Tobias Risthaus        : Range-separated hybrids, TD-DFT gradient, RPA, STAB
   Michael Roemelt        : Original ROCIS implementation
   Masaaki Saitow         : Open-shell DLPNO-CCSD energy and density
   Barbara Sandhoefer     : DKH picture change effects
   Avijit Sen             : IP-ROCIS
   Kantharuban Sivalingam : CASSCF convergence, NEVPT2, FIC-MRCI
   Bernardo de Souza      : ESD, SOC TD-DFT
   Georgi Stoychev        : AutoAux, RI-MP2 NMR, DLPNO-MP2 response
   Willem Van den Heuvel  : Paramagnetic NMR
   Boris Wezisla          : Elementary symmetry handling
   Frank Wennmohs         : Technical directorship


 We gratefully acknowledge several colleagues who have allowed us to
 interface, adapt or use parts of their codes:
   Stefan Grimme, W. Hujo, H. Kruse, P. Pracht,  : VdW corrections, initial TS optimization,
                  C. Bannwarth, S. Ehlert          DFT functionals, gCP, sTDA/sTD-DF
   Ed Valeev, F. Pavosevic, A. Kumar             : LibInt (2-el integral package), F12 methods
   Garnet Chan, S. Sharma, J. Yang, R. Olivares  : DMRG
   Ulf Ekstrom                                   : XCFun DFT Library
   Mihaly Kallay                                 : mrcc  (arbitrary order and MRCC methods)
   Jiri Pittner, Ondrej Demel                    : Mk-CCSD
   Frank Weinhold                                : gennbo (NPA and NBO analysis)
   Christopher J. Cramer and Donald G. Truhlar   : smd solvation model
   Lars Goerigk                                  : TD-DFT with DH, B97 family of functionals
   V. Asgeirsson, H. Jonsson                     : NEB implementation
   FAccTs GmbH                                   : IRC, NEB, NEB-TS, DLPNO-Multilevel, CI-OPT
                                                   MM, QMMM, 2- and 3-layer-ONIOM, Crystal-QMMM,
                                                   LR-CPCM, SF, NACMEs, symmetry and pop. for TD-DFT,
                                                   nearIR, NL-DFT gradient (VV10), updates on ESD,
                                                   ML-optimized integration grids
   S Lehtola, MJT Oliveira, MAL Marques          : LibXC Library
   Liviu Ungur et al                             : ANISO software


 Your calculation uses the libint2 library for the computation of 2-el integrals
 For citations please refer to: http://libint.valeyev.net

 Your ORCA version has been built with support for libXC version: 5.1.0
 For citations please refer to: https://tddft.org/programs/libxc/

 This ORCA versions uses:
   CBLAS   interface :  Fast vector & matrix operations
   LAPACKE interface :  Fast linear algebra routines
   SCALAPACK package :  Parallel linear algebra routines
   Shared memory     :  Shared parallel matrices
   BLAS/LAPACK       :  OpenBLAS 0.3.15  USE64BITINT DYNAMIC_ARCH NO_AFFINITY Zen SINGLE_THREADED
        Core in use  :  Zen
   Copyright (c) 2011-2014, The OpenBLAS Project




***************************************
The coordinates will be read from file: opt.xyz
***************************************


================================================================================

----- Orbital basis set information -----
Your calculation utilizes the basis: EPR-II
   V. Barone, in Recent Advances in Density Functional Methods, Part 1 (ed. D. P. Chong), World Scientific, Singapore, 1995, p. 287.

----- AuxJ basis set information -----
Your calculation utilizes the AutoAux generation procedure.
  G. L. Stoychev, A. A. Auer, F. Neese, J. Chem. Theory Comput. 13, 554 (2017)

----- AuxC basis set information -----
Your calculation utilizes the AutoAux generation procedure.
  G. L. Stoychev, A. A. Auer, F. Neese, J. Chem. Theory Comput. 13, 554 (2017)

----- AuxJK basis set information -----
Your calculation utilizes the AutoAux generation procedure.
  G. L. Stoychev, A. A. Auer, F. Neese, J. Chem. Theory Comput. 13, 554 (2017)

================================================================================
                                        WARNINGS
                       Please study these warnings very carefully!
================================================================================


WARNING: your system is open-shell and RHF/RKS was chosen
  ===> : WILL SWITCH to UHF/UKS


INFO   : the flag for use of the SHARK integral package has been found!

================================================================================
                                       INPUT FILE
================================================================================
NAME = epr_info.inp
|  1> ! B3LYP EPR-II AUTOAUX
|  2> %pal nprocs 16 end
|  3> *XYZFile 1 2 opt.xyz
|  4> %EPRNMR
|  5>         GTENSOR   TRUE
|  6>         NUCLEI    = 1,9,10,11,12,13,14,15,16,17,22,31,32,33 {SHIFT, AISO, ADIP, AORB}
|  7>         ORI       GIAO
|  8> END
|  9> 
| 10>                          ****END OF INPUT****
================================================================================

                       ****************************
                       * Single Point Calculation *
                       ****************************

---------------------------------
CARTESIAN COORDINATES (ANGSTROEM)
---------------------------------
  N     -7.815204    0.900419    0.019371
  C     -6.374150    0.851442    0.211759
  C     -6.112257    0.951068    1.726935
  O     -6.833404    1.654512    2.440790
  C     -5.636342    1.988519   -0.551998
  C     -6.055242    3.367988   -0.140011
  C     -5.822153    4.541002   -1.053069
  C     -5.719704    5.839939   -0.248827
  N     -5.591995    7.048531   -1.187662
  H     -6.675191    3.502451    0.742892
  H     -6.650377    4.629605   -1.782312
  H     -4.905098    4.390995   -1.640603
  H     -4.840690    5.860390    0.398189
  H     -6.612007    6.021521    0.354282
  H     -5.538238    7.931776   -0.670808
  H     -6.396551    7.098922   -1.821040
  H     -8.368438    1.156626    0.825790
  C     -8.396072    0.598040   -1.185406
  N     -5.027415    0.267549    2.178745
  H     -4.574585   -0.373476    1.543783
  O     -7.718688    0.323902   -2.176741
  H     -4.751167    6.969853   -1.768548
  C     -4.625448    0.247395    3.585411
  H     -4.881794   -0.708458    4.053529
  H     -3.547979    0.411599    3.672203
  H     -5.159096    1.045334    4.101231
  C     -9.918426    0.610107   -1.215770
  H    -10.250336    1.240101   -2.044769
  H    -10.265290   -0.407059   -1.419554
  H    -10.371449    0.959527   -0.284315
  H     -5.997125   -0.097783   -0.186041
  H     -4.549766    1.857272   -0.414585
  H     -5.829023    1.827037   -1.620896

----------------------------
CARTESIAN COORDINATES (A.U.)
----------------------------
  NO LB      ZA    FRAG     MASS         X           Y           Z
   0 N     7.0000    0    14.007  -14.768596    1.701546    0.036606
   1 C     6.0000    0    12.011  -12.045399    1.608993    0.400167
   2 C     6.0000    0    12.011  -11.550492    1.797259    3.263434
   3 O     8.0000    0    15.999  -12.913263    3.126574    4.612425
   4 C     6.0000    0    12.011  -10.651143    3.757756   -1.043126
   5 C     6.0000    0    12.011  -11.442750    6.364575   -0.264582
   6 C     6.0000    0    12.011  -11.002275    8.581250   -1.990011
   7 C     6.0000    0    12.011  -10.808674   11.035885   -0.470215
   8 N     7.0000    0    14.007  -10.567340   13.319793   -2.244356
   9 H     1.0000    0     1.008  -12.614282    6.618673    1.403862
  10 H     1.0000    0     1.008  -12.567390    8.748685   -3.368082
  11 H     1.0000    0     1.008   -9.269292    8.297778   -3.100290
  12 H     1.0000    0     1.008   -9.147578   11.074531    0.752468
  13 H     1.0000    0     1.008  -12.494882   11.379025    0.669496
  14 H     1.0000    0     1.008  -10.465752   14.988885   -1.267643
  15 H     1.0000    0     1.008  -12.087729   13.415019   -3.441267
  16 H     1.0000    0     1.008  -15.814057    2.185706    1.560517
  17 C     6.0000    0    12.011  -15.866277    1.130132   -2.240092
  18 N     7.0000    0    14.007   -9.500437    0.505595    4.117232
  19 H     1.0000    0     1.008   -8.644713   -0.705767    2.917328
  20 O     8.0000    0    15.999  -14.586207    0.612086   -4.113445
  21 H     1.0000    0     1.008   -8.978405   13.171114   -3.342072
  22 C     6.0000    0    12.011   -8.740830    0.467508    6.775446
  23 H     1.0000    0     1.008   -9.225254   -1.338792    7.660059
  24 H     1.0000    0     1.008   -6.704709    0.777809    6.939459
  25 H     1.0000    0     1.008   -9.749278    1.975394    7.750204
  26 C     6.0000    0    12.011  -18.743109    1.152934   -2.297473
  27 H     1.0000    0     1.008  -19.370327    2.343452   -3.864054
  28 H     1.0000    0     1.008  -19.398587   -0.769231   -2.682568
  29 H     1.0000    0     1.008  -19.599199    1.813244   -0.537278
  30 H     1.0000    0     1.008  -11.332924   -0.184784   -0.351567
  31 H     1.0000    0     1.008   -8.597812    3.509735   -0.783452
  32 H     1.0000    0     1.008  -11.015257    3.452599   -3.063049

--------------------------------
INTERNAL COORDINATES (ANGSTROEM)
--------------------------------
 N      0   0   0     0.000000000000     0.00000000     0.00000000
 C      1   0   0     1.454664306187     0.00000000     0.00000000
 C      2   1   0     1.540866571190   107.23244129     0.00000000
 O      3   2   1     1.234696529312   120.40360269   324.57288802
 C      2   1   3     1.555837382088   112.34923403   238.04622920
 C      5   2   1     1.499381995067   113.89257864    59.79628889
 C      6   5   2     1.504648334387   120.47934955   200.98970312
 C      7   6   5     1.531188129234   110.66972997   205.61967563
 N      8   7   6     1.535713452124   110.61494577   184.42584115
 H      6   5   2     1.087167553500   119.75226566    10.81403780
 H      7   6   5     1.107068512377   110.25658120    84.75097962
 H      7   6   5     1.099403652351   110.31260230   327.48048346
 H      8   7   6     1.091656560033   112.40015507    65.78314005
 H      8   7   6     1.092207311866   112.11129567   302.43396448
 H      9   8   7     1.024768646609   111.98310525   179.01046859
 H      9   8   7     1.025190969182   110.55537694    58.42117692
 H      1   2   3     1.010950576397   116.43329094    10.96802772
 C      1   2   3     1.371250481069   121.89853742   191.82703974
 N      3   2   1     1.359490218633   115.46234587   147.09916322
 H     19   3   2     1.009527057785   117.91475349   349.54456984
 O     18   1   2     1.231562729575   121.55473913   356.96040157
 H      9   8   7     1.024993006485   110.74846863   299.62235711
 C     19   3   2     1.463110619884   123.07078470   180.00469673
 H     23  19   3     1.094761304684   111.02639693   104.69699856
 H     23  19   3     1.093359760070   110.18125856   225.73441688
 H     23  19   3     1.089750518830   108.08659320   345.44035528
 C     18   1   2     1.522704157898   116.05795003   176.41889262
 H     27  18   1     1.092838742538   108.86494395   128.22342188
 H     27  18   1     1.093832327323   108.26315908   244.63822748
 H     27  18   1     1.093130033257   113.57027896     5.76123973
 H      2   1   3     1.096094017422   108.77857731   119.82710740
 H      5   2   1     1.103066759599   108.60355217   183.40596030
 H      5   2   1     1.098063773574   106.68847628   297.33557816

---------------------------
INTERNAL COORDINATES (A.U.)
---------------------------
 N      0   0   0     0.000000000000     0.00000000     0.00000000
 C      1   0   0     2.748917155484     0.00000000     0.00000000
 C      2   1   0     2.911815828463   107.23244129     0.00000000
 O      3   2   1     2.333238298902   120.40360269   324.57288802
 C      2   1   3     2.940106561063   112.34923403   238.04622920
 C      5   2   1     2.833421340808   113.89257864    59.79628889
 C      6   5   2     2.843373279852   120.47934955   200.98970312
 C      7   6   5     2.893526223764   110.66972997   205.61967563
 N      8   7   6     2.902077844693   110.61494577   184.42584115
 H      6   5   2     2.054448937800   119.75226566    10.81403780
 H      7   6   5     2.092056299880   110.25658120    84.75097962
 H      7   6   5     2.077571813576   110.31260230   327.48048346
 H      8   7   6     2.062931930762   112.40015507    65.78314005
 H      8   7   6     2.063972700893   112.11129567   302.43396448
 H      9   8   7     1.936532092720   111.98310525   179.01046859
 H      9   8   7     1.937330166723   110.55537694    58.42117692
 H      1   2   3     1.910419724319   116.43329094    10.96802772
 C      1   2   3     2.591287870229   121.89853742   191.82703974
 N      3   2   1     2.569064194960   115.46234587   147.09916322
 H     19   3   2     1.907729663998   117.91475349   349.54456984
 O     18   1   2     2.327316275641   121.55473913   356.96040157
 H      9   8   7     1.936956071441   110.74846863   299.62235711
 C     19   3   2     2.764878375213   123.07078470   180.00469673
 H     23  19   3     2.068799047868   111.02639693   104.69699856
 H     23  19   3     2.066150512383   110.18125856   225.73441688
 H     23  19   3     2.059330034887   108.08659320   345.44035528
 C     18   1   2     2.877493841410   116.05795003   176.41889262
 H     27  18   1     2.065165931936   108.86494395   128.22342188
 H     27  18   1     2.067043535069   108.26315908   244.63822748
 H     27  18   1     2.065716391620   113.57027896     5.76123973
 H      2   1   3     2.071317509957   108.77857731   119.82710740
 H      5   2   1     2.084494083073   108.60355217   183.40596030
 H      5   2   1     2.075039809635   106.68847628   297.33557816

---------------------
BASIS SET INFORMATION
---------------------
There are 4 groups of distinct atoms

 Group   1 Type N   : 10s5p1d contracted to 6s2p1d pattern {511111/41/1}
 Group   2 Type C   : 10s5p1d contracted to 6s2p1d pattern {511111/41/1}
 Group   3 Type O   : 10s5p1d contracted to 6s2p1d pattern {511111/41/1}
 Group   4 Type H   : 6s1p contracted to 4s1p pattern {3111/1}

Atom   0N    basis set group =>   1
Atom   1C    basis set group =>   2
Atom   2C    basis set group =>   2
Atom   3O    basis set group =>   3
Atom   4C    basis set group =>   2
Atom   5C    basis set group =>   2
Atom   6C    basis set group =>   2
Atom   7C    basis set group =>   2
Atom   8N    basis set group =>   1
Atom   9H    basis set group =>   4
Atom  10H    basis set group =>   4
Atom  11H    basis set group =>   4
Atom  12H    basis set group =>   4
Atom  13H    basis set group =>   4
Atom  14H    basis set group =>   4
Atom  15H    basis set group =>   4
Atom  16H    basis set group =>   4
Atom  17C    basis set group =>   2
Atom  18N    basis set group =>   1
Atom  19H    basis set group =>   4
Atom  20O    basis set group =>   3
Atom  21H    basis set group =>   4
Atom  22C    basis set group =>   2
Atom  23H    basis set group =>   4
Atom  24H    basis set group =>   4
Atom  25H    basis set group =>   4
Atom  26C    basis set group =>   2
Atom  27H    basis set group =>   4
Atom  28H    basis set group =>   4
Atom  29H    basis set group =>   4
Atom  30H    basis set group =>   4
Atom  31H    basis set group =>   4
Atom  32H    basis set group =>   4
---------------------------------
AUXILIARY/J BASIS SET INFORMATION
---------------------------------
There are 4 groups of distinct atoms

 Group   1 Type N   : 17s13p12d2f contracted to 17s13p12d2f pattern {11111111111111111/1111111111111/111111111111/11}
 Group   2 Type C   : 17s13p12d2f contracted to 17s13p12d2f pattern {11111111111111111/1111111111111/111111111111/11}
 Group   3 Type O   : 17s13p12d2f contracted to 17s13p12d2f pattern {11111111111111111/1111111111111/111111111111/11}
 Group   4 Type H   : 15s6p1d contracted to 15s6p1d pattern {111111111111111/111111/1}

Atom   0N    basis set group =>   1
Atom   1C    basis set group =>   2
Atom   2C    basis set group =>   2
Atom   3O    basis set group =>   3
Atom   4C    basis set group =>   2
Atom   5C    basis set group =>   2
Atom   6C    basis set group =>   2
Atom   7C    basis set group =>   2
Atom   8N    basis set group =>   1
Atom   9H    basis set group =>   4
Atom  10H    basis set group =>   4
Atom  11H    basis set group =>   4
Atom  12H    basis set group =>   4
Atom  13H    basis set group =>   4
Atom  14H    basis set group =>   4
Atom  15H    basis set group =>   4
Atom  16H    basis set group =>   4
Atom  17C    basis set group =>   2
Atom  18N    basis set group =>   1
Atom  19H    basis set group =>   4
Atom  20O    basis set group =>   3
Atom  21H    basis set group =>   4
Atom  22C    basis set group =>   2
Atom  23H    basis set group =>   4
Atom  24H    basis set group =>   4
Atom  25H    basis set group =>   4
Atom  26C    basis set group =>   2
Atom  27H    basis set group =>   4
Atom  28H    basis set group =>   4
Atom  29H    basis set group =>   4
Atom  30H    basis set group =>   4
Atom  31H    basis set group =>   4
Atom  32H    basis set group =>   4
---------------------------------
AUXILIARY/C BASIS SET INFORMATION
---------------------------------
There are 4 groups of distinct atoms

 Group   1 Type N   : 17s13p12d2f contracted to 17s13p12d2f pattern {11111111111111111/1111111111111/111111111111/11}
 Group   2 Type C   : 17s13p12d2f contracted to 17s13p12d2f pattern {11111111111111111/1111111111111/111111111111/11}
 Group   3 Type O   : 17s13p12d2f contracted to 17s13p12d2f pattern {11111111111111111/1111111111111/111111111111/11}
 Group   4 Type H   : 15s6p1d contracted to 15s6p1d pattern {111111111111111/111111/1}

Atom   0N    basis set group =>   1
Atom   1C    basis set group =>   2
Atom   2C    basis set group =>   2
Atom   3O    basis set group =>   3
Atom   4C    basis set group =>   2
Atom   5C    basis set group =>   2
Atom   6C    basis set group =>   2
Atom   7C    basis set group =>   2
Atom   8N    basis set group =>   1
Atom   9H    basis set group =>   4
Atom  10H    basis set group =>   4
Atom  11H    basis set group =>   4
Atom  12H    basis set group =>   4
Atom  13H    basis set group =>   4
Atom  14H    basis set group =>   4
Atom  15H    basis set group =>   4
Atom  16H    basis set group =>   4
Atom  17C    basis set group =>   2
Atom  18N    basis set group =>   1
Atom  19H    basis set group =>   4
Atom  20O    basis set group =>   3
Atom  21H    basis set group =>   4
Atom  22C    basis set group =>   2
Atom  23H    basis set group =>   4
Atom  24H    basis set group =>   4
Atom  25H    basis set group =>   4
Atom  26C    basis set group =>   2
Atom  27H    basis set group =>   4
Atom  28H    basis set group =>   4
Atom  29H    basis set group =>   4
Atom  30H    basis set group =>   4
Atom  31H    basis set group =>   4
Atom  32H    basis set group =>   4
----------------------------------
AUXILIARY/JK BASIS SET INFORMATION
----------------------------------
There are 4 groups of distinct atoms

 Group   1 Type N   : 17s13p12d2f contracted to 17s13p12d2f pattern {11111111111111111/1111111111111/111111111111/11}
 Group   2 Type C   : 17s13p12d2f contracted to 17s13p12d2f pattern {11111111111111111/1111111111111/111111111111/11}
 Group   3 Type O   : 17s13p12d2f contracted to 17s13p12d2f pattern {11111111111111111/1111111111111/111111111111/11}
 Group   4 Type H   : 15s6p1d contracted to 15s6p1d pattern {111111111111111/111111/1}

Atom   0N    basis set group =>   1
Atom   1C    basis set group =>   2
Atom   2C    basis set group =>   2
Atom   3O    basis set group =>   3
Atom   4C    basis set group =>   2
Atom   5C    basis set group =>   2
Atom   6C    basis set group =>   2
Atom   7C    basis set group =>   2
Atom   8N    basis set group =>   1
Atom   9H    basis set group =>   4
Atom  10H    basis set group =>   4
Atom  11H    basis set group =>   4
Atom  12H    basis set group =>   4
Atom  13H    basis set group =>   4
Atom  14H    basis set group =>   4
Atom  15H    basis set group =>   4
Atom  16H    basis set group =>   4
Atom  17C    basis set group =>   2
Atom  18N    basis set group =>   1
Atom  19H    basis set group =>   4
Atom  20O    basis set group =>   3
Atom  21H    basis set group =>   4
Atom  22C    basis set group =>   2
Atom  23H    basis set group =>   4
Atom  24H    basis set group =>   4
Atom  25H    basis set group =>   4
Atom  26C    basis set group =>   2
Atom  27H    basis set group =>   4
Atom  28H    basis set group =>   4
Atom  29H    basis set group =>   4
Atom  30H    basis set group =>   4
Atom  31H    basis set group =>   4
Atom  32H    basis set group =>   4


           ************************************************************
           *        Program running with 16 parallel MPI-processes    *
           *              working on a common directory               *
           ************************************************************
------------------------------------------------------------------------------
                           ORCA GTO INTEGRAL CALCULATION
                           -- RI-GTO INTEGRALS CHOSEN --
------------------------------------------------------------------------------
------------------------------------------------------------------------------
                   ___                                                        
                  /   \      - P O W E R E D   B Y -                         
                 /     \                                                     
                 |  |  |   _    _      __       _____    __    __             
                 |  |  |  | |  | |    /  \     |  _  \  |  |  /  |          
                  \  \/   | |  | |   /    \    | | | |  |  | /  /          
                 / \  \   | |__| |  /  /\  \   | |_| |  |  |/  /          
                |  |  |   |  __  | /  /__\  \  |    /   |      \           
                |  |  |   | |  | | |   __   |  |    \   |  |\   \          
                \     /   | |  | | |  |  |  |  | |\  \  |  | \   \       
                 \___/    |_|  |_| |__|  |__|  |_| \__\ |__|  \__/        
                                                                              
                      - O R C A' S   B I G   F R I E N D -                    
                                      &                                       
                       - I N T E G R A L  F E E D E R -                       
                                                                              
 v1 FN, 2020, v2 2021                                                         
------------------------------------------------------------------------------


Reading SHARK input file epr_info.SHARKINP.tmp ... ok
----------------------
SHARK INTEGRAL PACKAGE
----------------------

Number of atoms                             ...     33
Number of basis functions                   ...    371
Number of shells                            ...    221
Maximum angular momentum                    ...      2
Integral batch strategy                     ... SHARK/LIBINT Hybrid
RI-J (if used) integral strategy            ... SPLIT-RIJ (Revised 2003 algorithm where possible)
Printlevel                                  ...      1
Contraction scheme used                     ... SEGMENTED contraction
Coulomb Range Separation                    ... NOT USED
Exchange Range Separation                   ... NOT USED
Finite Nucleus Model                        ... NOT USED
Auxiliary Coulomb fitting basis             ... AVAILABLE
   # of basis functions in Aux-J            ...   2542
   # of shells in Aux-J                     ...   1034
   Maximum angular momentum in Aux-J        ...      3
Auxiliary J/K fitting basis                 ... AVAILABLE
   # of basis functions in Aux-JK           ...   2542
   # of shells in Aux-JK                    ...   1034
   Maximum angular momentum in Aux-JK       ...      3
Auxiliary Correlation fitting basis         ... AVAILABLE
   # of basis functions in Aux-C            ...   2542
   # of shells in Aux-C                     ...   1034
   Maximum angular momentum in Aux-C        ...      3
Auxiliary 'external' fitting basis          ... NOT available
Integral threshold                          ...     1.000000e-10
Primitive cut-off                           ...     1.000000e-11
Primitive pair pre-selection threshold      ...     1.000000e-11

Calculating pre-screening integrals         ... done (  0.0 sec) Dimension = 221
Organizing shell pair data                  ... done (  0.0 sec)
Shell pair information
Total number of shell pairs                 ...     24531
Shell pairs after pre-screening             ...     15351
Total number of primitive shell pairs       ...     64184
Primitive shell pairs kept                  ...     29123
          la=0 lb=0:   7232 shell pairs
          la=1 lb=0:   5241 shell pairs
          la=1 lb=1:    900 shell pairs
          la=2 lb=0:   1396 shell pairs
          la=2 lb=1:    502 shell pairs
          la=2 lb=2:     80 shell pairs

Calculating one electron integrals          ... done (  0.0 sec)
Calculating RI/J V-Matrix + Cholesky decomp.... done (  0.3 sec)
Calculating RI/JK V-Matrix + Cholesky decomp... done (  0.3 sec)
Calculating RI/C V-Matrix + Cholesky decomp.... done (  0.3 sec)
Calculating Nuclear repulsion               ... done (  0.0 sec) ENN=    930.715169393033 Eh

SHARK setup successfully completed in   1.2 seconds

Maximum memory used throughout the entire GTOINT-calculation: 28.6 MB


           ************************************************************
           *        Program running with 16 parallel MPI-processes    *
           *              working on a common directory               *
           ************************************************************
-------------------------------------------------------------------------------
                                 ORCA SCF
-------------------------------------------------------------------------------

------------
SCF SETTINGS
------------
Hamiltonian:
 Density Functional     Method          .... DFT(GTOs)
 Exchange Functional    Exchange        .... B88
   X-Alpha parameter    XAlpha          ....  0.666667
   Becke's b parameter  XBeta           ....  0.004200
 Correlation Functional Correlation     .... LYP
 LDA part of GGA corr.  LDAOpt          .... VWN-5
 Gradients option       PostSCFGGA      .... off
 Hybrid DFT is turned on
   Fraction HF Exchange ScalHFX         ....  0.200000
   Scaling of DF-GGA-X  ScalDFX         ....  0.720000
   Scaling of DF-GGA-C  ScalDFC         ....  0.810000
   Scaling of DF-LDA-C  ScalLDAC        ....  1.000000
   Perturbative correction              ....  0.000000
   Density functional embedding theory  .... OFF
   NL short-range parameter             ....  4.800000
 RI-approximation to the Coulomb term is turned on
   Number of AuxJ basis functions       .... 2542
   RIJ-COSX (HFX calculated with COS-X)).... on


General Settings:
 Integral files         IntName         .... epr_info
 Hartree-Fock type      HFTyp           .... UHF
 Total Charge           Charge          ....    1
 Multiplicity           Mult            ....    2
 Number of Electrons    NEL             ....  109
 Basis Dimension        Dim             ....  371
 Nuclear Repulsion      ENuc            ....    930.7151693930 Eh

Convergence Acceleration:
 DIIS                   CNVDIIS         .... on
   Start iteration      DIISMaxIt       ....    12
   Startup error        DIISStart       ....  0.200000
   # of expansion vecs  DIISMaxEq       ....     5
   Bias factor          DIISBfac        ....   1.050
   Max. coefficient     DIISMaxC        ....  10.000
 Trust-Rad. Augm. Hess. CNVTRAH         .... auto
   Auto Start mean grad. ratio tolernc. ....  1.125000
   Auto Start start iteration           ....    20
   Auto Start num. interpolation iter.  ....    10
   Max. Number of Micro iterations      ....    16
   Max. Number of Macro iterations      .... Maxiter - #DIIS iter
   Number of Davidson start vectors     ....     2
   Converg. threshold I  (grad. norm)   ....   5.000e-05
   Converg. threshold II (energy diff.) ....   1.000e-06
   Grad. Scal. Fac. for Micro threshold ....   0.100
   Minimum threshold for Micro iter.    ....   0.010
   NR start threshold (gradient norm)   ....   0.001
   Initial trust radius                 ....   0.400
   Minimum AH scaling param. (alpha)    ....   1.000
   Maximum AH scaling param. (alpha)    .... 1000.000
   Orbital update algorithm             .... Taylor
   White noise on init. David. guess    .... on
   Maximum white noise                  ....   0.010
   Quad. conv. algorithm                .... NR
 SOSCF                  CNVSOSCF        .... off
 Level Shifting         CNVShift        .... on
   Level shift para.    LevelShift      ....    0.2500
   Turn off err/grad.   ShiftErr        ....    0.0010
 Zerner damping         CNVZerner       .... off
 Static damping         CNVDamp         .... on
   Fraction old density DampFac         ....    0.7000
   Max. Damping (<1)    DampMax         ....    0.9800
   Min. Damping (>=0)   DampMin         ....    0.0000
   Turn off err/grad.   DampErr         ....    0.1000
 Fernandez-Rico         CNVRico         .... off

SCF Procedure:
 Maximum # iterations   MaxIter         ....   125
 SCF integral mode      SCFMode         .... Direct
   Integral package                     .... SHARK and LIBINT hybrid scheme
 Reset frequency        DirectResetFreq ....    20
 Integral Threshold     Thresh          ....  1.000e-10 Eh
 Primitive CutOff       TCut            ....  1.000e-11 Eh

Convergence Tolerance:
 Convergence Check Mode ConvCheckMode   .... Total+1el-Energy
 Convergence forced     ConvForced      .... 0
 Energy Change          TolE            ....  1.000e-06 Eh
 1-El. energy change                    ....  1.000e-03 Eh
 DIIS Error             TolErr          ....  1.000e-06


Diagonalization of the overlap matrix:
Smallest eigenvalue                        ... 1.075e-03
Time for diagonalization                   ...    0.015 sec
Threshold for overlap eigenvalues          ... 1.000e-08
Number of eigenvalues below threshold      ... 0
Time for construction of square roots      ...    0.011 sec
Total time needed                          ...    0.027 sec

Time for model grid setup =    0.113 sec

------------------------------
INITIAL GUESS: MODEL POTENTIAL
------------------------------
Loading Hartree-Fock densities                     ... done
Calculating cut-offs                               ... done
Initializing the effective Hamiltonian             ... done
Setting up the integral package (SHARK)            ... done
Starting the Coulomb interaction                   ... done (   0.0 sec)
Reading the grid                                   ... done
Mapping shells                                     ... done
Starting the XC term evaluation                    ... done (   0.0 sec)
  promolecular density results
     # of electrons  =    109.995239401
     EX              =    -88.051898406
     EC              =     -3.685713999
     EX+EC           =    -91.737612406
Transforming the Hamiltonian                       ... done (   0.0 sec)
Diagonalizing the Hamiltonian                      ... done (   0.0 sec)
Back transforming the eigenvectors                 ... done (   0.0 sec)
Now organizing SCF variables                       ... done
                      ------------------
                      INITIAL GUESS DONE (   0.3 sec)
                      ------------------
-------------------
DFT GRID GENERATION
-------------------

General Integration Accuracy     IntAcc      ... 4.388
Radial Grid Type                 RadialGrid  ... OptM3 with GC (2021)
Angular Grid (max. ang.)         AngularGrid ... 4 (Lebedev-302)
Angular grid pruning method      GridPruning ... 4 (adaptive)
Weight generation scheme         WeightScheme... Becke
Basis function cutoff            BFCut       ... 1.0000e-10
Integration weight cutoff        WCut        ... 1.0000e-14
Angular grids for H and He will be reduced by one unit
Partially contracted basis set               ... off
Rotationally invariant grid construction     ... off

Total number of grid points                  ...   144847
Total number of batches                      ...     2281
Average number of points per batch           ...       63
Average number of grid points per atom       ...     4389
Time for grid setup =    0.605 sec

--------------------
COSX GRID GENERATION
--------------------

GRIDX 1
-------
General Integration Accuracy     IntAcc      ... 3.816
Radial Grid Type                 RadialGrid  ... OptM3 with GC (2021)
Angular Grid (max. ang.)         AngularGrid ... 1 (Lebedev-50)
Angular grid pruning method      GridPruning ... 4 (adaptive)
Weight generation scheme         WeightScheme... Becke
Basis function cutoff            BFCut       ... 1.0000e-10
Integration weight cutoff        WCut        ... 1.0000e-14
Angular grids for H and He will be reduced by one unit
Partially contracted basis set               ... on
Rotationally invariant grid construction     ... off

Total number of grid points                  ...    18494
Total number of batches                      ...      310
Average number of points per batch           ...       59
Average number of grid points per atom       ...      560
UseSFitting                                  ... on

GRIDX 2
-------
General Integration Accuracy     IntAcc      ... 4.020
Radial Grid Type                 RadialGrid  ... OptM3 with GC (2021)
Angular Grid (max. ang.)         AngularGrid ... 2 (Lebedev-110)
Angular grid pruning method      GridPruning ... 4 (adaptive)
Weight generation scheme         WeightScheme... Becke
Basis function cutoff            BFCut       ... 1.0000e-10
Integration weight cutoff        WCut        ... 1.0000e-14
Angular grids for H and He will be reduced by one unit
Partially contracted basis set               ... on
Rotationally invariant grid construction     ... off

Total number of grid points                  ...    39038
Total number of batches                      ...      627
Average number of points per batch           ...       62
Average number of grid points per atom       ...     1183
UseSFitting                                  ... on

GRIDX 3
-------
General Integration Accuracy     IntAcc      ... 4.338
Radial Grid Type                 RadialGrid  ... OptM3 with GC (2021)
Angular Grid (max. ang.)         AngularGrid ... 3 (Lebedev-194)
Angular grid pruning method      GridPruning ... 4 (adaptive)
Weight generation scheme         WeightScheme... Becke
Basis function cutoff            BFCut       ... 1.0000e-10
Integration weight cutoff        WCut        ... 1.0000e-14
Angular grids for H and He will be reduced by one unit
Partially contracted basis set               ... on
Rotationally invariant grid construction     ... off

Total number of grid points                  ...    85142
Total number of batches                      ...     1350
Average number of points per batch           ...       63
Average number of grid points per atom       ...     2580
UseSFitting                                  ... on

Time for X-Grid setup             =    0.698 sec

--------------
SCF ITERATIONS
--------------
ITER       Energy         Delta-E        Max-DP      RMS-DP      [F,P]     Damp
               ***  Starting incremental Fock matrix formation  ***
  0   -668.1344056561   0.000000000000 0.06401943  0.00088976  0.1304096 0.7000
  1   -668.3487483481  -0.214342691954 0.03701986  0.00062370  0.0504887 0.7000
                               ***Turning on DIIS***
  2   -668.4271549540  -0.078406605948 0.05385426  0.00099011  0.0181315 0.0000
  3   -668.5582104478  -0.131055493824 0.03307335  0.00046041  0.0240874 0.0000
  4   -668.5847858262  -0.026575378324 0.01220575  0.00015895  0.0071580 0.0000
  5   -668.5864695792  -0.001683753018 0.00540135  0.00006104  0.0046581 0.0000
  6   -668.5868164368  -0.000346857636 0.00340891  0.00003739  0.0005792 0.0000
               *** Restarting incremental Fock matrix formation ***
                                   *** Resetting DIIS ***
  7   -668.5868657380  -0.000049301172 0.00178250  0.00001758  0.0006460 0.0000
  8   -668.5868533235   0.000012414513 0.00080644  0.00000704  0.0010308 0.0000
  9   -668.5868742685  -0.000020945065 0.00035032  0.00000402  0.0002517 0.0000
 10   -668.5868759072  -0.000001638624 0.00009350  0.00000121  0.0000572 0.0000
                 **** Energy Check signals convergence ****

               *****************************************************
               *                     SUCCESS                       *
               *           SCF CONVERGED AFTER  11 CYCLES          *
               *****************************************************

Old exchange energy                            =    -17.878605936 Eh
New exchange energy                            =    -17.878553547 Eh
Exchange energy change after final integration =      0.000052389 Eh
Total energy after final integration           =   -668.586823722 Eh
Final COS-X integration done in                =     2.109 sec

----------------
TOTAL SCF ENERGY
----------------

Total Energy       :         -668.58682372 Eh          -18193.17240 eV

Components:
Nuclear Repulsion  :          930.71516939 Eh           25326.04731 eV
Electronic Energy  :        -1599.30199312 Eh          -43519.21971 eV
One Electron Energy:        -2742.09915194 Eh          -74616.31134 eV
Two Electron Energy:         1142.79715882 Eh           31097.09164 eV
Max COSX asymmetry :            0.00000126 Eh               0.00003 eV

Virial components:
Potential Energy   :        -1332.56580531 Eh          -36260.95903 eV
Kinetic Energy     :          663.97898159 Eh           18067.78664 eV
Virial Ratio       :            2.00693974


DFT components:
N(Alpha)           :       55.000123628153 electrons
N(Beta)            :       54.000090731864 electrons
N(Total)           :      109.000214360016 electrons
E(X)               :      -71.010052685500 Eh       
E(C)               :       -4.312618682988 Eh       
E(XC)              :      -75.322671368489 Eh       
DFET-embed. en.    :        0.000000000000 Eh       

---------------
SCF CONVERGENCE
---------------

  Last Energy change         ...   -2.0396e-07  Tolerance :   1.0000e-06
  Last MAX-Density change    ...    0.0000e+00  Tolerance :   1.0000e-05
  Last RMS-Density change    ...    0.0000e+00  Tolerance :   1.0000e-06
  Last DIIS Error            ...    6.7981e-05  Tolerance :   1.0000e-06

             **** THE GBW FILE WAS UPDATED (epr_info.gbw) ****
             **** DENSITY epr_info.scfp WAS UPDATED ****
             **** ENERGY FILE WAS UPDATED (epr_info.en.tmp) ****
----------------------
UHF SPIN CONTAMINATION
----------------------

Warning: in a DFT calculation there is little theoretical justification to 
         calculate <S**2> as in Hartree-Fock theory. We will do it anyways
         but you should keep in mind that the values have only limited relevance

Expectation value of <S**2>     :     0.754083
Ideal value S*(S+1) for S=0.5   :     0.750000
Deviation                       :     0.004083

             **** THE GBW FILE WAS UPDATED (epr_info.gbw) ****
             **** DENSITY epr_info.scfp WAS UPDATED ****
----------------
ORBITAL ENERGIES
----------------
                 SPIN UP ORBITALS
  NO   OCC          E(Eh)            E(eV) 
   0   1.0000     -19.207389      -522.6596 
   1   1.0000     -19.185665      -522.0685 
   2   1.0000     -14.646957      -398.5640 
   3   1.0000     -14.457658      -393.4129 
   4   1.0000     -14.439728      -392.9250 
   5   1.0000     -10.426040      -283.7070 
   6   1.0000     -10.390338      -282.7355 
   7   1.0000     -10.373508      -282.2775 
   8   1.0000     -10.357621      -281.8452 
   9   1.0000     -10.334898      -281.2269 
  10   1.0000     -10.323346      -280.9125 
  11   1.0000     -10.301105      -280.3073 
  12   1.0000     -10.300151      -280.2814 
  13   1.0000     -10.263927      -279.2956 
  14   1.0000      -1.193497       -32.4767 
  15   1.0000      -1.130795       -30.7705 
  16   1.0000      -1.109074       -30.1794 
  17   1.0000      -1.015460       -27.6321 
  18   1.0000      -1.005651       -27.3651 
  19   1.0000      -0.961481       -26.1632 
  20   1.0000      -0.893819       -24.3221 
  21   1.0000      -0.847487       -23.0613 
  22   1.0000      -0.809370       -22.0241 
  23   1.0000      -0.804805       -21.8999 
  24   1.0000      -0.779868       -21.2213 
  25   1.0000      -0.777648       -21.1609 
  26   1.0000      -0.747335       -20.3360 
  27   1.0000      -0.708496       -19.2791 
  28   1.0000      -0.680298       -18.5119 
  29   1.0000      -0.674343       -18.3498 
  30   1.0000      -0.656094       -17.8532 
  31   1.0000      -0.628822       -17.1111 
  32   1.0000      -0.622455       -16.9379 
  33   1.0000      -0.584776       -15.9126 
  34   1.0000      -0.575503       -15.6602 
  35   1.0000      -0.556121       -15.1328 
  36   1.0000      -0.553041       -15.0490 
  37   1.0000      -0.544811       -14.8251 
  38   1.0000      -0.538610       -14.6563 
  39   1.0000      -0.530919       -14.4471 
  40   1.0000      -0.525338       -14.2952 
  41   1.0000      -0.510423       -13.8893 
  42   1.0000      -0.498345       -13.5607 
  43   1.0000      -0.491830       -13.3834 
  44   1.0000      -0.480445       -13.0736 
  45   1.0000      -0.478910       -13.0318 
  46   1.0000      -0.471215       -12.8224 
  47   1.0000      -0.467600       -12.7240 
  48   1.0000      -0.457062       -12.4373 
  49   1.0000      -0.428980       -11.6731 
  50   1.0000      -0.358313        -9.7502 
  51   1.0000      -0.353341        -9.6149 
  52   1.0000      -0.339032        -9.2255 
  53   1.0000      -0.333070        -9.0633 
  54   1.0000      -0.315203        -8.5771 
  55   0.0000      -0.185628        -5.0512 
  56   0.0000      -0.114797        -3.1238 
  57   0.0000      -0.111036        -3.0214 
  58   0.0000      -0.084538        -2.3004 
  59   0.0000      -0.082041        -2.2324 
  60   0.0000      -0.069058        -1.8792 
  61   0.0000      -0.066099        -1.7986 
  62   0.0000      -0.055320        -1.5053 
  63   0.0000      -0.051531        -1.4022 
  64   0.0000      -0.046284        -1.2595 
  65   0.0000      -0.040786        -1.1098 
  66   0.0000      -0.025527        -0.6946 
  67   0.0000      -0.021211        -0.5772 
  68   0.0000      -0.006197        -0.1686 
  69   0.0000      -0.002478        -0.0674 
  70   0.0000       0.012439         0.3385 
  71   0.0000       0.029128         0.7926 
  72   0.0000       0.033762         0.9187 
  73   0.0000       0.037001         1.0069 
  74   0.0000       0.040658         1.1063 
  75   0.0000       0.050789         1.3821 
  76   0.0000       0.062453         1.6994 
  77   0.0000       0.065613         1.7854 
  78   0.0000       0.072323         1.9680 
  79   0.0000       0.074536         2.0282 
  80   0.0000       0.087353         2.3770 
  81   0.0000       0.095783         2.6064 
  82   0.0000       0.100019         2.7217 
  83   0.0000       0.105173         2.8619 
  84   0.0000       0.112026         3.0484 
  85   0.0000       0.115700         3.1484 
  86   0.0000       0.124770         3.3952 
  87   0.0000       0.131983         3.5914 
  88   0.0000       0.134865         3.6699 
  89   0.0000       0.139856         3.8057 
  90   0.0000       0.153350         4.1729 
  91   0.0000       0.160388         4.3644 
  92   0.0000       0.165320         4.4986 
  93   0.0000       0.172415         4.6917 
  94   0.0000       0.179274         4.8783 
  95   0.0000       0.184697         5.0259 
  96   0.0000       0.186551         5.0763 
  97   0.0000       0.196179         5.3383 
  98   0.0000       0.200544         5.4571 
  99   0.0000       0.205739         5.5985 
 100   0.0000       0.213935         5.8215 
 101   0.0000       0.218263         5.9392 
 102   0.0000       0.228401         6.2151 
 103   0.0000       0.233665         6.3583 
 104   0.0000       0.237307         6.4574 
 105   0.0000       0.244316         6.6482 
 106   0.0000       0.252674         6.8756 
 107   0.0000       0.262453         7.1417 
 108   0.0000       0.267445         7.2775 
 109   0.0000       0.280076         7.6213 
 110   0.0000       0.286730         7.8023 
 111   0.0000       0.292327         7.9546 
 112   0.0000       0.314148         8.5484 
 113   0.0000       0.321532         8.7493 
 114   0.0000       0.324118         8.8197 
 115   0.0000       0.330842         9.0027 
 116   0.0000       0.339784         9.2460 
 117   0.0000       0.355537         9.6747 
 118   0.0000       0.366482         9.9725 
 119   0.0000       0.375466        10.2170 
 120   0.0000       0.388852        10.5812 
 121   0.0000       0.397396        10.8137 
 122   0.0000       0.401766        10.9326 
 123   0.0000       0.408373        11.1124 
 124   0.0000       0.419154        11.4057 
 125   0.0000       0.435162        11.8413 
 126   0.0000       0.447245        12.1702 
 127   0.0000       0.468806        12.7568 
 128   0.0000       0.471290        12.8245 
 129   0.0000       0.487926        13.2771 
 130   0.0000       0.493719        13.4348 
 131   0.0000       0.514708        14.0059 
 132   0.0000       0.532842        14.4994 
 133   0.0000       0.539820        14.6893 
 134   0.0000       0.552311        15.0291 
 135   0.0000       0.570367        15.5205 
 136   0.0000       0.594647        16.1812 
 137   0.0000       0.609206        16.5773 
 138   0.0000       0.615818        16.7572 
 139   0.0000       0.639644        17.4056 
 140   0.0000       0.653986        17.7959 
 141   0.0000       0.659038        17.9333 
 142   0.0000       0.685963        18.6660 
 143   0.0000       0.692687        18.8490 
 144   0.0000       0.700653        19.0657 
 145   0.0000       0.714209        19.4346 
 146   0.0000       0.721251        19.6262 
 147   0.0000       0.741060        20.1653 
 148   0.0000       0.751802        20.4576 
 149   0.0000       0.753608        20.5067 
 150   0.0000       0.761306        20.7162 
 151   0.0000       0.767316        20.8797 
 152   0.0000       0.768376        20.9086 
 153   0.0000       0.777882        21.1672 
 154   0.0000       0.783385        21.3170 
 155   0.0000       0.789273        21.4772 
 156   0.0000       0.798351        21.7242 
 157   0.0000       0.799370        21.7520 
 158   0.0000       0.813171        22.1275 
 159   0.0000       0.826915        22.5015 
 160   0.0000       0.835511        22.7354 
 161   0.0000       0.844717        22.9859 
 162   0.0000       0.849741        23.1226 
 163   0.0000       0.854089        23.2410 
 164   0.0000       0.867027        23.5930 
 165   0.0000       0.871018        23.7016 
 166   0.0000       0.889329        24.1999 
 167   0.0000       0.901371        24.5276 
 168   0.0000       0.904449        24.6113 
 169   0.0000       0.913128        24.8475 
 170   0.0000       0.929650        25.2971 
 171   0.0000       0.943014        25.6607 
 172   0.0000       0.953707        25.9517 
 173   0.0000       0.966638        26.3036 
 174   0.0000       0.971866        26.4458 
 175   0.0000       0.987743        26.8779 
 176   0.0000       1.007115        27.4050 
 177   0.0000       1.015609        27.6361 
 178   0.0000       1.030414        28.0390 
 179   0.0000       1.047624        28.5073 
 180   0.0000       1.065009        28.9804 
 181   0.0000       1.075485        29.2654 
 182   0.0000       1.095763        29.8172 
 183   0.0000       1.104329        30.0503 
 184   0.0000       1.118154        30.4265 
 185   0.0000       1.124994        30.6127 
 186   0.0000       1.137687        30.9580 
 187   0.0000       1.145152        31.1612 
 188   0.0000       1.160067        31.5670 
 189   0.0000       1.191046        32.4100 
 190   0.0000       1.207643        32.8616 
 191   0.0000       1.213176        33.0122 
 192   0.0000       1.232070        33.5263 
 193   0.0000       1.259130        34.2627 
 194   0.0000       1.273776        34.6612 
 195   0.0000       1.286548        35.0087 
 196   0.0000       1.302161        35.4336 
 197   0.0000       1.311917        35.6991 
 198   0.0000       1.322444        35.9855 
 199   0.0000       1.333418        36.2842 
 200   0.0000       1.335459        36.3397 
 201   0.0000       1.338140        36.4126 
 202   0.0000       1.368054        37.2266 
 203   0.0000       1.390811        37.8459 
 204   0.0000       1.406012        38.2595 
 205   0.0000       1.409514        38.3548 
 206   0.0000       1.416666        38.5494 
 207   0.0000       1.421412        38.6786 
 208   0.0000       1.432241        38.9733 
 209   0.0000       1.446686        39.3663 
 210   0.0000       1.458463        39.6868 
 211   0.0000       1.462569        39.7985 
 212   0.0000       1.472061        40.0568 
 213   0.0000       1.484576        40.3974 
 214   0.0000       1.489711        40.5371 
 215   0.0000       1.496088        40.7106 
 216   0.0000       1.510909        41.1139 
 217   0.0000       1.521394        41.3992 
 218   0.0000       1.526069        41.5264 
 219   0.0000       1.540370        41.9156 
 220   0.0000       1.551616        42.2216 
 221   0.0000       1.560537        42.4644 
 222   0.0000       1.581204        43.0267 
 223   0.0000       1.590197        43.2714 
 224   0.0000       1.595741        43.4223 
 225   0.0000       1.600756        43.5588 
 226   0.0000       1.609431        43.7949 
 227   0.0000       1.620731        44.1023 
 228   0.0000       1.638132        44.5758 
 229   0.0000       1.656446        45.0742 
 230   0.0000       1.662904        45.2499 
 231   0.0000       1.667377        45.3716 
 232   0.0000       1.683877        45.8206 
 233   0.0000       1.698389        46.2155 
 234   0.0000       1.706548        46.4375 
 235   0.0000       1.709644        46.5218 
 236   0.0000       1.727486        47.0073 
 237   0.0000       1.750548        47.6348 
 238   0.0000       1.752338        47.6835 
 239   0.0000       1.763609        47.9903 
 240   0.0000       1.773480        48.2588 
 241   0.0000       1.801710        49.0270 
 242   0.0000       1.811889        49.3040 
 243   0.0000       1.828167        49.7470 
 244   0.0000       1.877726        51.0955 
 245   0.0000       1.907520        51.9063 
 246   0.0000       1.911590        52.0170 
 247   0.0000       1.926012        52.4094 
 248   0.0000       1.934319        52.6355 
 249   0.0000       1.952090        53.1191 
 250   0.0000       1.957301        53.2609 
 251   0.0000       1.977884        53.8210 
 252   0.0000       1.984994        54.0144 
 253   0.0000       1.997805        54.3630 
 254   0.0000       2.013451        54.7888 
 255   0.0000       2.042048        55.5669 
 256   0.0000       2.075920        56.4887 
 257   0.0000       2.088493        56.8308 
 258   0.0000       2.097768        57.0832 
 259   0.0000       2.106531        57.3216 
 260   0.0000       2.123985        57.7966 
 261   0.0000       2.145875        58.3922 
 262   0.0000       2.166740        58.9600 
 263   0.0000       2.190424        59.6045 
 264   0.0000       2.196600        59.7725 
 265   0.0000       2.217248        60.3344 
 266   0.0000       2.221785        60.4578 
 267   0.0000       2.246326        61.1256 
 268   0.0000       2.253136        61.3110 
 269   0.0000       2.271479        61.8101 
 270   0.0000       2.275787        61.9273 
 271   0.0000       2.289465        62.2995 
 272   0.0000       2.294441        62.4349 
 273   0.0000       2.316753        63.0421 
 274   0.0000       2.320661        63.1484 
 275   0.0000       2.345318        63.8193 
 276   0.0000       2.349576        63.9352 
 277   0.0000       2.362615        64.2900 
 278   0.0000       2.366273        64.3896 
 279   0.0000       2.394719        65.1636 
 280   0.0000       2.403072        65.3909 
 281   0.0000       2.414481        65.7014 
 282   0.0000       2.427431        66.0537 
 283   0.0000       2.431978        66.1775 
 284   0.0000       2.442959        66.4763 
 285   0.0000       2.465508        67.0899 
 286   0.0000       2.521975        68.6264 
 287   0.0000       2.535111        68.9839 
 288   0.0000       2.557011        69.5798 
 289   0.0000       2.582372        70.2699 
 290   0.0000       2.602143        70.8079 
 291   0.0000       2.621015        71.3214 
 292   0.0000       2.637203        71.7619 
 293   0.0000       2.663526        72.4782 
 294   0.0000       2.673907        72.7607 
 295   0.0000       2.697727        73.4089 
 296   0.0000       2.737915        74.5025 
 297   0.0000       2.902052        78.9688 
 298   0.0000       2.940393        80.0122 
 299   0.0000       3.010868        81.9299 
 300   0.0000       3.024108        82.2902 
 301   0.0000       3.271587        89.0244 
 302   0.0000       3.333332        90.7046 
 303   0.0000       3.347758        91.0971 
 304   0.0000       3.354808        91.2890 
 305   0.0000       4.633363       126.0802 
 306   0.0000       4.684770       127.4791 
 307   0.0000       4.824036       131.2687 
 308   0.0000       4.864773       132.3772 
 309   0.0000       4.897287       133.2620 
 310   0.0000       4.905761       133.4925 
 311   0.0000       4.914032       133.7176 
 312   0.0000       4.935963       134.3144 
 313   0.0000       4.942375       134.4889 
 314   0.0000       4.949587       134.6851 
 315   0.0000       4.981305       135.5482 
 316   0.0000       5.033909       136.9796 
 317   0.0000       5.041042       137.1737 
 318   0.0000       5.067920       137.9051 
 319   0.0000       5.093503       138.6013 
 320   0.0000       5.117252       139.2475 
 321   0.0000       5.158038       140.3574 
 322   0.0000       5.175862       140.8424 
 323   0.0000       5.204148       141.6121 
 324   0.0000       5.225085       142.1818 
 325   0.0000       5.257655       143.0681 
 326   0.0000       5.284026       143.7857 
 327   0.0000       5.303048       144.3033 
 328   0.0000       5.481489       149.1589 
 329   0.0000       5.539833       150.7465 
 330   0.0000       5.594756       152.2411 
 331   0.0000       5.639637       153.4623 
 332   0.0000       5.728617       155.8836 
 333   0.0000       6.997508       190.4119 
 334   0.0000       7.223834       196.5705 
 335   0.0000       7.234953       196.8731 
 336   0.0000       8.994211       244.7449 
 337   0.0000       9.025933       245.6081 
 338   0.0000      29.467045       801.8391 
 339   0.0000      29.539471       803.8099 
 340   0.0000      29.628097       806.2215 
 341   0.0000      29.710898       808.4746 
 342   0.0000      29.818202       811.3945 
 343   0.0000      29.949366       814.9637 
 344   0.0000      30.001847       816.3918 
 345   0.0000      30.013585       816.7112 
 346   0.0000      30.136401       820.0531 
 347   0.0000      36.238092       986.0886 
 348   0.0000      36.275285       987.1007 
 349   0.0000      36.440674       991.6011 
 350   0.0000      36.486259       992.8416 
 351   0.0000      36.526934       993.9484 
 352   0.0000      36.533672       994.1318 
 353   0.0000      36.541787       994.3526 
 354   0.0000      36.553912       994.6825 
 355   0.0000      36.560549       994.8631 
 356   0.0000      36.585155       995.5327 
 357   0.0000      36.625191       996.6221 
 358   0.0000      36.638744       996.9909 
 359   0.0000      36.653259       997.3859 
 360   0.0000      36.693452       998.4796 
 361   0.0000      36.712637       999.0016 
 362   0.0000      36.749503      1000.0048 
 363   0.0000      36.798004      1001.3246 
 364   0.0000      36.821148      1001.9544 
 365   0.0000      36.846535      1002.6452 
 366   0.0000      40.928373      1113.7177 
 367   0.0000      41.158294      1119.9741 
 368   0.0000      41.179797      1120.5592 
 369   0.0000      53.530836      1456.6481 
 370   0.0000      53.559768      1457.4354 

                 SPIN DOWN ORBITALS
  NO   OCC          E(Eh)            E(eV) 
   0   1.0000     -19.207325      -522.6579 
   1   1.0000     -19.185574      -522.0660 
   2   1.0000     -14.646899      -398.5624 
   3   1.0000     -14.457667      -393.4131 
   4   1.0000     -14.439622      -392.9221 
   5   1.0000     -10.425652      -283.6964 
   6   1.0000     -10.390346      -282.7357 
   7   1.0000     -10.373523      -282.2779 
   8   1.0000     -10.358536      -281.8701 
   9   1.0000     -10.334800      -281.2242 
  10   1.0000     -10.309472      -280.5350 
  11   1.0000     -10.301874      -280.3282 
  12   1.0000     -10.300151      -280.2814 
  13   1.0000     -10.263925      -279.2956 
  14   1.0000      -1.193305       -32.4715 
  15   1.0000      -1.130690       -30.7676 
  16   1.0000      -1.108930       -30.1755 
  17   1.0000      -1.015446       -27.6317 
  18   1.0000      -1.005179       -27.3523 
  19   1.0000      -0.955695       -26.0058 
  20   1.0000      -0.886991       -24.1363 
  21   1.0000      -0.842354       -22.9216 
  22   1.0000      -0.808776       -22.0079 
  23   1.0000      -0.803878       -21.8746 
  24   1.0000      -0.779676       -21.2161 
  25   1.0000      -0.775393       -21.0995 
  26   1.0000      -0.745014       -20.2729 
  27   1.0000      -0.696410       -18.9503 
  28   1.0000      -0.680229       -18.5100 
  29   1.0000      -0.673211       -18.3190 
  30   1.0000      -0.651296       -17.7227 
  31   1.0000      -0.625432       -17.0189 
  32   1.0000      -0.621669       -16.9165 
  33   1.0000      -0.581998       -15.8370 
  34   1.0000      -0.572772       -15.5859 
  35   1.0000      -0.553897       -15.0723 
  36   1.0000      -0.549241       -14.9456 
  37   1.0000      -0.542167       -14.7531 
  38   1.0000      -0.536847       -14.6083 
  39   1.0000      -0.528737       -14.3877 
  40   1.0000      -0.522825       -14.2268 
  41   1.0000      -0.506064       -13.7707 
  42   1.0000      -0.495140       -13.4734 
  43   1.0000      -0.489131       -13.3099 
  44   1.0000      -0.479697       -13.0532 
  45   1.0000      -0.477538       -12.9945 
  46   1.0000      -0.470021       -12.7899 
  47   1.0000      -0.464877       -12.6499 
  48   1.0000      -0.456262       -12.4155 
  49   1.0000      -0.428351       -11.6560 
  50   1.0000      -0.357991        -9.7414 
  51   1.0000      -0.352999        -9.6056 
  52   1.0000      -0.337484        -9.1834 
  53   1.0000      -0.331331        -9.0160 
  54   0.0000      -0.185417        -5.0454 
  55   0.0000      -0.175249        -4.7688 
  56   0.0000      -0.113670        -3.0931 
  57   0.0000      -0.110036        -2.9942 
  58   0.0000      -0.084322        -2.2945 
  59   0.0000      -0.081767        -2.2250 
  60   0.0000      -0.068788        -1.8718 
  61   0.0000      -0.065739        -1.7889 
  62   0.0000      -0.055128        -1.5001 
  63   0.0000      -0.050665        -1.3787 
  64   0.0000      -0.044073        -1.1993 
  65   0.0000      -0.040425        -1.1000 
  66   0.0000      -0.023454        -0.6382 
  67   0.0000      -0.019752        -0.5375 
  68   0.0000      -0.006021        -0.1638 
  69   0.0000      -0.002163        -0.0589 
  70   0.0000       0.014822         0.4033 
  71   0.0000       0.030247         0.8231 
  72   0.0000       0.035619         0.9692 
  73   0.0000       0.038895         1.0584 
  74   0.0000       0.042443         1.1549 
  75   0.0000       0.055166         1.5011 
  76   0.0000       0.065212         1.7745 
  77   0.0000       0.066913         1.8208 
  78   0.0000       0.072945         1.9849 
  79   0.0000       0.076540         2.0828 
  80   0.0000       0.088182         2.3996 
  81   0.0000       0.097411         2.6507 
  82   0.0000       0.101257         2.7553 
  83   0.0000       0.105780         2.8784 
  84   0.0000       0.112399         3.0585 
  85   0.0000       0.116578         3.1723 
  86   0.0000       0.125006         3.4016 
  87   0.0000       0.132904         3.6165 
  88   0.0000       0.138710         3.7745 
  89   0.0000       0.142431         3.8758 
  90   0.0000       0.154521         4.2047 
  91   0.0000       0.163191         4.4406 
  92   0.0000       0.168576         4.5872 
  93   0.0000       0.174039         4.7358 
  94   0.0000       0.181815         4.9474 
  95   0.0000       0.187014         5.0889 
  96   0.0000       0.191756         5.2179 
  97   0.0000       0.198946         5.4136 
  98   0.0000       0.204518         5.5652 
  99   0.0000       0.207456         5.6452 
 100   0.0000       0.216296         5.8857 
 101   0.0000       0.219257         5.9663 
 102   0.0000       0.230712         6.2780 
 103   0.0000       0.234857         6.3908 
 104   0.0000       0.238018         6.4768 
 105   0.0000       0.246884         6.7180 
 106   0.0000       0.254185         6.9167 
 107   0.0000       0.264774         7.2049 
 108   0.0000       0.269732         7.3398 
 109   0.0000       0.283234         7.7072 
 110   0.0000       0.289172         7.8688 
 111   0.0000       0.294005         8.0003 
 112   0.0000       0.317541         8.6407 
 113   0.0000       0.321952         8.7608 
 114   0.0000       0.325761         8.8644 
 115   0.0000       0.336596         9.1593 
 116   0.0000       0.346037         9.4161 
 117   0.0000       0.356609         9.7038 
 118   0.0000       0.367818        10.0088 
 119   0.0000       0.378528        10.3003 
 120   0.0000       0.389874        10.6090 
 121   0.0000       0.398435        10.8420 
 122   0.0000       0.405476        11.0336 
 123   0.0000       0.415186        11.2978 
 124   0.0000       0.420986        11.4556 
 125   0.0000       0.440254        11.9799 
 126   0.0000       0.450422        12.2566 
 127   0.0000       0.469216        12.7680 
 128   0.0000       0.472521        12.8579 
 129   0.0000       0.489983        13.3331 
 130   0.0000       0.497711        13.5434 
 131   0.0000       0.516443        14.0531 
 132   0.0000       0.534079        14.5330 
 133   0.0000       0.540163        14.6986 
 134   0.0000       0.552772        15.0417 
 135   0.0000       0.571696        15.5566 
 136   0.0000       0.596264        16.2252 
 137   0.0000       0.610633        16.6162 
 138   0.0000       0.620203        16.8766 
 139   0.0000       0.642430        17.4814 
 140   0.0000       0.656076        17.8527 
 141   0.0000       0.660996        17.9866 
 142   0.0000       0.687518        18.7083 
 143   0.0000       0.694969        18.9111 
 144   0.0000       0.708167        19.2702 
 145   0.0000       0.715387        19.4667 
 146   0.0000       0.722950        19.6725 
 147   0.0000       0.743224        20.2242 
 148   0.0000       0.753608        20.5067 
 149   0.0000       0.755319        20.5533 
 150   0.0000       0.761586        20.7238 
 151   0.0000       0.768189        20.9035 
 152   0.0000       0.770343        20.9621 
 153   0.0000       0.779902        21.2222 
 154   0.0000       0.784834        21.3564 
 155   0.0000       0.790985        21.5238 
 156   0.0000       0.799632        21.7591 
 157   0.0000       0.800981        21.7958 
 158   0.0000       0.814105        22.1529 
 159   0.0000       0.829101        22.5610 
 160   0.0000       0.837534        22.7905 
 161   0.0000       0.846024        23.0215 
 162   0.0000       0.855098        23.2684 
 163   0.0000       0.855840        23.2886 
 164   0.0000       0.868838        23.6423 
 165   0.0000       0.872680        23.7468 
 166   0.0000       0.891825        24.2678 
 167   0.0000       0.902749        24.5651 
 168   0.0000       0.906489        24.6668 
 169   0.0000       0.915226        24.9046 
 170   0.0000       0.932207        25.3667 
 171   0.0000       0.947489        25.7825 
 172   0.0000       0.954753        25.9802 
 173   0.0000       0.968311        26.3491 
 174   0.0000       0.974604        26.5203 
 175   0.0000       0.990372        26.9494 
 176   0.0000       1.010312        27.4920 
 177   0.0000       1.017025        27.6747 
 178   0.0000       1.032788        28.1036 
 179   0.0000       1.049268        28.5520 
 180   0.0000       1.067158        29.0388 
 181   0.0000       1.077314        29.3152 
 182   0.0000       1.098431        29.8898 
 183   0.0000       1.105915        30.0935 
 184   0.0000       1.119145        30.4535 
 185   0.0000       1.125433        30.6246 
 186   0.0000       1.142456        31.0878 
 187   0.0000       1.149115        31.2690 
 188   0.0000       1.161364        31.6023 
 189   0.0000       1.197617        32.5888 
 190   0.0000       1.209001        32.8986 
 191   0.0000       1.217377        33.1265 
 192   0.0000       1.238054        33.6892 
 193   0.0000       1.260648        34.3040 
 194   0.0000       1.275956        34.7205 
 195   0.0000       1.288388        35.0588 
 196   0.0000       1.311119        35.6774 
 197   0.0000       1.320400        35.9299 
 198   0.0000       1.325281        36.0627 
 199   0.0000       1.335778        36.3484 
 200   0.0000       1.336840        36.3773 
 201   0.0000       1.338491        36.4222 
 202   0.0000       1.369486        37.2656 
 203   0.0000       1.393285        37.9132 
 204   0.0000       1.406738        38.2793 
 205   0.0000       1.410006        38.3682 
 206   0.0000       1.418145        38.5897 
 207   0.0000       1.426110        38.8064 
 208   0.0000       1.432821        38.9890 
 209   0.0000       1.450305        39.4648 
 210   0.0000       1.459261        39.7085 
 211   0.0000       1.465666        39.8828 
 212   0.0000       1.474139        40.1134 
 213   0.0000       1.486241        40.4427 
 214   0.0000       1.490506        40.5587 
 215   0.0000       1.497190        40.7406 
 216   0.0000       1.513468        41.1836 
 217   0.0000       1.523000        41.4429 
 218   0.0000       1.527739        41.5719 
 219   0.0000       1.543428        41.9988 
 220   0.0000       1.553929        42.2846 
 221   0.0000       1.562854        42.5274 
 222   0.0000       1.586235        43.1636 
 223   0.0000       1.591677        43.3117 
 224   0.0000       1.598199        43.4892 
 225   0.0000       1.605675        43.6926 
 226   0.0000       1.611262        43.8447 
 227   0.0000       1.623507        44.1779 
 228   0.0000       1.640260        44.6337 
 229   0.0000       1.659596        45.1599 
 230   0.0000       1.665414        45.3182 
 231   0.0000       1.670433        45.4548 
 232   0.0000       1.687050        45.9070 
 233   0.0000       1.698718        46.2245 
 234   0.0000       1.710021        46.5320 
 235   0.0000       1.714606        46.6568 
 236   0.0000       1.728327        47.0302 
 237   0.0000       1.752146        47.6783 
 238   0.0000       1.755008        47.7562 
 239   0.0000       1.768058        48.1113 
 240   0.0000       1.777140        48.3585 
 241   0.0000       1.803137        49.0658 
 242   0.0000       1.812544        49.3218 
 243   0.0000       1.831250        49.8309 
 244   0.0000       1.879788        51.1516 
 245   0.0000       1.912178        52.0330 
 246   0.0000       1.913864        52.0789 
 247   0.0000       1.933350        52.6091 
 248   0.0000       1.936198        52.6866 
 249   0.0000       1.953824        53.1663 
 250   0.0000       1.958634        53.2972 
 251   0.0000       1.978749        53.8445 
 252   0.0000       1.986015        54.0422 
 253   0.0000       1.999626        54.4126 
 254   0.0000       2.016737        54.8782 
 255   0.0000       2.044836        55.6428 
 256   0.0000       2.079381        56.5828 
 257   0.0000       2.090434        56.8836 
 258   0.0000       2.098188        57.0946 
 259   0.0000       2.108509        57.3754 
 260   0.0000       2.126088        57.8538 
 261   0.0000       2.147958        58.4489 
 262   0.0000       2.168666        59.0124 
 263   0.0000       2.192693        59.6662 
 264   0.0000       2.197663        59.8015 
 265   0.0000       2.218214        60.3607 
 266   0.0000       2.223128        60.4944 
 267   0.0000       2.248638        61.1886 
 268   0.0000       2.255264        61.3689 
 269   0.0000       2.272196        61.8296 
 270   0.0000       2.277038        61.9614 
 271   0.0000       2.292672        62.3868 
 272   0.0000       2.296782        62.4986 
 273   0.0000       2.317036        63.0497 
 274   0.0000       2.321681        63.1762 
 275   0.0000       2.345746        63.8310 
 276   0.0000       2.352573        64.0168 
 277   0.0000       2.364301        64.3359 
 278   0.0000       2.366960        64.4082 
 279   0.0000       2.396065        65.2002 
 280   0.0000       2.404296        65.4242 
 281   0.0000       2.415412        65.7267 
 282   0.0000       2.428610        66.0858 
 283   0.0000       2.433306        66.2136 
 284   0.0000       2.446449        66.5713 
 285   0.0000       2.466779        67.1245 
 286   0.0000       2.523752        68.6748 
 287   0.0000       2.535455        68.9932 
 288   0.0000       2.557667        69.5976 
 289   0.0000       2.583125        70.2904 
 290   0.0000       2.603204        70.8368 
 291   0.0000       2.622535        71.3628 
 292   0.0000       2.637943        71.7821 
 293   0.0000       2.664237        72.4976 
 294   0.0000       2.674192        72.7685 
 295   0.0000       2.697941        73.4147 
 296   0.0000       2.738080        74.5069 
 297   0.0000       2.902217        78.9733 
 298   0.0000       2.940527        80.0158 
 299   0.0000       3.011035        81.9344 
 300   0.0000       3.024251        82.2940 
 301   0.0000       3.271644        89.0260 
 302   0.0000       3.333422        90.7070 
 303   0.0000       3.347845        91.0995 
 304   0.0000       3.354914        91.2918 
 305   0.0000       4.633383       126.0808 
 306   0.0000       4.684908       127.4828 
 307   0.0000       4.824219       131.2737 
 308   0.0000       4.872987       132.6007 
 309   0.0000       4.899135       133.3122 
 310   0.0000       4.906712       133.5184 
 311   0.0000       4.914100       133.7194 
 312   0.0000       4.937851       134.3658 
 313   0.0000       4.943480       134.5189 
 314   0.0000       4.959285       134.9490 
 315   0.0000       4.983694       135.6132 
 316   0.0000       5.037569       137.0792 
 317   0.0000       5.041355       137.1822 
 318   0.0000       5.067651       137.8978 
 319   0.0000       5.095609       138.6586 
 320   0.0000       5.118213       139.2736 
 321   0.0000       5.158901       140.3808 
 322   0.0000       5.179630       140.9449 
 323   0.0000       5.206638       141.6798 
 324   0.0000       5.227655       142.2517 
 325   0.0000       5.262694       143.2052 
 326   0.0000       5.284447       143.7971 
 327   0.0000       5.310513       144.5064 
 328   0.0000       5.482797       149.1945 
 329   0.0000       5.539659       150.7418 
 330   0.0000       5.597461       152.3147 
 331   0.0000       5.640431       153.4839 
 332   0.0000       5.734774       156.0511 
 333   0.0000       6.997679       190.4165 
 334   0.0000       7.224056       196.5766 
 335   0.0000       7.234959       196.8732 
 336   0.0000       8.994390       244.7498 
 337   0.0000       9.026079       245.6121 
 338   0.0000      29.471915       801.9716 
 339   0.0000      29.539966       803.8233 
 340   0.0000      29.629131       806.2497 
 341   0.0000      29.718324       808.6767 
 342   0.0000      29.818793       811.4106 
 343   0.0000      29.949226       814.9599 
 344   0.0000      30.001725       816.3884 
 345   0.0000      30.015862       816.7731 
 346   0.0000      30.138992       820.1237 
 347   0.0000      36.238104       986.0889 
 348   0.0000      36.275193       987.0982 
 349   0.0000      36.440434       991.5946 
 350   0.0000      36.499842       993.2112 
 351   0.0000      36.526930       993.9483 
 352   0.0000      36.533856       994.1368 
 353   0.0000      36.542619       994.3752 
 354   0.0000      36.560578       994.8639 
 355   0.0000      36.567203       995.0442 
 356   0.0000      36.587681       995.6014 
 357   0.0000      36.625424       996.6284 
 358   0.0000      36.640393       997.0358 
 359   0.0000      36.654215       997.4119 
 360   0.0000      36.687934       998.3294 
 361   0.0000      36.712993       999.0113 
 362   0.0000      36.759026      1000.2640 
 363   0.0000      36.806382      1001.5526 
 364   0.0000      36.824355      1002.0417 
 365   0.0000      36.846600      1002.6470 
 366   0.0000      40.928449      1113.7197 
 367   0.0000      41.158423      1119.9776 
 368   0.0000      41.179789      1120.5590 
 369   0.0000      53.530933      1456.6508 
 370   0.0000      53.559849      1457.4376 

                    ********************************
                    * MULLIKEN POPULATION ANALYSIS *
                    ********************************

--------------------------------------------
MULLIKEN ATOMIC CHARGES AND SPIN POPULATIONS
--------------------------------------------
   0 N :   -0.120197    0.004545
   1 C :   -0.115249    0.005968
   2 C :    0.084874   -0.000898
   3 O :   -0.332068    0.002204
   4 C :   -0.288517   -0.065657
   5 C :   -0.090721    0.997654
   6 C :   -0.268910   -0.050836
   7 C :   -0.281623    0.013287
   8 N :   -0.371683    0.000882
   9 H :    0.163517   -0.048190
  10 H :    0.162790    0.053195
  11 H :    0.164858    0.013767
  12 H :    0.224530    0.000766
  13 H :    0.221653   -0.000833
  14 H :    0.335263   -0.000315
  15 H :    0.334497    0.001102
  16 H :    0.255751    0.000143
  17 C :    0.177847   -0.001993
  18 N :   -0.104184    0.000073
  19 H :    0.237969   -0.000003
  20 O :   -0.318341    0.002633
  21 H :    0.335404    0.000014
  22 C :   -0.447978   -0.000018
  23 H :    0.181595   -0.000019
  24 H :    0.165709    0.000002
  25 H :    0.198130    0.000026
  26 C :   -0.545321    0.000376
  27 H :    0.184478   -0.000008
  28 H :    0.200104   -0.000041
  29 H :    0.150106    0.000042
  30 H :    0.152288   -0.001206
  31 H :    0.155490    0.044437
  32 H :    0.197937    0.028902
Sum of atomic charges         :    1.0000000
Sum of atomic spin populations:    1.0000000

-----------------------------------------------------
MULLIKEN REDUCED ORBITAL CHARGES AND SPIN POPULATIONS
-----------------------------------------------------
CHARGE
[...]
                -0.5139              -1.1069              -0.5627

 A(FC)          -0.0329              -0.0329              -0.0329
 A(SD)          -1.0023              -1.1270               2.1293
 A(ORB+DIA)     -0.0007              -0.0001               0.0007    A(PC) =  -0.0001
 A(ORB)         -0.0007               0.0001               0.0005    A(PC) =  -0.0000
 A(DIA)         -0.0001              -0.0002               0.0002    A(PC) =  -0.0000
             ----------           ----------           ----------
 A(Tot)         -1.0359              -1.1600               2.0971    A(iso)=   -0.0329
 Orientation: 
  X           0.6794483            0.6463475           -0.3472534
  Y          -0.5316586            0.1075357           -0.8401043
  Z          -0.5056572            0.7554277            0.4167011

Notes:  (1) The A matrix conforms to the "SAI" spin Hamiltonian convention.
        (2) Tensor is right-handed.

 -----------------------------------------------------------
 Nucleus  30H : A:ISTP=    1 I=  0.5 P=533.5514 MHz/au**3
                Q:ISTP=    2 I=  1.0 Q=  0.0029 barn     
 -----------------------------------------------------------
 Solving for nuclear perturbation:
Forming RHS of the CP-SCF equations         ... 
Calc. nucleus orbit integrals (SHARK)       ... done

------------------------------------------------------------------------------
                           ORCA CP-SCF CALCULATION
------------------------------------------------------------------------------

Input orbitals are from        ... epr_info.gbw
Input Perturbation             ... epr_info.pin.tmp
Wavefunction output            ... epr_info.pout.tmp
Perturbation mode              ... Imaginary perturbation
Solver                         ... POPLE
Max. number of iterations      ... 64
Convergence tolerance          ... 1.000e-03
Integral handling              ... Direct
DFT GridXC                     ... 1
COSX GridX                     ... 1
COSX IntAccX                   ... 3.067
COSX Algorithm                 ... Auto
Number of perturbations        ... 3
Number of operators            ... 2
Orbital ranges used for CP-SCF:
 Operator 0:  Orbitals   0... 54  to  55...370
 Operator 1:  Orbitals   0... 53  to  54...370
Variables per perturbation     ... 34498
DFT calculation                         ... on
XC functional terms                     ... off
Hybrid DFT                              ... on
   Exchange mixing (SCF)                ...  0.200
   Exchange mixing (CP-SCF)             ...  0.200
   GGA exch. scaling(SCF)               ...  0.720
   GGA exch. scaling (CP-SCF)           ...  0.720
   GGA corr. scaling (SCF)              ...  0.810
   GGA corr. scaling (CP-SCF)           ...  0.810

CP-SCF GRID
-----------

General Integration Accuracy     IntAcc      ... 3.467
Radial Grid Type                 RadialGrid  ... OptM3 with GC (2021)
Angular Grid (max. ang.)         AngularGrid ... 1 (Lebedev-50)
Angular grid pruning method      GridPruning ... 4 (adaptive)
Weight generation scheme         WeightScheme... Becke
Basis function cutoff            BFCut       ... 1.0000e-10
Integration weight cutoff        WCut        ... 1.0000e-14
Angular grids for H and He will be reduced by one unit
Partially contracted basis set               ... off
Rotationally invariant grid construction     ... off

Total number of grid points                  ...    20367
Total number of batches                      ...      331
Average number of points per batch           ...       61
Average number of grid points per atom       ...      617

CP-SCF GRIDX
------------

General Integration Accuracy     IntAcc      ... 3.067
Radial Grid Type                 RadialGrid  ... OptM3 with GC (2021)
Angular Grid (max. ang.)         AngularGrid ... 1 (Lebedev-50)
Angular grid pruning method      GridPruning ... 4 (adaptive)
Weight generation scheme         WeightScheme... Becke
Basis function cutoff            BFCut       ... 1.0000e-10
Integration weight cutoff        WCut        ... 1.0000e-14
Angular grids for H and He will be reduced by one unit
Partially contracted basis set               ... on
Rotationally invariant grid construction     ... off

Total number of grid points                  ...     9622
Total number of batches                      ...      170
Average number of points per batch           ...       56
Average number of grid points per atom       ...      292

Memory available               ... 920.0 MB
Memory needed per perturbation ...   8.2 MB
Perturbations treated per batch... 3
Number of batches              ... 1
     CP-SCF ITERATION   0:   4.1279e-02 (   0.5 sec   0/  3 done)
     CP-SCF ITERATION   1:   1.3013e-03 (   0.5 sec   1/  3 done)
     CP-SCF ITERATION   2:   1.3354e-04 (   0.4 sec   3/  3 done)
                    *** THE CP-SCF HAS CONVERGED ***

Forming final perturbed densities           ... done
Transforming perturbed density to AO basis  ... done

 Raw HFC matrix (all values in MHz): 
 -----------------------------------
                -3.8295               0.1646               0.0307
                 0.1637               1.0626              -0.2886
                 0.0300              -0.2898              -4.0681

 A(FC)          -2.2787              -2.2787              -2.2787
 A(SD)           3.3616              -1.5504              -1.8111
 A(ORB+DIA)      0.0013               0.0003              -0.0007    A(PC) =   0.0003
 A(ORB)          0.0010               0.0001              -0.0010    A(PC) =   0.0001
 A(DIA)          0.0003               0.0002               0.0003    A(PC) =   0.0003
             ----------           ----------           ----------
 A(Tot)          1.0842              -3.8288              -4.0905    A(iso)=   -2.2783
 Orientation: 
  X           0.0330766            0.9875432            0.1538325
  Y           0.9978993           -0.0240530           -0.0601541
  Z          -0.0557047            0.1554990           -0.9862642

Notes:  (1) The A matrix conforms to the "SAI" spin Hamiltonian convention.
        (2) Tensor is right-handed.

 -----------------------------------------------------------
 Nucleus  31H : A:ISTP=    1 I=  0.5 P=533.5514 MHz/au**3
                Q:ISTP=    2 I=  1.0 Q=  0.0029 barn     
 -----------------------------------------------------------
 Solving for nuclear perturbation:
Forming RHS of the CP-SCF equations         ... 
Calc. nucleus orbit integrals (SHARK)       ... done

------------------------------------------------------------------------------
                           ORCA CP-SCF CALCULATION
------------------------------------------------------------------------------

Input orbitals are from        ... epr_info.gbw
Input Perturbation             ... epr_info.pin.tmp
Wavefunction output            ... epr_info.pout.tmp
Perturbation mode              ... Imaginary perturbation
Solver                         ... POPLE
Max. number of iterations      ... 64
Convergence tolerance          ... 1.000e-03
Integral handling              ... Direct
DFT GridXC                     ... 1
COSX GridX                     ... 1
COSX IntAccX                   ... 3.067
COSX Algorithm                 ... Auto
Number of perturbations        ... 3
Number of operators            ... 2
Orbital ranges used for CP-SCF:
 Operator 0:  Orbitals   0... 54  to  55...370
 Operator 1:  Orbitals   0... 53  to  54...370
Variables per perturbation     ... 34498
DFT calculation                         ... on
XC functional terms                     ... off
Hybrid DFT                              ... on
   Exchange mixing (SCF)                ...  0.200
   Exchange mixing (CP-SCF)             ...  0.200
   GGA exch. scaling(SCF)               ...  0.720
   GGA exch. scaling (CP-SCF)           ...  0.720
   GGA corr. scaling (SCF)              ...  0.810
   GGA corr. scaling (CP-SCF)           ...  0.810

CP-SCF GRID
-----------

General Integration Accuracy     IntAcc      ... 3.467
Radial Grid Type                 RadialGrid  ... OptM3 with GC (2021)
Angular Grid (max. ang.)         AngularGrid ... 1 (Lebedev-50)
Angular grid pruning method      GridPruning ... 4 (adaptive)
Weight generation scheme         WeightScheme... Becke
Basis function cutoff            BFCut       ... 1.0000e-10
Integration weight cutoff        WCut        ... 1.0000e-14
Angular grids for H and He will be reduced by one unit
Partially contracted basis set               ... off
Rotationally invariant grid construction     ... off

Total number of grid points                  ...    20367
Total number of batches                      ...      331
Average number of points per batch           ...       61
Average number of grid points per atom       ...      617

CP-SCF GRIDX
------------

General Integration Accuracy     IntAcc      ... 3.067
Radial Grid Type                 RadialGrid  ... OptM3 with GC (2021)
Angular Grid (max. ang.)         AngularGrid ... 1 (Lebedev-50)
Angular grid pruning method      GridPruning ... 4 (adaptive)
Weight generation scheme         WeightScheme... Becke
Basis function cutoff            BFCut       ... 1.0000e-10
Integration weight cutoff        WCut        ... 1.0000e-14
Angular grids for H and He will be reduced by one unit
Partially contracted basis set               ... on
Rotationally invariant grid construction     ... off

Total number of grid points                  ...     9622
Total number of batches                      ...      170
Average number of points per batch           ...       56
Average number of grid points per atom       ...      292

Memory available               ... 919.6 MB
Memory needed per perturbation ...   8.2 MB
Perturbations treated per batch... 3
Number of batches              ... 1
     CP-SCF ITERATION   0:   4.0973e-02 (   0.5 sec   0/  3 done)
     CP-SCF ITERATION   1:   1.0964e-03 (   0.5 sec   1/  3 done)
     CP-SCF ITERATION   2:   9.8434e-05 (   0.4 sec   3/  3 done)
                    *** THE CP-SCF HAS CONVERGED ***

Forming final perturbed densities           ... done
Transforming perturbed density to AO basis  ... done

 Raw HFC matrix (all values in MHz): 
 -----------------------------------
               122.2310              -5.8594              -2.0245
                -5.8590             123.9526               2.2496
                -2.0279               2.2503             115.4983

 A(FC)         120.5601             120.5601             120.5601
 A(SD)          -5.7089              -3.3900               9.0989
 A(ORB+DIA)     -0.0016               0.0011               0.0019    A(PC) =   0.0005
 A(ORB)         -0.0017               0.0007               0.0012    A(PC) =   0.0001
 A(DIA)          0.0001               0.0004               0.0007    A(PC) =   0.0004
             ----------           ----------           ----------
 A(Tot)        114.8496             117.1713             129.6609    A(iso)=  120.5606
 Orientation: 
  X           0.1561377           -0.7522980            0.6400537
  Y          -0.1411040           -0.6583435           -0.7393737
  Z           0.9776046            0.0251300           -0.2089445

Notes:  (1) The A matrix conforms to the "SAI" spin Hamiltonian convention.
        (2) Tensor is right-handed.

 -----------------------------------------------------------
 Nucleus  32H : A:ISTP=    1 I=  0.5 P=533.5514 MHz/au**3
                Q:ISTP=    2 I=  1.0 Q=  0.0029 barn     
 -----------------------------------------------------------
 Solving for nuclear perturbation:
Forming RHS of the CP-SCF equations         ... 
Calc. nucleus orbit integrals (SHARK)       ... done

------------------------------------------------------------------------------
                           ORCA CP-SCF CALCULATION
------------------------------------------------------------------------------

Input orbitals are from        ... epr_info.gbw
Input Perturbation             ... epr_info.pin.tmp
Wavefunction output            ... epr_info.pout.tmp
Perturbation mode              ... Imaginary perturbation
Solver                         ... POPLE
Max. number of iterations      ... 64
Convergence tolerance          ... 1.000e-03
Integral handling              ... Direct
DFT GridXC                     ... 1
COSX GridX                     ... 1
COSX IntAccX                   ... 3.067
COSX Algorithm                 ... Auto
Number of perturbations        ... 3
Number of operators            ... 2
Orbital ranges used for CP-SCF:
 Operator 0:  Orbitals   0... 54  to  55...370
 Operator 1:  Orbitals   0... 53  to  54...370
Variables per perturbation     ... 34498
DFT calculation                         ... on
XC functional terms                     ... off
Hybrid DFT                              ... on
   Exchange mixing (SCF)                ...  0.200
   Exchange mixing (CP-SCF)             ...  0.200
   GGA exch. scaling(SCF)               ...  0.720
   GGA exch. scaling (CP-SCF)           ...  0.720
   GGA corr. scaling (SCF)              ...  0.810
   GGA corr. scaling (CP-SCF)           ...  0.810

CP-SCF GRID
-----------

General Integration Accuracy     IntAcc      ... 3.467
Radial Grid Type                 RadialGrid  ... OptM3 with GC (2021)
Angular Grid (max. ang.)         AngularGrid ... 1 (Lebedev-50)
Angular grid pruning method      GridPruning ... 4 (adaptive)
Weight generation scheme         WeightScheme... Becke
Basis function cutoff            BFCut       ... 1.0000e-10
Integration weight cutoff        WCut        ... 1.0000e-14
Angular grids for H and He will be reduced by one unit
Partially contracted basis set               ... off
Rotationally invariant grid construction     ... off

Total number of grid points                  ...    20367
Total number of batches                      ...      331
Average number of points per batch           ...       61
Average number of grid points per atom       ...      617

CP-SCF GRIDX
------------

General Integration Accuracy     IntAcc      ... 3.067
Radial Grid Type                 RadialGrid  ... OptM3 with GC (2021)
Angular Grid (max. ang.)         AngularGrid ... 1 (Lebedev-50)
Angular grid pruning method      GridPruning ... 4 (adaptive)
Weight generation scheme         WeightScheme... Becke
Basis function cutoff            BFCut       ... 1.0000e-10
Integration weight cutoff        WCut        ... 1.0000e-14
Angular grids for H and He will be reduced by one unit
Partially contracted basis set               ... on
Rotationally invariant grid construction     ... off

Total number of grid points                  ...     9622
Total number of batches                      ...      170
Average number of points per batch           ...       56
Average number of grid points per atom       ...      292

Memory available               ... 919.3 MB
Memory needed per perturbation ...   8.2 MB
Perturbations treated per batch... 3
Number of batches              ... 1
     CP-SCF ITERATION   0:   4.3056e-02 (   0.5 sec   0/  3 done)
     CP-SCF ITERATION   1:   1.4329e-03 (   0.5 sec   1/  3 done)
     CP-SCF ITERATION   2:   1.2170e-04 (   0.4 sec   3/  3 done)
                    *** THE CP-SCF HAS CONVERGED ***

Forming final perturbed densities           ... done
Transforming perturbed density to AO basis  ... done

 Raw HFC matrix (all values in MHz): 
 -----------------------------------
                74.9838              -1.3713              -1.4732
                -1.3697              82.0905               5.7275
                -1.4711               5.7305              82.1006

 A(FC)          79.7236              79.7236              79.7236
 A(SD)          -5.0492              -3.3556               8.4048
 A(ORB+DIA)     -0.0009               0.0015               0.0035    A(PC) =   0.0014
 A(ORB)         -0.0009               0.0008               0.0027    A(PC) =   0.0009
 A(DIA)          0.0001               0.0007               0.0008    A(PC) =   0.0005
             ----------           ----------           ----------
 A(Tot)         74.6736              76.3694              88.1319    A(iso)=   79.7250
 Orientation: 
  X           0.9876533            0.0408393           -0.1512389
  Y           0.0774513            0.7118782            0.6980191
  Z           0.1361703           -0.7011145            0.6999258

Notes:  (1) The A matrix conforms to the "SAI" spin Hamiltonian convention.
        (2) Tensor is right-handed.


--------------------------------------------------------------------------------
----------------------------------------------------------------------------
                           ORCA EULER ANGLE PROGRAM
----------------------------------------------------------------------------

Only g-tensor available        -->  using g-tensor as reference tensor

Reference tensor               ...  g

g-tensor ordering              ...  |g_min> --> |gx>
                                    |g_mid> --> |gy>
                                    |g_max> --> |gz>

A- and EFG-tensor ordering     ...  the axes |Ax>, |Qx>, |Ay>, etc. are assigned
                                    such that the Euler rotation is minimal. You
                                    can find the respective eigenvalues as Ax,
                                    EFGx, Ay, etc. in the tables below.
                                    The relation of |Ax>, |Ay>,  etc. to Amin, Amid, etc.
                                    (as printed in the ORCA EPR/NMR CALCULATION Output)
                                    is obtained in the detailed printout.

Euler rotation around          ...  z - y - z
   First rotation              -->  by alpha around z
   Second rotation             -->  by beta around y'
   Third rotation              -->  by gamma around z''
   Positive / Negative angle   -->  clockwise / counterclockwise rotation

Plot EFG-tensors                    (-)
Plot HFC-tensors                    (-)
Detailed Printout                   (-)

-------------------------------------------------------------------------
          Euler rotation of hyperfine tensor to g-tensor
-------------------------------------------------------------------------

-------------------------------------------------------------------
 Atom  |   Alpha    Beta    Gamma   |   Ax       Ay       Az 
       |          [degrees]         |           [MHz]         
-------------------------------------------------------------------
  0N       53.1     31.9    -47.3      -3.14     9.58    -5.52
  8N       93.8     30.8   -125.4      -4.22     3.10    -5.73
  9H       99.8     21.2   -101.6     -65.63  -102.87   -25.22
 10H      -79.9     42.7     58.9     117.00   115.28   129.45
 11H     -137.1     16.6    111.2      28.30    27.30    41.40
 12H      161.4     45.9   -133.0      -4.26     4.29    -6.06
 13H     -169.9     25.4    171.2      -4.06     4.42    -4.24
 14H      155.1     45.3   -150.8      -1.25     1.11    -1.59
 15H      108.4     29.3   -111.9      -1.08     1.93    -1.88
 16H     -100.4     37.8    138.9      -1.43    -1.07     4.12
 21H     -117.8     44.5    107.3      -1.16    -1.04     2.10
 30H       43.6     25.6    -32.2      -3.83     1.08    -4.09
 31H      -29.8     36.9      3.6     117.17   129.66   114.85
 32H      -55.1     38.1     69.8      74.67    88.13    76.37
-------------------------------------------------------------------


Maximum memory used throughout the entire EPRNMR-calculation: 138.7 MB

Timings for individual modules:

Sum of individual times         ...      444.198 sec (=   7.403 min)
GTO integral calculation        ...        3.526 sec (=   0.059 min)   0.8 %
Spin-Orbit-Coupling Matrices    ...        4.657 sec (=   0.078 min)   1.0 %
SCF iterations                  ...       24.185 sec (=   0.403 min)   5.4 %
EPR/NMR calculation             ...      411.831 sec (=   6.864 min)  92.7 %
                             ****ORCA TERMINATED NORMALLY****
TOTAL RUN TIME: 0 days 0 hours 7 minutes 26 seconds 811 msec
