
                                 *****************
                                 * O   R   C   A *
                                 *****************

                                            #,                                       
                                            ###                                      
                                            ####                                     
                                            #####                                    
                                            ######                                   
                                           ########,                                 
                                     ,,################,,,,,                         
                               ,,#################################,,                 
                          ,,##########################################,,             
                       ,#########################################, ''#####,          
                    ,#############################################,,   '####,        
                  ,##################################################,,,,####,       
                ,###########''''           ''''###############################       
              ,#####''   ,,,,##########,,,,          '''####'''          '####       
            ,##' ,,,,###########################,,,                        '##       
           ' ,,###''''                  '''############,,,                           
         ,,##''                                '''############,,,,        ,,,,,,###''
      ,#''                                            '''#######################'''  
     '                                                          ''''####''''         
             ,#######,   #######,   ,#######,      ##                                
            ,#'     '#,  ##    ##  ,#'     '#,    #''#        ######   ,####,        
            ##       ##  ##   ,#'  ##            #'  '#       #        #'  '#        
            ##       ##  #######   ##           ,######,      #####,   #    #        
            '#,     ,#'  ##    ##  '#,     ,#' ,#      #,         ##   #,  ,#        
             '#######'   ##     ##  '#######'  #'      '#     #####' # '####'        



                  #######################################################
                  #                        -***-                        #
                  #          Department of theory and spectroscopy      #
                  #    Directorship and core code : Frank Neese         #
                  #        Max Planck Institute fuer Kohlenforschung    #
                  #                Kaiser Wilhelm Platz 1               #
                  #                 D-45470 Muelheim/Ruhr               #
                  #                      Germany                        #
                  #                                                     #
                  #                  All rights reserved                #
                  #                        -***-                        #
                  #######################################################


                         Program Version 5.0.4 -  RELEASE  -


 With contributions from (in alphabetic order):
   Daniel Aravena         : Magnetic Suceptibility
   Michael Atanasov       : Ab Initio Ligand Field Theory (pilot matlab implementation)
   Alexander A. Auer      : GIAO ZORA, VPT2 properties, NMR spectrum
   Ute Becker             : Parallelization
   Giovanni Bistoni       : ED, misc. LED, open-shell LED, HFLD
   Martin Brehm           : Molecular dynamics
   Dmytro Bykov           : SCF Hessian
   Vijay G. Chilkuri      : MRCI spin determinant printing, contributions to CSF-ICE
   Dipayan Datta          : RHF DLPNO-CCSD density
   Achintya Kumar Dutta   : EOM-CC, STEOM-CC
   Dmitry Ganyushin       : Spin-Orbit,Spin-Spin,Magnetic field MRCI
   Miquel Garcia          : C-PCM and meta-GGA Hessian, CC/C-PCM, Gaussian charge scheme
   Yang Guo               : DLPNO-NEVPT2, F12-NEVPT2, CIM, IAO-localization
   Andreas Hansen         : Spin unrestricted coupled pair/coupled cluster methods
   Benjamin Helmich-Paris : MC-RPA, TRAH-SCF, COSX integrals
   Lee Huntington         : MR-EOM, pCC
   Robert Izsak           : Overlap fitted RIJCOSX, COSX-SCS-MP3, EOM
   Marcus Kettner         : VPT2
   Christian Kollmar      : KDIIS, OOCD, Brueckner-CCSD(T), CCSD density, CASPT2, CASPT2-K
   Simone Kossmann        : Meta GGA functionals, TD-DFT gradient, OOMP2, MP2 Hessian
   Martin Krupicka        : Initial AUTO-CI
   Lucas Lang             : DCDCAS
   Marvin Lechner         : AUTO-CI (C++ implementation), FIC-MRCC
   Dagmar Lenk            : GEPOL surface, SMD
   Dimitrios Liakos       : Extrapolation schemes; Compound Job, initial MDCI parallelization
   Dimitrios Manganas     : Further ROCIS development; embedding schemes
   Dimitrios Pantazis     : SARC Basis sets
   Anastasios Papadopoulos: AUTO-CI, single reference methods and gradients
   Taras Petrenko         : DFT Hessian,TD-DFT gradient, ASA, ECA, R-Raman, ABS, FL, XAS/XES, NRVS
   Peter Pinski           : DLPNO-MP2, DLPNO-MP2 Gradient
   Christoph Reimann      : Effective Core Potentials
   Marius Retegan         : Local ZFS, SOC
   Christoph Riplinger    : Optimizer, TS searches, QM/MM, DLPNO-CCSD(T), (RO)-DLPNO pert. Triples
   Tobias Risthaus        : Range-separated hybrids, TD-DFT gradient, RPA, STAB
   Michael Roemelt        : Original ROCIS implementation
   Masaaki Saitow         : Open-shell DLPNO-CCSD energy and density
   Barbara Sandhoefer     : DKH picture change effects
   Avijit Sen             : IP-ROCIS
   Kantharuban Sivalingam : CASSCF convergence, NEVPT2, FIC-MRCI
   Bernardo de Souza      : ESD, SOC TD-DFT
   Georgi Stoychev        : AutoAux, RI-MP2 NMR, DLPNO-MP2 response
   Willem Van den Heuvel  : Paramagnetic NMR
   Boris Wezisla          : Elementary symmetry handling
   Frank Wennmohs         : Technical directorship


 We gratefully acknowledge several colleagues who have allowed us to
 interface, adapt or use parts of their codes:
   Stefan Grimme, W. Hujo, H. Kruse, P. Pracht,  : VdW corrections, initial TS optimization,
                  C. Bannwarth, S. Ehlert          DFT functionals, gCP, sTDA/sTD-DF
   Ed Valeev, F. Pavosevic, A. Kumar             : LibInt (2-el integral package), F12 methods
   Garnet Chan, S. Sharma, J. Yang, R. Olivares  : DMRG
   Ulf Ekstrom                                   : XCFun DFT Library
   Mihaly Kallay                                 : mrcc  (arbitrary order and MRCC methods)
   Jiri Pittner, Ondrej Demel                    : Mk-CCSD
   Frank Weinhold                                : gennbo (NPA and NBO analysis)
   Christopher J. Cramer and Donald G. Truhlar   : smd solvation model
   Lars Goerigk                                  : TD-DFT with DH, B97 family of functionals
   V. Asgeirsson, H. Jonsson                     : NEB implementation
   FAccTs GmbH                                   : IRC, NEB, NEB-TS, DLPNO-Multilevel, CI-OPT
                                                   MM, QMMM, 2- and 3-layer-ONIOM, Crystal-QMMM,
                                                   LR-CPCM, SF, NACMEs, symmetry and pop. for TD-DFT,
                                                   nearIR, NL-DFT gradient (VV10), updates on ESD,
                                                   ML-optimized integration grids
   S Lehtola, MJT Oliveira, MAL Marques          : LibXC Library
   Liviu Ungur et al                             : ANISO software


 Your calculation uses the libint2 library for the computation of 2-el integrals
 For citations please refer to: http://libint.valeyev.net

 Your ORCA version has been built with support for libXC version: 5.1.0
 For citations please refer to: https://tddft.org/programs/libxc/

 This ORCA versions uses:
   CBLAS   interface :  Fast vector & matrix operations
   LAPACKE interface :  Fast linear algebra routines
   SCALAPACK package :  Parallel linear algebra routines
   Shared memory     :  Shared parallel matrices
   BLAS/LAPACK       :  OpenBLAS 0.3.15  USE64BITINT DYNAMIC_ARCH NO_AFFINITY Zen SINGLE_THREADED
        Core in use  :  Zen
   Copyright (c) 2011-2014, The OpenBLAS Project




***************************************
The coordinates will be read from file: opt.xyz
***************************************


XCFun DFT library Copyright 2009-2010 Ulf Ekstrom and contributors.
See http://admol.org/xcfun for more information.
This is free software; see the source code for copying conditions.
There is ABSOLUTELY NO WARRANTY; not even for MERCHANTABILITY or FITNESS FOR A PARTICULAR PURPOSE.
For details see the documentation.
Scientific users of this library should cite U. Ekstrom, L. Visscher, R. Bast, A. J. Thorvaldsen and K. Ruud;
J.Chem.Theor.Comp. 2010, DOI: 10.1021/ct100117s
XCFun Version 0.99 

================================================================================

----- Orbital basis set information -----
Your calculation utilizes the basis: def2-TZVP
   F. Weigend and R. Ahlrichs, Phys. Chem. Chem. Phys. 7, 3297 (2005).

----- AuxJ basis set information -----
Your calculation utilizes the auxiliary basis: def2/J
   F. Weigend, Phys. Chem. Chem. Phys. 8, 1057 (2006).

================================================================================
                                        WARNINGS
                       Please study these warnings very carefully!
================================================================================


WARNING: your system is open-shell and RHF/RKS was chosen
  ===> : WILL SWITCH to UHF/UKS


WARNING: Geometry Optimization
  ===> : Switching off AutoStart
         For restart on a previous wavefunction, please use MOREAD

WARNING: Minnesota functionals are quite sensitive to the integration grid.
         see SE Wheeler, KN Houk, JCTC 2010, 6, 395,
             N Mardirossian, M Head-Gordon, JCTC 2016, 12, 4303.
         DEFGRID3 seems to be a minimum grid for reliable results with these functionals!
  ===> : Please increase the integration grid!


INFO   : the flag for use of the SHARK integral package has been found!

================================================================================
                                       INPUT FILE
================================================================================
NAME = freq.inp
|  1> ! M062X def2-TZVP OPT FREQ
|  2> %pal nprocs 16 end
|  3> *XYZFile 1 2 opt.xyz
|  4> 
|  5>                          ****END OF INPUT****
================================================================================

                       *****************************
                       * Geometry Optimization Run *
                       *****************************

Geometry optimization settings:
Update method            Update   .... BFGS
Choice of coordinates    CoordSys .... Z-matrix Internals
Initial Hessian          InHess   .... Almoef's Model

Convergence Tolerances:
Energy Change            TolE     ....  5.0000e-06 Eh
Max. Gradient            TolMAXG  ....  3.0000e-04 Eh/bohr
RMS Gradient             TolRMSG  ....  1.0000e-04 Eh/bohr
Max. Displacement        TolMAXD  ....  4.0000e-03 bohr
RMS Displacement         TolRMSD  ....  2.0000e-03 bohr
Strict Convergence                ....  False
------------------------------------------------------------------------------
                        ORCA OPTIMIZATION COORDINATE SETUP
------------------------------------------------------------------------------

The optimization will be done in new redundant internal coordinates
Making redundant internal coordinates   ...  (new redundants) done
Evaluating the initial hessian          ...  (Almloef) done
Evaluating the coordinates              ...  done
Calculating the B-matrix                .... done
Calculating the G-matrix                .... done
Diagonalizing the G-matrix              .... done
Small eigenvalue found = 5.050e-03
Small eigenvalue found = 6.584e-03
Small eigenvalue found = 1.071e-02
Small eigenvalue found = 2.292e-02
Small eigenvalue found = 2.480e-02
The first mode is                       ....   67
The number of degrees of freedom        ....   93

    -----------------------------------------------------------------
                    Redundant Internal Coordinates


    -----------------------------------------------------------------
         Definition                    Initial Value    Approx d2E/dq
    -----------------------------------------------------------------
      1. B(C   1,N   0)                  1.4547         0.441273   
      2. B(C   2,C   1)                  1.5409         0.358955   
      3. B(O   3,C   2)                  1.2347         0.990039   
      4. B(C   4,C   1)                  1.5558         0.339747   
      5. B(C   5,C   4)                  1.4994         0.418048   
      6. B(C   6,C   5)                  1.5046         0.410038   
      7. B(C   7,C   6)                  1.5312         0.371948   
      8. B(N   8,C   7)                  1.5357         0.327642   
      9. B(H   9,C   5)                  1.0872         0.363867   
     10. B(H  10,C   6)                  1.1071         0.338214   
     11. B(H  11,C   6)                  1.0994         0.347873   
     12. B(H  12,C   7)                  1.0917         0.357915   
     13. B(H  13,C   7)                  1.0922         0.357192   
     14. B(H  14,N   8)                  1.0248         0.409857   
     15. B(H  15,N   8)                  1.0252         0.409222   
     16. B(H  16,N   0)                  1.0110         0.431200   
     17. B(C  17,N   0)                  1.3713         0.599500   
     18. B(N  18,C   2)                  1.3595         0.625968   
     19. B(H  19,N  18)                  1.0095         0.433460   
     20. B(O  20,C  17)                  1.2316         1.001502   
     21. B(H  21,N   8)                  1.0250         0.409519   
     22. B(C  22,N  18)                  1.4631         0.427791   
     23. B(H  23,C  22)                  1.0948         0.353856   
     24. B(H  24,C  22)                  1.0934         0.355683   
     25. B(H  25,C  22)                  1.0898         0.360430   
     26. B(C  26,C  17)                  1.5227         0.383723   
     27. B(H  27,C  26)                  1.0928         0.356364   
     28. B(H  28,C  26)                  1.0938         0.355066   
     29. B(H  29,C  26)                  1.0931         0.355983   
     30. B(H  30,C   1)                  1.0961         0.352128   
     31. B(H  31,C   4)                  1.1031         0.343223   
     32. B(H  32,C   4)                  1.0981         0.349589   
     33. A(C   1,N   0,H  16)          116.4333         0.338494   
     34. A(C   1,N   0,C  17)          121.8985         0.400885   
     35. A(H  16,N   0,C  17)          121.6624         0.356413   
     36. A(N   0,C   1,H  30)          108.7786         0.330123   
     37. A(C   4,C   1,H  30)          106.9562         0.318153   
     38. A(C   2,C   1,C   4)          110.7848         0.355105   
     39. A(N   0,C   1,C   4)          112.3492         0.365541   
     40. A(N   0,C   1,C   2)          107.2324         0.369005   
     41. A(C   2,C   1,H  30)          110.7569         0.321024   
     42. A(C   1,C   2,N  18)          115.4623         0.392064   
     43. A(O   3,C   2,N  18)          124.0817         0.467157   
     44. A(C   1,C   2,O   3)          120.4036         0.425200   
     45. A(C   1,C   4,H  31)          108.6036         0.316829   
     46. A(C   5,C   4,H  31)          110.5145         0.327778   
     47. A(C   1,C   4,H  32)          106.6885         0.317778   
     48. A(C   1,C   4,C   5)          113.8926         0.364444   
     49. A(H  31,C   4,H  32)          106.0584         0.287324   
     50. A(C   5,C   4,H  32)          110.7168         0.328773   
     51. A(C   4,C   5,C   6)          120.4793         0.376421   
     52. A(C   6,C   5,H   9)          118.9945         0.329899   
     53. A(C   4,C   5,H   9)          119.7523         0.330956   
     54. A(H  10,C   6,H  11)          106.4353         0.286445   
     55. A(C   7,C   6,H  11)          109.9154         0.322255   
     56. A(C   5,C   6,C   7)          110.6697         0.368919   
     57. A(C   5,C   6,H  11)          110.3126         0.327460   
     58. A(C   7,C   6,H  10)          109.1563         0.320774   
     59. A(C   5,C   6,H  10)          110.2566         0.325945   
     60. A(H  12,C   7,H  13)          109.1135         0.290192   
     61. A(N   8,C   7,H  13)          105.9426         0.315139   
     62. A(C   6,C   7,H  13)          112.1113         0.323655   
     63. A(C   6,C   7,N   8)          110.6149         0.352872   
     64. A(N   8,C   7,H  12)          106.2978         0.315242   
     65. A(C   6,C   7,H  12)          112.4002         0.323763   
     66. A(C   7,N   8,H  21)          110.7485         0.319527   
     67. A(H  14,N   8,H  15)          108.0837         0.297986   
     68. A(C   7,N   8,H  15)          110.5554         0.319489   
     69. A(C   7,N   8,H  14)          111.9831         0.319570   
     70. A(H  15,N   8,H  21)          107.3029         0.297947   
     71. A(H  14,N   8,H  21)          107.9965         0.298020   
     72. A(N   0,C  17,O  20)          121.5547         0.464455   
     73. A(O  20,C  17,C  26)          122.3850         0.431206   
     74. A(N   0,C  17,C  26)          116.0580         0.393681   
     75. A(C   2,N  18,H  19)          117.9148         0.359360   
     76. A(H  19,N  18,C  22)          118.2113         0.337042   
     77. A(C   2,N  18,C  22)          123.0708         0.401745   
     78. A(H  24,C  22,H  25)          109.5749         0.290318   
     79. A(H  23,C  22,H  25)          108.7991         0.290084   
     80. A(N  18,C  22,H  25)          108.0866         0.329702   
     81. A(H  23,C  22,H  24)          109.1437         0.289481   
     82. A(N  18,C  22,H  24)          110.1813         0.328981   
     83. A(N  18,C  22,H  23)          111.0264         0.328701   
     84. A(H  28,C  26,H  29)          108.9399         0.289674   
     85. A(H  27,C  26,H  29)          109.6480         0.289840   
     86. A(C  17,C  26,H  29)          113.5703         0.325135   
     87. A(H  27,C  26,H  28)          107.3637         0.289723   
     88. A(C  17,C  26,H  28)          108.2632         0.324997   
     89. A(C  17,C  26,H  27)          108.8649         0.325193   
     90. D(H  30,C   1,N   0,H  16)    130.7951         0.016605   
     91. D(C   4,C   1,N   0,C  17)     69.8733         0.016605   
     92. D(H  30,C   1,N   0,C  17)    -48.3459         0.016605   
     93. D(C   4,C   1,N   0,H  16)   -110.9857         0.016605   
     94. D(C   2,C   1,N   0,H  16)     10.9680         0.016605   
     95. D(C   2,C   1,N   0,C  17)   -168.1730         0.016605   
     96. D(O   3,C   2,C   1,N   0)    -35.4271         0.009694   
     97. D(N  18,C   2,C   1,C   4)    -89.9742         0.009694   
     98. D(N  18,C   2,C   1,H  30)     28.5448         0.009694   
     99. D(O   3,C   2,C   1,H  30)   -153.9815         0.009694   
    100. D(O   3,C   2,C   1,C   4)     87.4996         0.009694   
    101. D(N  18,C   2,C   1,N   0)    147.0992         0.009694   
    102. D(C   5,C   4,C   1,H  30)    179.0861         0.009347   
    103. D(C   5,C   4,C   1,C   2)    -60.1149         0.009347   
    104. D(H  32,C   4,C   1,C   2)    177.4244         0.009347   
    105. D(H  32,C   4,C   1,N   0)    -62.6644         0.009347   
    106. D(H  31,C   4,C   1,H  30)    -57.3042         0.009347   
    107. D(H  32,C   4,C   1,H  30)     56.6254         0.009347   
    108. D(H  31,C   4,C   1,C   2)     63.4948         0.009347   
    109. D(H  31,C   4,C   1,N   0)   -176.5940         0.009347   
    110. D(C   5,C   4,C   1,N   0)     59.7963         0.009347   
    111. D(H   9,C   5,C   4,H  32)    131.0348         0.012927   
    112. D(H   9,C   5,C   4,H  31)   -111.7537         0.012927   
    113. D(C   6,C   5,C   4,H  32)    -38.7895         0.012927   
    114. D(C   6,C   5,C   4,H  31)     78.4220         0.012927   
    115. D(C   6,C   5,C   4,C   1)   -159.0103         0.012927   
    116. D(H   9,C   5,C   4,C   1)     10.8140         0.012927   
    117. D(H  10,C   6,C   5,H   9)    -85.1496         0.012452   
    118. D(H  10,C   6,C   5,C   4)     84.7510         0.012452   
    119. D(C   7,C   6,C   5,H   9)     35.7191         0.012452   
    120. D(C   7,C   6,C   5,C   4)   -154.3803         0.012452   
    121. D(H  11,C   6,C   5,H   9)    157.5799         0.012452   
    122. D(H  11,C   6,C   5,C   4)    -32.5195         0.012452   
    123. D(H  13,C   7,C   6,H  11)   -179.6598         0.011052   
    124. D(H  13,C   7,C   6,H  10)     63.9536         0.011052   
    125. D(H  13,C   7,C   6,C   5)    -57.5660         0.011052   
    126. D(H  12,C   7,C   6,H  11)    -56.3107         0.011052   
    127. D(H  12,C   7,C   6,H  10)   -172.6972         0.011052   
    128. D(H  12,C   7,C   6,C   5)     65.7831         0.011052   
    129. D(N   8,C   7,C   6,H  11)     62.3320         0.011052   
    130. D(N   8,C   7,C   6,H  10)    -54.0545         0.011052   
    131. D(N   8,C   7,C   6,C   5)   -175.5742         0.011052   
    132. D(H  21,N   8,C   7,H  13)    177.9068         0.009980   
    133. D(H  21,N   8,C   7,H  12)     61.9102         0.009980   
    134. D(H  21,N   8,C   7,C   6)    -60.3776         0.009980   
    135. D(H  15,N   8,C   7,H  13)    -63.2944         0.009980   
    136. D(H  15,N   8,C   7,H  12)   -179.2910         0.009980   
    137. D(H  15,N   8,C   7,C   6)     58.4212         0.009980   
    138. D(H  14,N   8,C   7,H  13)     57.2949         0.009980   
    139. D(H  14,N   8,C   7,H  12)    -58.7017         0.009980   
    140. D(H  14,N   8,C   7,C   6)    179.0105         0.009980   
    141. D(C  26,C  17,N   0,H  16)     -2.6774         0.028956   
    142. D(C  26,C  17,N   0,C   1)    176.4189         0.028956   
    143. D(O  20,C  17,N   0,H  16)    177.8641         0.028956   
    144. D(O  20,C  17,N   0,C   1)     -3.0396         0.028956   
    145. D(C  22,N  18,C   2,O   3)      2.6355         0.031777   
    146. D(C  22,N  18,C   2,C   1)   -179.9953         0.031777   
    147. D(H  19,N  18,C   2,O   3)    172.1754         0.031777   
    148. D(H  19,N  18,C   2,C   1)    -10.4554         0.031777   
    149. D(H  24,C  22,N  18,H  19)     56.2238         0.015603   
    150. D(H  24,C  22,N  18,C   2)   -134.2656         0.015603   
    151. D(H  23,C  22,N  18,H  19)    -64.8136         0.015603   
    152. D(H  23,C  22,N  18,C   2)    104.6970         0.015603   
    153. D(H  25,C  22,N  18,H  19)    175.9297         0.015603   
    154. D(H  25,C  22,N  18,C   2)    -14.5596         0.015603   
    155. D(H  29,C  26,C  17,O  20)   -174.7852         0.010974   
    156. D(H  29,C  26,C  17,N   0)      5.7612         0.010974   
    157. D(H  28,C  26,C  17,O  20)     64.0918         0.010974   
    158. D(H  28,C  26,C  17,N   0)   -115.3618         0.010974   
    159. D(H  27,C  26,C  17,O  20)    -52.3230         0.010974   
    160. D(H  27,C  26,C  17,N   0)    128.2234         0.010974   
    -----------------------------------------------------------------

Number of atoms                         .... 33
Number of degrees of freedom            .... 160

         *************************************************************
         *                GEOMETRY OPTIMIZATION CYCLE   1            *
         *************************************************************
---------------------------------
CARTESIAN COORDINATES (ANGSTROEM)
---------------------------------
  N     -7.815204    0.900419    0.019371
  C     -6.374150    0.851442    0.211759
  C     -6.112257    0.951068    1.726935
  O     -6.833404    1.654512    2.440790
  C     -5.636342    1.988519   -0.551998
  C     -6.055242    3.367988   -0.140011
  C     -5.822153    4.541002   -1.053069
  C     -5.719704    5.839939   -0.248827
  N     -5.591995    7.048531   -1.187662
  H     -6.675191    3.502451    0.742892
  H     -6.650377    4.629605   -1.782312
  H     -4.905098    4.390995   -1.640603
  H     -4.840690    5.860390    0.398189
  H     -6.612007    6.021521    0.354282
  H     -5.538238    7.931776   -0.670808
  H     -6.396551    7.098922   -1.821040
  H     -8.368438    1.156626    0.825790
  C     -8.396072    0.598040   -1.185406
  N     -5.027415    0.267549    2.178745
  H     -4.574585   -0.373476    1.543783
  O     -7.718688    0.323902   -2.176741
  H     -4.751167    6.969853   -1.768548
  C     -4.625448    0.247395    3.585411
  H     -4.881794   -0.708458    4.053529
  H     -3.547979    0.411599    3.672203
  H     -5.159096    1.045334    4.101231
  C     -9.918426    0.610107   -1.215770
  H    -10.250336    1.240101   -2.044769
  H    -10.265290   -0.407059   -1.419554
  H    -10.371449    0.959527   -0.284315
  H     -5.997125   -0.097783   -0.186041
  H     -4.549766    1.857272   -0.414585
  H     -5.829023    1.827037   -1.620896

----------------------------
CARTESIAN COORDINATES (A.U.)
----------------------------
  NO LB      ZA    FRAG     MASS         X           Y           Z
   0 N     7.0000    0    14.007  -14.768596    1.701546    0.036606
   1 C     6.0000    0    12.011  -12.045399    1.608993    0.400167
   2 C     6.0000    0    12.011  -11.550492    1.797259    3.263434
   3 O     8.0000    0    15.999  -12.913263    3.126574    4.612425
   4 C     6.0000    0    12.011  -10.651143    3.757756   -1.043126
   5 C     6.0000    0    12.011  -11.442750    6.364575   -0.264582
   6 C     6.0000    0    12.011  -11.002275    8.581250   -1.990011
   7 C     6.0000    0    12.011  -10.808674   11.035885   -0.470215
   8 N     7.0000    0    14.007  -10.567340   13.319793   -2.244356
   9 H     1.0000    0     1.008  -12.614282    6.618673    1.403862
  10 H     1.0000    0     1.008  -12.567390    8.748685   -3.368082
  11 H     1.0000    0     1.008   -9.269292    8.297778   -3.100290
  12 H     1.0000    0     1.008   -9.147578   11.074531    0.752468
  13 H     1.0000    0     1.008  -12.494882   11.379025    0.669496
  14 H     1.0000    0     1.008  -10.465752   14.988885   -1.267643
  15 H     1.0000    0     1.008  -12.087729   13.415019   -3.441267
  16 H     1.0000    0     1.008  -15.814057    2.185706    1.560517
  17 C     6.0000    0    12.011  -15.866277    1.130132   -2.240092
  18 N     7.0000    0    14.007   -9.500437    0.505595    4.117232
  19 H     1.0000    0     1.008   -8.644713   -0.705767    2.917328
  20 O     8.0000    0    15.999  -14.586207    0.612086   -4.113445
  21 H     1.0000    0     1.008   -8.978405   13.171114   -3.342072
  22 C     6.0000    0    12.011   -8.740830    0.467508    6.775446
  23 H     1.0000    0     1.008   -9.225254   -1.338792    7.660059
  24 H     1.0000    0     1.008   -6.704709    0.777809    6.939459
  25 H     1.0000    0     1.008   -9.749278    1.975394    7.750204
  26 C     6.0000    0    12.011  -18.743109    1.152934   -2.297473
  27 H     1.0000    0     1.008  -19.370327    2.343452   -3.864054
  28 H     1.0000    0     1.008  -19.398587   -0.769231   -2.682568
  29 H     1.0000    0     1.008  -19.599199    1.813244   -0.537278
  30 H     1.0000    0     1.008  -11.332924   -0.184784   -0.351567
  31 H     1.0000    0     1.008   -8.597812    3.509735   -0.783452
  32 H     1.0000    0     1.008  -11.015257    3.452599   -3.063049

--------------------------------
INTERNAL COORDINATES (ANGSTROEM)
--------------------------------
 N      0   0   0     0.000000000000     0.00000000     0.00000000
 C      1   0   0     1.454664306187     0.00000000     0.00000000
 C      2   1   0     1.540866571190   107.23244129     0.00000000
 O      3   2   1     1.234696529312   120.40360269   324.57288802
 C      2   1   3     1.555837382088   112.34923403   238.04622920
 C      5   2   1     1.499381995067   113.89257864    59.79628889
 C      6   5   2     1.504648334387   120.47934955   200.98970312
 C      7   6   5     1.531188129234   110.66972997   205.61967563
 N      8   7   6     1.535713452124   110.61494577   184.42584115
 H      6   5   2     1.087167553500   119.75226566    10.81403780
 H      7   6   5     1.107068512377   110.25658120    84.75097962
 H      7   6   5     1.099403652351   110.31260230   327.48048346
 H      8   7   6     1.091656560033   112.40015507    65.78314005
 H      8   7   6     1.092207311866   112.11129567   302.43396448
 H      9   8   7     1.024768646609   111.98310525   179.01046859
 H      9   8   7     1.025190969182   110.55537694    58.42117692
 H      1   2   3     1.010950576397   116.43329094    10.96802772
 C      1   2   3     1.371250481069   121.89853742   191.82703974
 N      3   2   1     1.359490218633   115.46234587   147.09916322
 H     19   3   2     1.009527057785   117.91475349   349.54456984
 O     18   1   2     1.231562729575   121.55473913   356.96040157
 H      9   8   7     1.024993006485   110.74846863   299.62235711
 C     19   3   2     1.463110619884   123.07078470   180.00469673
 H     23  19   3     1.094761304684   111.02639693   104.69699856
 H     23  19   3     1.093359760070   110.18125856   225.73441688
 H     23  19   3     1.089750518830   108.08659320   345.44035528
 C     18   1   2     1.522704157898   116.05795003   176.41889262
 H     27  18   1     1.092838742538   108.86494395   128.22342188
 H     27  18   1     1.093832327323   108.26315908   244.63822748
 H     27  18   1     1.093130033257   113.57027896     5.76123973
 H      2   1   3     1.096094017422   108.77857731   119.82710740
 H      5   2   1     1.103066759599   108.60355217   183.40596030
 H      5   2   1     1.098063773574   106.68847628   297.33557816

---------------------------
INTERNAL COORDINATES (A.U.)
---------------------------
 N      0   0   0     0.000000000000     0.00000000     0.00000000
 C      1   0   0     2.748917155484     0.00000000     0.00000000
 C      2   1   0     2.911815828463   107.23244129     0.00000000
 O      3   2   1     2.333238298902   120.40360269   324.57288802
 C      2   1   3     2.940106561063   112.34923403   238.04622920
 C      5   2   1     2.833421340808   113.89257864    59.79628889
 C      6   5   2     2.843373279852   120.47934955   200.98970312
 C      7   6   5     2.893526223764   110.66972997   205.61967563
 N      8   7   6     2.902077844693   110.61494577   184.42584115
 H      6   5   2     2.054448937800   119.75226566    10.81403780
 H      7   6   5     2.092056299880   110.25658120    84.75097962
 H      7   6   5     2.077571813576   110.31260230   327.48048346
 H      8   7   6     2.062931930762   112.40015507    65.78314005
 H      8   7   6     2.063972700893   112.11129567   302.43396448
 H      9   8   7     1.936532092720   111.98310525   179.01046859
 H      9   8   7     1.937330166723   110.55537694    58.42117692
 H      1   2   3     1.910419724319   116.43329094    10.96802772
 C      1   2   3     2.591287870229   121.89853742   191.82703974
 N      3   2   1     2.569064194960   115.46234587   147.09916322
 H     19   3   2     1.907729663998   117.91475349   349.54456984
 O     18   1   2     2.327316275641   121.55473913   356.96040157
 H      9   8   7     1.936956071441   110.74846863   299.62235711
 C     19   3   2     2.764878375213   123.07078470   180.00469673
 H     23  19   3     2.068799047868   111.02639693   104.69699856
 H     23  19   3     2.066150512383   110.18125856   225.73441688
 H     23  19   3     2.059330034887   108.08659320   345.44035528
 C     18   1   2     2.877493841410   116.05795003   176.41889262
 H     27  18   1     2.065165931936   108.86494395   128.22342188
 H     27  18   1     2.067043535069   108.26315908   244.63822748
 H     27  18   1     2.065716391620   113.57027896     5.76123973
 H      2   1   3     2.071317509957   108.77857731   119.82710740
 H      5   2   1     2.084494083073   108.60355217   183.40596030
 H      5   2   1     2.075039809635   106.68847628   297.33557816

---------------------
BASIS SET INFORMATION
---------------------
There are 4 groups of distinct atoms

 Group   1 Type N   : 11s6p2d1f contracted to 5s3p2d1f pattern {62111/411/11/1}
 Group   2 Type C   : 11s6p2d1f contracted to 5s3p2d1f pattern {62111/411/11/1}
 Group   3 Type O   : 11s6p2d1f contracted to 5s3p2d1f pattern {62111/411/11/1}
 Group   4 Type H   : 5s1p contracted to 3s1p pattern {311/1}

Atom   0N    basis set group =>   1
Atom   1C    basis set group =>   2
Atom   2C    basis set group =>   2
Atom   3O    basis set group =>   3
Atom   4C    basis set group =>   2
Atom   5C    basis set group =>   2
Atom   6C    basis set group =>   2
Atom   7C    basis set group =>   2
Atom   8N    basis set group =>   1
Atom   9H    basis set group =>   4
Atom  10H    basis set group =>   4
Atom  11H    basis set group =>   4
Atom  12H    basis set group =>   4
Atom  13H    basis set group =>   4
Atom  14H    basis set group =>   4
Atom  15H    basis set group =>   4
Atom  16H    basis set group =>   4
Atom  17C    basis set group =>   2
Atom  18N    basis set group =>   1
Atom  19H    basis set group =>   4
Atom  20O    basis set group =>   3
Atom  21H    basis set group =>   4
Atom  22C    basis set group =>   2
Atom  23H    basis set group =>   4
Atom  24H    basis set group =>   4
Atom  25H    basis set group =>   4
Atom  26C    basis set group =>   2
Atom  27H    basis set group =>   4
Atom  28H    basis set group =>   4
Atom  29H    basis set group =>   4
Atom  30H    basis set group =>   4
Atom  31H    basis set group =>   4
Atom  32H    basis set group =>   4
---------------------------------
AUXILIARY/J BASIS SET INFORMATION
---------------------------------
There are 4 groups of distinct atoms

 Group   1 Type N   : 12s5p4d2f1g contracted to 6s4p3d1f1g pattern {711111/2111/211/2/1}
 Group   2 Type C   : 12s5p4d2f1g contracted to 6s4p3d1f1g pattern {711111/2111/211/2/1}
 Group   3 Type O   : 12s5p4d2f1g contracted to 6s4p3d1f1g pattern {711111/2111/211/2/1}
 Group   4 Type H   : 5s2p1d contracted to 3s1p1d pattern {311/2/1}

Atom   0N    basis set group =>   1
Atom   1C    basis set group =>   2
Atom   2C    basis set group =>   2
Atom   3O    basis set group =>   3
Atom   4C    basis set group =>   2
Atom   5C    basis set group =>   2
Atom   6C    basis set group =>   2
Atom   7C    basis set group =>   2
Atom   8N    basis set group =>   1
Atom   9H    basis set group =>   4
Atom  10H    basis set group =>   4
Atom  11H    basis set group =>   4
Atom  12H    basis set group =>   4
Atom  13H    basis set group =>   4
Atom  14H    basis set group =>   4
Atom  15H    basis set group =>   4
Atom  16H    basis set group =>   4
Atom  17C    basis set group =>   2
Atom  18N    basis set group =>   1
Atom  19H    basis set group =>   4
Atom  20O    basis set group =>   3
Atom  21H    basis set group =>   4
Atom  22C    basis set group =>   2
Atom  23H    basis set group =>   4
Atom  24H    basis set group =>   4
Atom  25H    basis set group =>   4
Atom  26C    basis set group =>   2
Atom  27H    basis set group =>   4
Atom  28H    basis set group =>   4
Atom  29H    basis set group =>   4
Atom  30H    basis set group =>   4
Atom  31H    basis set group =>   4
Atom  32H    basis set group =>   4


           ************************************************************
           *        Program running with 16 parallel MPI-processes    *
           *              working on a common directory               *
           ************************************************************
------------------------------------------------------------------------------
                           ORCA GTO INTEGRAL CALCULATION
                           -- RI-GTO INTEGRALS CHOSEN --
------------------------------------------------------------------------------
------------------------------------------------------------------------------
                   ___                                                        
                  /   \      - P O W E R E D   B Y -                         
                 /     \                                                     
                 |  |  |   _    _      __       _____    __    __             
                 |  |  |  | |  | |    /  \     |  _  \  |  |  /  |          
                  \  \/   | |  | |   /    \    | | | |  |  | /  /          
                 / \  \   | |__| |  /  /\  \   | |_| |  |  |/  /          
                |  |  |   |  __  | /  /__\  \  |    /   |      \           
                |  |  |   | |  | | |   __   |  |    \   |  |\   \          
                \     /   | |  | | |  |  |  |  | |\  \  |  | \   \       
                 \___/    |_|  |_| |__|  |__|  |_| \__\ |__|  \__/        
                                                                              
                      - O R C A' S   B I G   F R I E N D -                    
                                      &                                       
                       - I N T E G R A L  F E E D E R -                       
                                                                              
 v1 FN, 2020, v2 2021                                                         
------------------------------------------------------------------------------


Reading SHARK input file freq.SHARKINP.tmp ... ok
----------------------
SHARK INTEGRAL PACKAGE
----------------------

Number of atoms                             ...     33
Number of basis functions                   ...    548
Number of shells                            ...    230
Maximum angular momentum                    ...      3
Integral batch strategy                     ... SHARK/LIBINT Hybrid
RI-J (if used) integral strategy            ... SPLIT-RIJ (Revised 2003 algorithm where possible)
Printlevel                                  ...      1
Contraction scheme used                     ... SEGMENTED contraction
Coulomb Range Separation                    ... NOT USED
Exchange Range Separation                   ... NOT USED
Finite Nucleus Model                        ... NOT USED
Auxiliary Coulomb fitting basis             ... AVAILABLE
   # of basis functions in Aux-J            ...    895
   # of shells in Aux-J                     ...    305
   Maximum angular momentum in Aux-J        ...      4
Auxiliary J/K fitting basis                 ... NOT available
Auxiliary Correlation fitting basis         ... NOT available
Auxiliary 'external' fitting basis          ... NOT available
Integral threshold                          ...     2.500000e-11
Primitive cut-off                           ...     2.500000e-12
Primitive pair pre-selection threshold      ...     2.500000e-12

Calculating pre-screening integrals         ... done (  0.0 sec) Dimension = 230
Organizing shell pair data                  ... done (  0.1 sec)
Shell pair information
Total number of shell pairs                 ...     26565
Shell pairs after pre-screening             ...     19775
Total number of primitive shell pairs       ...     78180
Primitive shell pairs kept                  ...     40585
          la=0 lb=0:   5990 shell pairs
          la=1 lb=0:   5875 shell pairs
          la=1 lb=1:   1478 shell pairs
          la=2 lb=0:   2613 shell pairs
          la=2 lb=1:   1296 shell pairs
          la=2 lb=2:    309 shell pairs
          la=3 lb=0:   1238 shell pairs
          la=3 lb=1:    623 shell pairs
          la=3 lb=2:    280 shell pairs
          la=3 lb=3:     73 shell pairs

Calculating one electron integrals          ... done (  0.0 sec)
Calculating RI/J V-Matrix + Cholesky decomp.... done (  0.0 sec)
Calculating Nuclear repulsion               ... done (  0.0 sec) ENN=    930.715169393033 Eh

SHARK setup successfully completed in   0.4 seconds

Maximum memory used throughout the entire GTOINT-calculation: 31.4 MB


           ************************************************************
           *        Program running with 16 parallel MPI-processes    *
           *              working on a common directory               *
           ************************************************************
-------------------------------------------------------------------------------
                                 ORCA SCF
-------------------------------------------------------------------------------

------------
SCF SETTINGS
------------
Hamiltonian:
 Density Functional     Method          .... DFT(GTOs)
 Exchange Functional    Exchange        .... M062X
 Correlation Functional Correlation     .... M062X
 Gradients option       PostSCFGGA      .... off
 Hybrid DFT is turned on
   Fraction HF Exchange ScalHFX         ....  0.540000
   Scaling of DF-GGA-X  ScalDFX         ....  0.460000
   Scaling of DF-GGA-C  ScalDFC         ....  1.000000
   Scaling of DF-LDA-C  ScalLDAC        ....  1.000000
   Perturbative correction              ....  0.000000
   Density functional embedding theory  .... OFF
 RI-approximation to the Coulomb term is turned on
   Number of AuxJ basis functions       .... 895
   RIJ-COSX (HFX calculated with COS-X)).... on


General Settings:
 Integral files         IntName         .... freq
 Hartree-Fock type      HFTyp           .... UHF
 Total Charge           Charge          ....    1
 Multiplicity           Mult            ....    2
 Number of Electrons    NEL             ....  109
 Basis Dimension        Dim             ....  548
 Nuclear Repulsion      ENuc            ....    930.7151693930 Eh

Convergence Acceleration:
 DIIS                   CNVDIIS         .... on
   Start iteration      DIISMaxIt       ....    12
   Startup error        DIISStart       ....  0.200000
   # of expansion vecs  DIISMaxEq       ....     5
   Bias factor          DIISBfac        ....   1.050
   Max. coefficient     DIISMaxC        ....  10.000
 Trust-Rad. Augm. Hess. CNVTRAH         .... auto
   Auto Start mean grad. ratio tolernc. ....  1.125000
   Auto Start start iteration           ....    20
   Auto Start num. interpolation iter.  ....    10
   Max. Number of Micro iterations      ....    16
   Max. Number of Macro iterations      .... Maxiter - #DIIS iter
   Number of Davidson start vectors     ....     2
   Converg. threshold I  (grad. norm)   ....   1.000e-05
   Converg. threshold II (energy diff.) ....   1.000e-08
   Grad. Scal. Fac. for Micro threshold ....   0.100
   Minimum threshold for Micro iter.    ....   0.010
   NR start threshold (gradient norm)   ....   0.001
   Initial trust radius                 ....   0.400
   Minimum AH scaling param. (alpha)    ....   1.000
   Maximum AH scaling param. (alpha)    .... 1000.000
   Orbital update algorithm             .... Taylor
   White noise on init. David. guess    .... on
   Maximum white noise                  ....   0.010
   Quad. conv. algorithm                .... NR
 SOSCF                  CNVSOSCF        .... off
 Level Shifting         CNVShift        .... on
   Level shift para.    LevelShift      ....    0.2500
   Turn off err/grad.   ShiftErr        ....    0.0010
 Zerner damping         CNVZerner       .... off
 Static damping         CNVDamp         .... on
   Fraction old density DampFac         ....    0.7000
   Max. Damping (<1)    DampMax         ....    0.9800
   Min. Damping (>=0)   DampMin         ....    0.0000
   Turn off err/grad.   DampErr         ....    0.1000
 Fernandez-Rico         CNVRico         .... off

SCF Procedure:
 Maximum # iterations   MaxIter         ....   125
 SCF integral mode      SCFMode         .... Direct
   Integral package                     .... SHARK and LIBINT hybrid scheme
 Reset frequency        DirectResetFreq ....    20
 Integral Threshold     Thresh          ....  2.500e-11 Eh
 Primitive CutOff       TCut            ....  2.500e-12 Eh

Convergence Tolerance:
 Convergence Check Mode ConvCheckMode   .... Total+1el-Energy
 Convergence forced     ConvForced      .... 0
 Energy Change          TolE            ....  1.000e-08 Eh
 1-El. energy change                    ....  1.000e-05 Eh
 DIIS Error             TolErr          ....  5.000e-07


Diagonalization of the overlap matrix:
Smallest eigenvalue                        ... 6.455e-05
Time for diagonalization                   ...    0.036 sec
Threshold for overlap eigenvalues          ... 1.000e-08
Number of eigenvalues below threshold      ... 0
Time for construction of square roots      ...    0.023 sec
Total time needed                          ...    0.061 sec

Time for model grid setup =    0.125 sec

------------------------------
INITIAL GUESS: MODEL POTENTIAL
------------------------------
Loading Hartree-Fock densities                     ... done
Calculating cut-offs                               ... done
Initializing the effective Hamiltonian             ... done
Setting up the integral package (SHARK)            ... done
Starting the Coulomb interaction                   ... done (   0.1 sec)
Reading the grid                                   ... done
Mapping shells                                     ... done
Starting the XC term evaluation                    ... done (   0.1 sec)
  promolecular density results
     # of electrons  =    109.995240214
     EX              =    -87.567607175
     EC              =     -3.646404507
     EX+EC           =    -91.214011681
Transforming the Hamiltonian                       ... done (   0.0 sec)
Diagonalizing the Hamiltonian                      ... done (   0.0 sec)
Back transforming the eigenvectors                 ... done (   0.0 sec)
Now organizing SCF variables                       ... done
                      ------------------
                      INITIAL GUESS DONE (   0.4 sec)
                      ------------------
-------------------
DFT GRID GENERATION
-------------------

General Integration Accuracy     IntAcc      ... 4.388
Radial Grid Type                 RadialGrid  ... OptM3 with GC (2021)
Angular Grid (max. ang.)         AngularGrid ... 4 (Lebedev-302)
Angular grid pruning method      GridPruning ... 4 (adaptive)
Weight generation scheme         WeightScheme... Becke
Basis function cutoff            BFCut       ... 1.0000e-11
Integration weight cutoff        WCut        ... 1.0000e-14
Angular grids for H and He will be reduced by one unit
Partially contracted basis set               ... off
Rotationally invariant grid construction     ... off

Total number of grid points                  ...   144847
Total number of batches                      ...     2281
Average number of points per batch           ...       63
Average number of grid points per atom       ...     4389
Time for grid setup =    0.624 sec

--------------------
COSX GRID GENERATION
--------------------

GRIDX 1
-------
General Integration Accuracy     IntAcc      ... 3.816
Radial Grid Type                 RadialGrid  ... OptM3 with GC (2021)
Angular Grid (max. ang.)         AngularGrid ... 1 (Lebedev-50)
Angular grid pruning method      GridPruning ... 4 (adaptive)
Weight generation scheme         WeightScheme... Becke
Basis function cutoff            BFCut       ... 1.0000e-11
Integration weight cutoff        WCut        ... 1.0000e-14
Angular grids for H and He will be reduced by one unit
Partially contracted basis set               ... on
Rotationally invariant grid construction     ... off

Total number of grid points                  ...    18494
Total number of batches                      ...      310
Average number of points per batch           ...       59
Average number of grid points per atom       ...      560
UseSFitting                                  ... on

GRIDX 2
-------
General Integration Accuracy     IntAcc      ... 4.020
Radial Grid Type                 RadialGrid  ... OptM3 with GC (2021)
Angular Grid (max. ang.)         AngularGrid ... 2 (Lebedev-110)
Angular grid pruning method      GridPruning ... 4 (adaptive)
Weight generation scheme         WeightScheme... Becke
Basis function cutoff            BFCut       ... 1.0000e-11
Integration weight cutoff        WCut        ... 1.0000e-14
Angular grids for H and He will be reduced by one unit
Partially contracted basis set               ... on
Rotationally invariant grid construction     ... off

Total number of grid points                  ...    39038
Total number of batches                      ...      627
Average number of points per batch           ...       62
Average number of grid points per atom       ...     1183
UseSFitting                                  ... on

GRIDX 3
-------
General Integration Accuracy     IntAcc      ... 4.338
Radial Grid Type                 RadialGrid  ... OptM3 with GC (2021)
Angular Grid (max. ang.)         AngularGrid ... 3 (Lebedev-194)
Angular grid pruning method      GridPruning ... 4 (adaptive)
Weight generation scheme         WeightScheme... Becke
Basis function cutoff            BFCut       ... 1.0000e-11
Integration weight cutoff        WCut        ... 1.0000e-14
Angular grids for H and He will be reduced by one unit
Partially contracted basis set               ... on
Rotationally invariant grid construction     ... off

Total number of grid points                  ...    85142
Total number of batches                      ...     1350
Average number of points per batch           ...       63
Average number of grid points per atom       ...     2580
UseSFitting                                  ... on

Time for X-Grid setup             =    0.791 sec

--------------
SCF ITERATIONS
--------------
ITER       Energy         Delta-E        Max-DP      RMS-DP      [F,P]     Damp
               ***  Starting incremental Fock matrix formation  ***
  0   -668.3491249694   0.000000000000 0.06301997  0.00042067  0.1512006 0.7000
  1   -668.5460722264  -0.196947257027 0.06677822  0.00035591  0.0722210 0.7000
                               ***Turning on DIIS***
  2   -668.6346599608  -0.088587734430 0.14401821  0.00073095  0.0259576 0.0000
  3   -668.7780666145  -0.143406653655 0.02988351  0.00023828  0.0346698 0.0000
  4   -668.8034029319  -0.025336317372 0.00544897  0.00007592  0.0054148 0.0000
  5   -668.8044140746  -0.001011142765 0.00272638  0.00003504  0.0034323 0.0000
  6   -668.8046376803  -0.000223605711 0.00286913  0.00002814  0.0008876 0.0000
               *** Restarting incremental Fock matrix formation ***
                                   *** Resetting DIIS ***
  7   -668.8046366501   0.000001030198 0.00070402  0.00001046  0.0005692 0.0000
  8   -668.8046366753  -0.000000025171 0.00031759  0.00000394  0.0007508 0.0000
  9   -668.8046471271  -0.000010451823 0.00017053  0.00000201  0.0001511 0.0000
 10   -668.8046476720  -0.000000544896 0.00010548  0.00000094  0.0001057 0.0000
 11   -668.8046479507  -0.000000278644 0.00005902  0.00000035  0.0000361 0.0000
 12   -668.8046479700  -0.000000019332 0.00001285  0.00000011  0.0000123 0.0000
 13   -668.8046479503   0.000000019721 0.00000803  0.00000005  0.0000029 0.0000
 14   -668.8046479704  -0.000000020146 0.00000608  0.00000003  0.0000016 0.0000
                            ***DIIS convergence achieved***

               *****************************************************
               *                     SUCCESS                       *
               *           SCF CONVERGED AFTER  15 CYCLES          *
               *****************************************************

Old exchange energy                            =    -48.306818926 Eh
New exchange energy                            =    -48.306832548 Eh
Exchange energy change after final integration =     -0.000013621 Eh
Total energy after final integration           =   -668.804661596 Eh
Final COS-X integration done in                =     4.744 sec

----------------
TOTAL SCF ENERGY
----------------

Total Energy       :         -668.80466160 Eh          -18199.10007 eV

Components:
Nuclear Repulsion  :          930.71516939 Eh           25326.04731 eV
Electronic Energy  :        -1599.51983099 Eh          -43525.14738 eV
One Electron Energy:        -2741.87192205 Eh          -74610.12810 eV
Two Electron Energy:         1142.35209106 Eh           31084.98073 eV
Max COSX asymmetry :            0.00000234 Eh               0.00006 eV

Virial components:
Potential Energy   :        -1333.93266374 Eh          -36298.15314 eV
Kinetic Energy     :          665.12800214 Eh           18099.05308 eV
Virial Ratio       :            2.00552775


DFT components:
N(Alpha)           :       55.000125173060 electrons
N(Beta)            :       54.000091916081 electrons
N(Total)           :      109.000217089141 electrons
E(XC)              :      -45.044353557102 Eh       
DFET-embed. en.    :        0.000000000000 Eh       

---------------
SCF CONVERGENCE
---------------

  Last Energy change         ...   -4.2638e-09  Tolerance :   1.0000e-08
  Last MAX-Density change    ...    0.0000e+00  Tolerance :   1.0000e-07
  Last RMS-Density change    ...    0.0000e+00  Tolerance :   5.0000e-09
  Last DIIS Error            ...    9.8757e-07  Tolerance :   5.0000e-07

             **** THE GBW FILE WAS UPDATED (freq.gbw) ****
             **** DENSITY freq.scfp WAS UPDATED ****
             **** ENERGY FILE WAS UPDATED (freq.en.tmp) ****
----------------------
UHF SPIN CONTAMINATION
----------------------

Warning: in a DFT calculation there is little theoretical justification to 
         calculate <S**2> as in Hartree-Fock theory. We will do it anyways
         but you should keep in mind that the values have only limited relevance

Expectation value of <S**2>     :     0.755332
Ideal value S*(S+1) for S=0.5   :     0.750000
Deviation                       :     0.005332

             **** THE GBW FILE WAS UPDATED (freq.gbw) ****
             **** DENSITY freq.scfp WAS UPDATED ****
----------------
ORBITAL ENERGIES
----------------
                 SPIN UP ORBITALS
  NO   OCC          E(Eh)            E(eV) 
   0   1.0000     -19.693253      -535.8807 
   1   1.0000     -19.671780      -535.2964 
   2   1.0000     -15.065576      -409.9552 
   3   1.0000     -14.874416      -404.7534 
   4   1.0000     -14.858578      -404.3225 
   5   1.0000     -10.780902      -293.3633 
   6   1.0000     -10.745301      -292.3945 
   7   1.0000     -10.728195      -291.9290 
   8   1.0000     -10.709768      -291.4276 
   9   1.0000     -10.690503      -290.9034 
  10   1.0000     -10.678029      -290.5640 
  11   1.0000     -10.655272      -289.9447 
  12   1.0000     -10.655036      -289.9383 
  13   1.0000     -10.618254      -288.9374 
  14   1.0000      -1.302990       -35.4562 
  15   1.0000      -1.256394       -34.1882 
  16   1.0000      -1.234971       -33.6053 
  17   1.0000      -1.127129       -30.6707 
  18   1.0000      -1.118681       -30.4408 
  19   1.0000      -1.063704       -28.9448 
  20   1.0000      -0.994712       -27.0675 
  21   1.0000      -0.943487       -25.6736 
  22   1.0000      -0.905752       -24.6468 
  23   1.0000      -0.897207       -24.4143 
  24   1.0000      -0.859789       -23.3960 
  25   1.0000      -0.855572       -23.2813 
  26   1.0000      -0.833348       -22.6765 
  27   1.0000      -0.793680       -21.5971 
  28   1.0000      -0.764356       -20.7992 
  29   1.0000      -0.752052       -20.4644 
  30   1.0000      -0.734155       -19.9774 
  31   1.0000      -0.704820       -19.1791 
  32   1.0000      -0.699664       -19.0388 
  33   1.0000      -0.661066       -17.9885 
  34   1.0000      -0.653247       -17.7758 
  35   1.0000      -0.633232       -17.2311 
  36   1.0000      -0.627746       -17.0818 
  37   1.0000      -0.620365       -16.8810 
  38   1.0000      -0.615379       -16.7453 
  39   1.0000      -0.604436       -16.4476 
  40   1.0000      -0.599446       -16.3117 
  41   1.0000      -0.582177       -15.8418 
  42   1.0000      -0.569839       -15.5061 
  43   1.0000      -0.561298       -15.2737 
  44   1.0000      -0.556556       -15.1447 
  45   1.0000      -0.546323       -14.8662 
  46   1.0000      -0.542007       -14.7488 
  47   1.0000      -0.534560       -14.5461 
  48   1.0000      -0.530139       -14.4258 
  49   1.0000      -0.500577       -13.6214 
  50   1.0000      -0.436287       -11.8720 
  51   1.0000      -0.419981       -11.4283 
  52   1.0000      -0.413694       -11.2572 
  53   1.0000      -0.406098       -11.0505 
  54   1.0000      -0.373900       -10.1743 
  55   0.0000      -0.151631        -4.1261 
  56   0.0000      -0.087803        -2.3892 
  57   0.0000      -0.084066        -2.2875 
  58   0.0000      -0.065767        -1.7896 
  59   0.0000      -0.048582        -1.3220 
  60   0.0000      -0.032748        -0.8911 
  61   0.0000      -0.029721        -0.8087 
  62   0.0000      -0.020526        -0.5585 
  63   0.0000      -0.017440        -0.4746 
  64   0.0000      -0.014926        -0.4062 
  65   0.0000      -0.002850        -0.0776 
  66   0.0000       0.006598         0.1796 
  67   0.0000       0.016697         0.4543 
  68   0.0000       0.020863         0.5677 
  69   0.0000       0.026704         0.7267 
  70   0.0000       0.031295         0.8516 
  71   0.0000       0.042070         1.1448 
  72   0.0000       0.047921         1.3040 
  73   0.0000       0.059346         1.6149 
  74   0.0000       0.059646         1.6230 
  75   0.0000       0.064193         1.7468 
  76   0.0000       0.073475         1.9994 
  77   0.0000       0.077695         2.1142 
  78   0.0000       0.087173         2.3721 
  79   0.0000       0.091475         2.4892 
  80   0.0000       0.092755         2.5240 
  81   0.0000       0.096090         2.6148 
  82   0.0000       0.106857         2.9077 
  83   0.0000       0.116567         3.1719 
  84   0.0000       0.123496         3.3605 
  85   0.0000       0.126502         3.4423 
  86   0.0000       0.134063         3.6480 
  87   0.0000       0.135829         3.6961 
  88   0.0000       0.145862         3.9691 
  89   0.0000       0.158863         4.3229 
  90   0.0000       0.163267         4.4427 
  91   0.0000       0.170098         4.6286 
  92   0.0000       0.171728         4.6730 
  93   0.0000       0.183009         4.9799 
  94   0.0000       0.188504         5.1295 
  95   0.0000       0.196155         5.3377 
  96   0.0000       0.198883         5.4119 
  97   0.0000       0.202860         5.5201 
  98   0.0000       0.222016         6.0413 
  99   0.0000       0.235964         6.4209 
 100   0.0000       0.236169         6.4265 
 101   0.0000       0.247325         6.7301 
 102   0.0000       0.258904         7.0451 
 103   0.0000       0.268323         7.3014 
 104   0.0000       0.275303         7.4914 
 105   0.0000       0.277417         7.5489 
 106   0.0000       0.282662         7.6916 
 107   0.0000       0.291933         7.9439 
 108   0.0000       0.296677         8.0730 
 109   0.0000       0.299743         8.1564 
 110   0.0000       0.306536         8.3413 
 111   0.0000       0.312246         8.4966 
 112   0.0000       0.316736         8.6188 
 113   0.0000       0.319746         8.7007 
 114   0.0000       0.328175         8.9301 
 115   0.0000       0.332060         9.0358 
 116   0.0000       0.336934         9.1685 
 117   0.0000       0.341871         9.3028 
 118   0.0000       0.346713         9.4345 
 119   0.0000       0.354394         9.6436 
 120   0.0000       0.361788         9.8447 
 121   0.0000       0.362992         9.8775 
 122   0.0000       0.369236        10.0474 
 123   0.0000       0.372749        10.1430 
 124   0.0000       0.375317        10.2129 
 125   0.0000       0.380007        10.3405 
 126   0.0000       0.383826        10.4444 
 127   0.0000       0.394750        10.7417 
 128   0.0000       0.400373        10.8947 
 129   0.0000       0.409545        11.1443 
 130   0.0000       0.415277        11.3002 
 131   0.0000       0.420051        11.4302 
 132   0.0000       0.428796        11.6681 
 133   0.0000       0.434053        11.8112 
 134   0.0000       0.436205        11.8697 
 135   0.0000       0.446335        12.1454 
 136   0.0000       0.450111        12.2482 
 137   0.0000       0.460473        12.5301 
 138   0.0000       0.463587        12.6148 
 139   0.0000       0.479126        13.0377 
 140   0.0000       0.486706        13.2440 
 141   0.0000       0.493570        13.4307 
 142   0.0000       0.500439        13.6176 
 143   0.0000       0.506669        13.7872 
 144   0.0000       0.507988        13.8231 
 145   0.0000       0.519587        14.1387 
 146   0.0000       0.524935        14.2842 
 147   0.0000       0.530499        14.4356 
 148   0.0000       0.540770        14.7151 
 149   0.0000       0.548267        14.9191 
 150   0.0000       0.551868        15.0171 
 151   0.0000       0.581940        15.8354 
 152   0.0000       0.584002        15.8915 
 153   0.0000       0.592144        16.1131 
 154   0.0000       0.603694        16.4273 
 155   0.0000       0.628853        17.1120 
 156   0.0000       0.640069        17.4172 
 157   0.0000       0.646864        17.6021 
 158   0.0000       0.655688        17.8422 
 159   0.0000       0.671958        18.2849 
 160   0.0000       0.681245        18.5376 
 161   0.0000       0.687611        18.7108 
 162   0.0000       0.698017        18.9940 
 163   0.0000       0.713295        19.4097 
 164   0.0000       0.725248        19.7350 
 165   0.0000       0.730345        19.8737 
 166   0.0000       0.740810        20.1585 
 167   0.0000       0.746397        20.3105 
 168   0.0000       0.767717        20.8907 
 169   0.0000       0.775386        21.0993 
 170   0.0000       0.792917        21.5764 
 171   0.0000       0.799494        21.7553 
 172   0.0000       0.805416        21.9165 
 173   0.0000       0.829241        22.5648 
 174   0.0000       0.843443        22.9513 
 175   0.0000       0.848507        23.0890 
 176   0.0000       0.860322        23.4106 
 177   0.0000       0.880480        23.9591 
 178   0.0000       0.888010        24.1640 
 179   0.0000       0.903749        24.5923 
 180   0.0000       0.915526        24.9127 
 181   0.0000       0.922999        25.1161 
 182   0.0000       0.928869        25.2758 
 183   0.0000       0.935403        25.4536 
 184   0.0000       0.952652        25.9230 
 185   0.0000       0.957879        26.0652 
 186   0.0000       0.980185        26.6722 
 187   0.0000       0.988825        26.9073 
 188   0.0000       0.998475        27.1699 
 189   0.0000       1.002702        27.2849 
 190   0.0000       1.018445        27.7133 
 191   0.0000       1.024411        27.8757 
 192   0.0000       1.029948        28.0263 
 193   0.0000       1.035479        28.1768 
 194   0.0000       1.051259        28.6062 
 195   0.0000       1.070842        29.1391 
 196   0.0000       1.079828        29.3836 
 197   0.0000       1.087810        29.6008 
 198   0.0000       1.097414        29.8622 
 199   0.0000       1.112833        30.2817 
 200   0.0000       1.128801        30.7162 
 201   0.0000       1.145604        31.1735 
 202   0.0000       1.149860        31.2893 
 203   0.0000       1.168721        31.8025 
 204   0.0000       1.171688        31.8833 
 205   0.0000       1.195842        32.5405 
 206   0.0000       1.206713        32.8363 
 207   0.0000       1.216040        33.0901 
 208   0.0000       1.236816        33.6555 
 209   0.0000       1.238023        33.6883 
 210   0.0000       1.248421        33.9713 
 211   0.0000       1.257015        34.2051 
 212   0.0000       1.290730        35.1225 
 213   0.0000       1.319743        35.9120 
 214   0.0000       1.326372        36.0924 
 215   0.0000       1.335784        36.3485 
 216   0.0000       1.348524        36.6952 
 217   0.0000       1.365264        37.1507 
 218   0.0000       1.374561        37.4037 
 219   0.0000       1.377947        37.4958 
 220   0.0000       1.402649        38.1680 
 221   0.0000       1.413184        38.4547 
 222   0.0000       1.425408        38.7873 
 223   0.0000       1.433337        39.0031 
 224   0.0000       1.440955        39.2104 
 225   0.0000       1.451453        39.4961 
 226   0.0000       1.460886        39.7527 
 227   0.0000       1.463324        39.8191 
 228   0.0000       1.473422        40.0939 
 229   0.0000       1.474459        40.1221 
 230   0.0000       1.482398        40.3381 
 231   0.0000       1.491686        40.5909 
 232   0.0000       1.499334        40.7989 
 233   0.0000       1.505385        40.9636 
 234   0.0000       1.511754        41.1369 
 235   0.0000       1.521005        41.3886 
 236   0.0000       1.533281        41.7227 
 237   0.0000       1.537617        41.8407 
 238   0.0000       1.549772        42.1714 
 239   0.0000       1.562390        42.5148 
 240   0.0000       1.570334        42.7310 
 241   0.0000       1.574242        42.8373 
 242   0.0000       1.577248        42.9191 
 243   0.0000       1.603471        43.6327 
 244   0.0000       1.604045        43.6483 
 245   0.0000       1.611755        43.8581 
 246   0.0000       1.618158        44.0323 
 247   0.0000       1.627375        44.2831 
 248   0.0000       1.637238        44.5515 
 249   0.0000       1.650115        44.9019 
 250   0.0000       1.673285        45.5324 
 251   0.0000       1.677732        45.6534 
 252   0.0000       1.691140        46.0182 
 253   0.0000       1.706362        46.4325 
 254   0.0000       1.712815        46.6081 
 255   0.0000       1.718294        46.7572 
 256   0.0000       1.725856        46.9629 
 257   0.0000       1.733497        47.1709 
 258   0.0000       1.744686        47.4753 
 259   0.0000       1.759474        47.8777 
 260   0.0000       1.764268        48.0082 
 261   0.0000       1.794822        48.8396 
 262   0.0000       1.802675        49.0533 
 263   0.0000       1.808498        49.2117 
 264   0.0000       1.818104        49.4731 
 265   0.0000       1.822552        49.5941 
 266   0.0000       1.833410        49.8896 
 267   0.0000       1.840164        50.0734 
 268   0.0000       1.861680        50.6589 
 269   0.0000       1.868460        50.8434 
 270   0.0000       1.889617        51.4191 
 271   0.0000       1.901585        51.7448 
 272   0.0000       1.912109        52.0311 
 273   0.0000       1.919179        52.2235 
 274   0.0000       1.925606        52.3984 
 275   0.0000       1.938696        52.7546 
 276   0.0000       1.949690        53.0538 
 277   0.0000       1.970000        53.6064 
 278   0.0000       1.981704        53.9249 
 279   0.0000       1.992855        54.2284 
 280   0.0000       2.006328        54.5950 
 281   0.0000       2.013128        54.7800 
 282   0.0000       2.052272        55.8452 
 283   0.0000       2.066749        56.2391 
 284   0.0000       2.072688        56.4007 
 285   0.0000       2.080140        56.6035 
 286   0.0000       2.093240        56.9600 
 287   0.0000       2.104745        57.2730 
 288   0.0000       2.127449        57.8908 
 289   0.0000       2.130421        57.9717 
 290   0.0000       2.137777        58.1719 
 291   0.0000       2.152609        58.5755 
 292   0.0000       2.166806        58.9618 
 293   0.0000       2.175576        59.2004 
 294   0.0000       2.180990        59.3478 
 295   0.0000       2.188273        59.5459 
 296   0.0000       2.194955        59.7278 
 297   0.0000       2.206873        60.0521 
 298   0.0000       2.218639        60.3722 
 299   0.0000       2.232599        60.7521 
 300   0.0000       2.234604        60.8067 
 301   0.0000       2.249479        61.2114 
 302   0.0000       2.262342        61.5615 
 303   0.0000       2.266854        61.6842 
 304   0.0000       2.271203        61.8026 
 305   0.0000       2.289212        62.2926 
 306   0.0000       2.294801        62.4447 
 307   0.0000       2.302833        62.6633 
 308   0.0000       2.315570        63.0099 
 309   0.0000       2.322439        63.1968 
 310   0.0000       2.352846        64.0242 
 311   0.0000       2.357628        64.1543 
 312   0.0000       2.368168        64.4411 
 313   0.0000       2.376963        64.6805 
 314   0.0000       2.384979        64.8986 
 315   0.0000       2.400119        65.3105 
 316   0.0000       2.407347        65.5072 
 317   0.0000       2.415837        65.7383 
 318   0.0000       2.425910        66.0124 
 319   0.0000       2.446169        66.5636 
 320   0.0000       2.457164        66.8628 
 321   0.0000       2.466348        67.1127 
 322   0.0000       2.475712        67.3675 
 323   0.0000       2.485057        67.6218 
 324   0.0000       2.489565        67.7445 
 325   0.0000       2.500663        68.0465 
 326   0.0000       2.507258        68.2260 
 327   0.0000       2.513859        68.4056 
 328   0.0000       2.528040        68.7915 
 329   0.0000       2.537769        69.0562 
 330   0.0000       2.543846        69.2216 
 331   0.0000       2.553776        69.4918 
 332   0.0000       2.555400        69.5360 
 333   0.0000       2.559522        69.6481 
 334   0.0000       2.570225        69.9394 
 335   0.0000       2.591405        70.5157 
 336   0.0000       2.599701        70.7415 
 337   0.0000       2.615577        71.1735 
 338   0.0000       2.634649        71.6924 
 339   0.0000       2.638042        71.7848 
 340   0.0000       2.655483        72.2594 
 341   0.0000       2.666533        72.5600 
 342   0.0000       2.678526        72.8864 
 343   0.0000       2.680176        72.9313 
 344   0.0000       2.705359        73.6166 
 345   0.0000       2.718307        73.9689 
 346   0.0000       2.727510        74.2193 
 347   0.0000       2.753156        74.9172 
 348   0.0000       2.772184        75.4350 
 349   0.0000       2.775113        75.5147 
 350   0.0000       2.796936        76.1085 
 351   0.0000       2.799654        76.1825 
 352   0.0000       2.816221        76.6333 
 353   0.0000       2.834104        77.1199 
 354   0.0000       2.851079        77.5818 
 355   0.0000       2.858128        77.7736 
 356   0.0000       2.867600        78.0314 
 357   0.0000       2.872324        78.1599 
 358   0.0000       2.876171        78.2646 
 359   0.0000       2.885396        78.5156 
 360   0.0000       2.905206        79.0547 
 361   0.0000       2.912495        79.2530 
 362   0.0000       2.921828        79.5070 
 363   0.0000       2.936357        79.9023 
 364   0.0000       2.945667        80.1557 
 365   0.0000       2.955274        80.4171 
 366   0.0000       2.968539        80.7780 
 367   0.0000       2.977484        81.0215 
 368   0.0000       2.982700        81.1634 
 369   0.0000       2.990116        81.3652 
 370   0.0000       3.002709        81.7079 
 371   0.0000       3.013187        81.9930 
 372   0.0000       3.029771        82.4443 
 373   0.0000       3.040169        82.7272 
 374   0.0000       3.045262        82.8658 
 375   0.0000       3.055961        83.1569 
 376   0.0000       3.062024        83.3219 
 377   0.0000       3.070479        83.5520 
 378   0.0000       3.072387        83.6039 
 379   0.0000       3.084851        83.9431 
 380   0.0000       3.091001        84.1104 
 381   0.0000       3.106267        84.5258 
 382   0.0000       3.112713        84.7012 
 383   0.0000       3.119277        84.8798 
 384   0.0000       3.137700        85.3812 
 385   0.0000       3.154740        85.8448 
 386   0.0000       3.161168        86.0198 
 387   0.0000       3.168254        86.2126 
 388   0.0000       3.181898        86.5838 
 389   0.0000       3.187293        86.7307 
 390   0.0000       3.193821        86.9083 
 391   0.0000       3.207077        87.2690 
 392   0.0000       3.224720        87.7491 
 393   0.0000       3.226927        87.8091 
 394   0.0000       3.242657        88.2372 
 395   0.0000       3.248468        88.3953 
 396   0.0000       3.258815        88.6769 
 397   0.0000       3.270074        88.9832 
 398   0.0000       3.281864        89.3040 
 399   0.0000       3.283483        89.3481 
 400   0.0000       3.294990        89.6612 
 401   0.0000       3.303024        89.8799 
 402   0.0000       3.315777        90.2269 
 403   0.0000       3.325428        90.4895 
 404   0.0000       3.326076        90.5071 
 405   0.0000       3.340052        90.8874 
 406   0.0000       3.355228        91.3004 
 407   0.0000       3.358483        91.3890 
 408   0.0000       3.382047        92.0302 
 409   0.0000       3.385717        92.1300 
 410   0.0000       3.397836        92.4598 
 411   0.0000       3.424448        93.1840 
 412   0.0000       3.447454        93.8100 
 413   0.0000       3.449343        93.8614 
 414   0.0000       3.462658        94.2237 
 415   0.0000       3.477751        94.6344 
 416   0.0000       3.484908        94.8292 
 417   0.0000       3.502047        95.2955 
 418   0.0000       3.514614        95.6375 
 419   0.0000       3.533113        96.1409 
 420   0.0000       3.538196        96.2792 
 421   0.0000       3.550383        96.6108 
 422   0.0000       3.584305        97.5339 
 423   0.0000       3.609725        98.2256 
 424   0.0000       3.644498        99.1718 
 425   0.0000       3.653006        99.4033 
 426   0.0000       3.668087        99.8137 
 427   0.0000       3.674085        99.9769 
 428   0.0000       3.681132       100.1687 
 429   0.0000       3.697867       100.6241 
 430   0.0000       3.706015       100.8458 
 431   0.0000       3.722307       101.2891 
 432   0.0000       3.731087       101.5280 
 433   0.0000       3.764605       102.4401 
 434   0.0000       3.767499       102.5189 
 435   0.0000       3.787406       103.0606 
 436   0.0000       3.800333       103.4123 
 437   0.0000       3.808928       103.6462 
 438   0.0000       3.837384       104.4205 
 439   0.0000       3.852491       104.8316 
 440   0.0000       3.859352       105.0183 
 441   0.0000       3.902035       106.1798 
 442   0.0000       3.912280       106.4585 
 443   0.0000       3.943060       107.2961 
 444   0.0000       3.971483       108.0695 
 445   0.0000       3.985389       108.4479 
 446   0.0000       4.003461       108.9397 
 447   0.0000       4.027600       109.5966 
 448   0.0000       4.037194       109.8576 
 449   0.0000       4.070581       110.7661 
 450   0.0000       4.093679       111.3947 
 451   0.0000       4.108203       111.7899 
 452   0.0000       4.121283       112.1458 
 453   0.0000       4.160233       113.2057 
 454   0.0000       4.176054       113.6362 
 455   0.0000       4.232443       115.1706 
 456   0.0000       4.235739       115.2603 
 457   0.0000       4.260399       115.9313 
 458   0.0000       4.275694       116.3476 
 459   0.0000       4.287537       116.6698 
 460   0.0000       4.298305       116.9628 
 461   0.0000       4.308146       117.2306 
 462   0.0000       4.334046       117.9354 
 463   0.0000       4.337701       118.0348 
 464   0.0000       4.358254       118.5941 
 465   0.0000       4.416412       120.1767 
 466   0.0000       4.421884       120.3256 
 467   0.0000       4.442594       120.8891 
 468   0.0000       4.448767       121.0571 
 469   0.0000       4.468076       121.5825 
 470   0.0000       4.485699       122.0621 
 471   0.0000       4.513147       122.8090 
 472   0.0000       4.535331       123.4126 
 473   0.0000       4.548931       123.7827 
 474   0.0000       4.584517       124.7511 
 475   0.0000       4.608280       125.3977 
 476   0.0000       4.620359       125.7264 
 477   0.0000       4.627787       125.9285 
 478   0.0000       4.657908       126.7481 
 479   0.0000       4.662427       126.8711 
 480   0.0000       4.679019       127.3226 
 481   0.0000       4.705035       128.0305 
 482   0.0000       4.723801       128.5412 
 483   0.0000       4.735647       128.8635 
 484   0.0000       4.782390       130.1355 
 485   0.0000       4.795669       130.4968 
 486   0.0000       4.826581       131.3380 
 487   0.0000       4.890233       133.0700 
 488   0.0000       4.931437       134.1912 
 489   0.0000       4.935930       134.3135 
 490   0.0000       4.947261       134.6218 
 491   0.0000       4.968136       135.1899 
 492   0.0000       4.992378       135.8495 
 493   0.0000       5.000280       136.0645 
 494   0.0000       5.018964       136.5729 
 495   0.0000       5.087849       138.4474 
 496   0.0000       5.102391       138.8431 
 497   0.0000       5.122924       139.4019 
 498   0.0000       5.130769       139.6153 
 499   0.0000       5.143938       139.9737 
 500   0.0000       5.173727       140.7843 
 501   0.0000       5.191637       141.2716 
 502   0.0000       5.201100       141.5291 
 503   0.0000       5.216480       141.9476 
 504   0.0000       5.225146       142.1834 
 505   0.0000       5.266219       143.3011 
 506   0.0000       5.315100       144.6312 
 507   0.0000       5.351606       145.6246 
 508   0.0000       5.389900       146.6666 
 509   0.0000       5.425827       147.6443 
 510   0.0000       5.498196       149.6135 
 511   0.0000       5.513608       150.0329 
 512   0.0000       5.565440       151.4433 
 513   0.0000       5.581712       151.8861 
 514   0.0000       5.637529       153.4050 
 515   0.0000       5.680111       154.5637 
 516   0.0000       5.784587       157.4066 
 517   0.0000       5.813605       158.1962 
 518   0.0000       6.002348       163.3322 
 519   0.0000       6.017004       163.7310 
 520   0.0000       6.206986       168.9007 
 521   0.0000       6.216603       169.1624 
 522   0.0000       6.349278       172.7726 
 523   0.0000       6.366717       173.2472 
 524   0.0000       6.467019       175.9765 
 525   0.0000       6.471405       176.0959 
 526   0.0000       6.558661       178.4702 
 527   0.0000       6.573737       178.8805 
 528   0.0000       6.750882       183.7008 
 529   0.0000       6.754554       183.8008 
 530   0.0000       6.965619       189.5441 
 531   0.0000       6.984775       190.0654 
 532   0.0000       6.994790       190.3379 
 533   0.0000       7.001405       190.5179 
 534   0.0000      22.207063       604.2849 
 535   0.0000      22.323855       607.4630 
 536   0.0000      22.346682       608.0841 
 537   0.0000      22.391182       609.2950 
 538   0.0000      22.425370       610.2253 
 539   0.0000      22.529213       613.0511 
 540   0.0000      22.685366       617.3002 
 541   0.0000      23.277104       633.4022 
 542   0.0000      23.299097       634.0007 
 543   0.0000      31.758670       864.1973 
 544   0.0000      32.406136       881.8158 
 545   0.0000      32.573423       886.3679 
 546   0.0000      43.981632      1196.8011 
 547   0.0000      44.052362      1198.7257 

                 SPIN DOWN ORBITALS
  NO   OCC          E(Eh)            E(eV) 
   0   1.0000     -19.693231      -535.8801 
   1   1.0000     -19.671718      -535.2947 
   2   1.0000     -15.065549      -409.9544 
   3   1.0000     -14.874423      -404.7536 
   4   1.0000     -14.858512      -404.3207 
   5   1.0000     -10.780583      -293.3546 
   6   1.0000     -10.745306      -292.3947 
   7   1.0000     -10.728202      -291.9292 
   8   1.0000     -10.710495      -291.4474 
   9   1.0000     -10.690438      -290.9016 
  10   1.0000     -10.671082      -290.3749 
  11   1.0000     -10.655647      -289.9549 
  12   1.0000     -10.655272      -289.9447 
  13   1.0000     -10.618253      -288.9374 
  14   1.0000      -1.302811       -35.4513 
  15   1.0000      -1.256317       -34.1861 
  16   1.0000      -1.234844       -33.6018 
  17   1.0000      -1.127123       -30.6706 
  18   1.0000      -1.118212       -30.4281 
  19   1.0000      -1.055964       -28.7342 
  20   1.0000      -0.987710       -26.8770 
[...]
     44      -0.445549  -0.000471  -0.000137
     45      -0.167641  -0.000174   0.000135
     46       0.025314  -0.000061  -0.000053
     47      -0.165802  -0.000217   0.000162
     48      -0.000423   0.553527  -0.027890
     49       0.000182  -0.239119   0.012259
     50       0.000574  -0.792613   0.041165
     51       0.000018  -0.000954   0.000060
     52       0.000004  -0.000198   0.000076
     53      -0.000018  -0.000500   0.000178
     54       0.000007   0.001580   0.035951
     55       0.000005  -0.002113  -0.044864
     56       0.000001  -0.002388  -0.045566
     57       0.000000  -0.025219  -0.477810
     58       0.000084   0.031990   0.611795
     59      -0.000001   0.031583   0.623828
     60      -0.000006   0.000497  -0.000001
     61       0.000013  -0.000428  -0.000009
     62       0.000005  -0.001441   0.000006
     63       0.472457  -0.000025  -0.000436
     64      -0.034198  -0.000061   0.000006
     65      -0.207934  -0.000016   0.000205
     66       0.000004   0.000068   0.000824
     67       0.000005   0.000021  -0.000612
     68      -0.000015   0.000097   0.000867
     69       0.000010   0.000014  -0.000154
     70      -0.000039  -0.000062   0.000253
     71       0.000019  -0.000199  -0.000502
     72       0.000042  -0.000330  -0.001605
     73       0.000015  -0.000034   0.000067
     74      -0.000008  -0.000041  -0.001265
     75      -0.000009   0.000117  -0.005565
     76      -0.000010   0.000200   0.008783
     77      -0.000010   0.000453   0.009072
     78       0.000001  -0.000076  -0.000003
     79      -0.000008   0.000106  -0.000013
     80      -0.000008   0.000268  -0.000019
     81       0.000018  -0.000203  -0.000016
     82      -0.000001   0.000122   0.000011
     83       0.000016  -0.000152  -0.000023
     84       0.000013  -0.000072  -0.000042
     85      -0.000004  -0.000052   0.000009
     86      -0.000004  -0.000050  -0.000007
     87      -0.000017   0.000397   0.000058
     88       0.000007  -0.001491   0.000046
     89       0.000044  -0.004460   0.000173
     90       0.000041   0.005417  -0.003014
     91      -0.000017  -0.005708   0.003312
     92      -0.000053  -0.000247   0.000829
     93      -0.000199   0.001461   0.000438
     94       0.000073   0.000535  -0.000030
     95      -0.000048  -0.000068   0.000538
     96       0.000066  -0.000804  -0.000097
     97       0.000088  -0.000894   0.000329
     98       0.000176   0.000116  -0.000359


-----------
IR SPECTRUM
-----------

 Mode   freq       eps      Int      T**2         TX        TY        TZ
       cm**-1   L/(mol*cm) km/mol    a.u.
----------------------------------------------------------------------------
  7:     43.88   0.000922    4.66  0.006557  (-0.071114 -0.037017 -0.011373)
  8:     49.05   0.000185    0.94  0.001178  ( 0.008298 -0.013736 -0.030334)
  9:     66.98   0.002676   13.52  0.012467  ( 0.023467  0.062170 -0.089726)
 10:     76.72   0.001620    8.19  0.006589  ( 0.066178 -0.046328 -0.007952)
 11:     95.20   0.001869    9.45  0.006127  (-0.011828 -0.065340  0.041450)
 12:    112.49   0.000990    5.00  0.002746  ( 0.031353  0.041134  0.008458)
 13:    116.14   0.000185    0.93  0.000496  ( 0.005247 -0.009731  0.019334)
 14:    121.66   0.001538    7.77  0.003945  ( 0.028631  0.051760  0.021115)
 15:    140.24   0.000825    4.17  0.001835  ( 0.032411  0.015332  0.023442)
 16:    158.59   0.000508    2.57  0.001000  (-0.007216  0.020666 -0.022826)
 17:    180.83   0.001602    8.09  0.002764  ( 0.036391  0.037001  0.008408)
 18:    187.71   0.001384    7.00  0.002302  ( 0.028457  0.037789  0.007992)
 19:    220.87   0.002282   11.53  0.003224  (-0.006351 -0.056404  0.001594)
 20:    254.49   0.001294    6.54  0.001587  ( 0.029613  0.016872  0.020629)
 21:    284.94   0.000830    4.20  0.000909  ( 0.028659 -0.008388  0.004195)
 22:    303.66   0.000181    0.92  0.000186  ( 0.001868 -0.010154 -0.008925)
 23:    347.82   0.000375    1.89  0.000336  (-0.017442 -0.005410  0.001699)
 24:    379.85   0.001461    7.38  0.001200  ( 0.019572 -0.006259  0.027890)
 25:    399.19   0.005066   25.60  0.003960  ( 0.053201  0.008612  0.032495)
 26:    417.45   0.003899   19.70  0.002914  (-0.014721 -0.012049 -0.050523)
 27:    483.93   0.009034   45.66  0.005826  ( 0.058449  0.048902 -0.004269)
 28:    518.00   0.000798    4.03  0.000481  (-0.007624  0.019039  0.007751)
 29:    529.54   0.023768  120.11  0.014007  ( 0.038637  0.103102 -0.043403)
 30:    571.77   0.003257   16.46  0.001778  ( 0.036617 -0.011488  0.017467)
 31:    653.82   0.001509    7.63  0.000720  ( 0.013990  0.022242  0.005460)
 32:    674.79   0.001217    6.15  0.000563  ( 0.012005  0.016962  0.011441)
 33:    715.12   0.000290    1.47  0.000127  ( 0.001354  0.009763  0.005423)
 34:    771.59   0.000754    3.81  0.000305  (-0.016070  0.006399 -0.002378)
 35:    813.59   0.000266    1.34  0.000102  (-0.003491 -0.005155  0.007957)
 36:    875.90   0.001864    9.42  0.000664  (-0.008190 -0.017483 -0.017069)
 37:    891.69   0.001827    9.23  0.000639  (-0.014489  0.018561 -0.009219)
 38:    894.00   0.004070   20.57  0.001421  ( 0.017352  0.033048  0.005220)
 39:    927.55   0.000896    4.53  0.000302  (-0.007440  0.012585  0.009372)
 40:    956.39   0.002151   10.87  0.000702  ( 0.019904 -0.017401  0.001738)
 41:    981.07   0.001225    6.19  0.000390  ( 0.006778  0.006790 -0.017250)
 42:   1015.82   0.001075    5.43  0.000330  ( 0.001729 -0.002441 -0.017927)
 43:   1032.39   0.001335    6.75  0.000404  ( 0.014476  0.011467  0.007907)
 44:   1053.02   0.000631    3.19  0.000187  ( 0.004922 -0.012047  0.004192)
 45:   1065.95   0.001545    7.81  0.000452  (-0.005075 -0.020234  0.004128)
 46:   1076.77   0.001899    9.60  0.000550  ( 0.020837 -0.009460  0.005162)
 47:   1104.45   0.001042    5.26  0.000294  (-0.001606  0.014379  0.009219)
 48:   1151.78   0.003077   15.55  0.000834  (-0.001823  0.024186  0.015664)
 49:   1160.57   0.000426    2.15  0.000115  (-0.004306 -0.008067 -0.005571)
 50:   1162.28   0.001950    9.85  0.000523  (-0.019087  0.004566 -0.011761)
 51:   1171.70   0.002569   12.98  0.000684  (-0.012254  0.018065 -0.014415)
 52:   1185.87   0.005089   25.72  0.001339  ( 0.029531 -0.013123  0.017174)
 53:   1223.16   0.000711    3.59  0.000181  ( 0.005736  0.009022 -0.008187)
 54:   1251.41   0.012015   60.72  0.002996  (-0.035941 -0.000745 -0.041279)
 55:   1272.92   0.003674   18.57  0.000901  (-0.022536  0.001237 -0.019784)
 56:   1281.19   0.003658   18.49  0.000891  ( 0.014134  0.025833 -0.004884)
 57:   1283.37   0.000891    4.50  0.000217  ( 0.005446  0.012761 -0.004905)
 58:   1329.01   0.004586   23.18  0.001077  (-0.018919 -0.011855 -0.024050)
 59:   1340.29   0.000403    2.04  0.000094  ( 0.007716  0.003421 -0.004749)
 60:   1372.37   0.002735   13.82  0.000622  (-0.014267 -0.002100 -0.020348)
 61:   1391.45   0.001768    8.94  0.000397  ( 0.002612 -0.004751  0.019162)
 62:   1411.60   0.010353   52.32  0.002289  ( 0.038250  0.005929  0.028117)
 63:   1415.34   0.001470    7.43  0.000324  ( 0.003107  0.017632 -0.001895)
 64:   1446.94   0.002575   13.01  0.000555  ( 0.009398  0.006765 -0.020523)
 65:   1451.34   0.004425   22.36  0.000951  ( 0.018158 -0.023165 -0.009221)
 66:   1465.98   0.001739    8.79  0.000370  (-0.009876  0.003283  0.016181)
 67:   1473.26   0.002740   13.85  0.000580  (-0.003739  0.011803 -0.020665)
 68:   1481.09   0.000582    2.94  0.000123  (-0.002807  0.010499  0.002112)
 69:   1489.43   0.010325   52.18  0.002163  ( 0.020104  0.014369  0.039405)
 70:   1504.08   0.006732   34.02  0.001397  (-0.029162 -0.003640 -0.023090)
 71:   1504.71   0.034278  173.23  0.007109  ( 0.016423  0.069615 -0.044643)
 72:   1509.61   0.002243   11.34  0.000464  ( 0.001996 -0.014221 -0.016047)
 73:   1512.14   0.010110   51.09  0.002086  (-0.020173  0.008600 -0.040068)
 74:   1541.58   0.083396  421.45  0.016882  (-0.101350 -0.019028 -0.079045)
 75:   1594.99   0.035174  177.76  0.006882  (-0.053233  0.042546 -0.047307)
 76:   1649.56   0.010246   51.78  0.001938  ( 0.043148 -0.007944  0.003660)
 77:   1657.80   0.007456   37.68  0.001403  (-0.005045 -0.022910 -0.029209)
 78:   1774.29   0.084064  424.83  0.014785  ( 0.076175 -0.059502 -0.073771)
 79:   1787.47   0.016422   82.99  0.002867  ( 0.027198 -0.019872  0.041622)
 80:   2970.72   0.005321   26.89  0.000559  ( 0.001833 -0.016289  0.017037)
 81:   3026.90   0.002438   12.32  0.000251  (-0.015256 -0.003928  0.001790)
 82:   3064.98   0.001237    6.25  0.000126  (-0.010637  0.000276  0.003569)
 83:   3066.66   0.000874    4.42  0.000089  ( 0.000101 -0.009261  0.001778)
 84:   3085.73   0.006814   34.43  0.000689  ( 0.016450 -0.008448  0.018631)
 85:   3089.21   0.001589    8.03  0.000161  (-0.009659  0.007325 -0.003686)
 86:   3090.18   0.000495    2.50  0.000050  ( 0.004274 -0.004118 -0.003843)
 87:   3121.62   0.000127    0.64  0.000013  ( 0.000559 -0.002155 -0.002790)
 88:   3156.46   0.001644    8.31  0.000163  ( 0.009513  0.008266 -0.001940)
 89:   3171.37   0.000316    1.60  0.000031  ( 0.004300 -0.002345 -0.002659)
 90:   3184.26   0.000007    0.04  0.000001  ( 0.000631  0.000478  0.000266)
 91:   3185.62   0.000955    4.83  0.000094  ( 0.003909 -0.001913 -0.008638)
 92:   3196.62   0.000006    0.03  0.000001  (-0.000609  0.000346 -0.000258)
 93:   3201.93   0.000830    4.19  0.000081  (-0.000061  0.008766 -0.002003)
 94:   3411.62   0.012844   64.91  0.001175  ( 0.004611  0.029930 -0.016055)
 95:   3494.08   0.021242  107.35  0.001897  (-0.041016 -0.003996 -0.014102)
 96:   3505.21   0.023504  118.78  0.002093  ( 0.012463 -0.029649 -0.032529)
 97:   3630.58   0.016535   83.56  0.001421  ( 0.005063 -0.006056 -0.036864)
 98:   3648.99   0.010971   55.44  0.000938  (-0.020502  0.020627  0.009616)

* The epsilon (eps) is given for a Dirac delta lineshape.
** The dipole moment derivative (T) already includes vibrational overlap.

The first frequency considered to be a vibration is 7
The total number of vibrations considered is 92


--------------------------
THERMOCHEMISTRY AT 298.15K
--------------------------

Temperature         ... 298.15 K
Pressure            ... 1.00 atm
Total Mass          ... 201.27 AMU

Throughout the following assumptions are being made:
  (1) The electronic state is orbitally nondegenerate
      but the spin degeneracy is treated
  (2) There are no thermally accessible electronically excited states
  (3) Hindered rotations indicated by low frequency modes are not
      treated as such but are treated as vibrations and this may
      cause some error
  (4) All equations used are the standard statistical mechanics
      equations for an ideal gas
  (5) All vibrations are strictly harmonic

freq.      43.88  E(vib)   ...       0.53 
freq.      49.05  E(vib)   ...       0.53 
freq.      66.98  E(vib)   ...       0.50 
freq.      76.72  E(vib)   ...       0.49 
freq.      95.20  E(vib)   ...       0.47 
freq.     112.49  E(vib)   ...       0.45 
freq.     116.14  E(vib)   ...       0.44 
freq.     121.66  E(vib)   ...       0.44 
freq.     140.24  E(vib)   ...       0.41 
freq.     158.59  E(vib)   ...       0.39 
freq.     180.83  E(vib)   ...       0.37 
freq.     187.71  E(vib)   ...       0.36 
freq.     220.87  E(vib)   ...       0.33 
freq.     254.49  E(vib)   ...       0.30 
freq.     284.94  E(vib)   ...       0.28 
freq.     303.66  E(vib)   ...       0.26 
freq.     347.82  E(vib)   ...       0.23 
freq.     379.85  E(vib)   ...       0.21 
freq.     399.19  E(vib)   ...       0.19 
freq.     417.45  E(vib)   ...       0.18 
freq.     483.93  E(vib)   ...       0.15 
freq.     518.00  E(vib)   ...       0.13 
freq.     529.54  E(vib)   ...       0.13 
freq.     571.77  E(vib)   ...       0.11 
freq.     653.82  E(vib)   ...       0.08 
freq.     674.79  E(vib)   ...       0.08 
freq.     715.12  E(vib)   ...       0.07 
freq.     771.59  E(vib)   ...       0.05 
freq.     813.59  E(vib)   ...       0.05 
freq.     875.90  E(vib)   ...       0.04 
freq.     891.69  E(vib)   ...       0.03 
freq.     894.00  E(vib)   ...       0.03 
freq.     927.55  E(vib)   ...       0.03 
freq.     956.39  E(vib)   ...       0.03 
freq.     981.07  E(vib)   ...       0.02 
freq.    1015.82  E(vib)   ...       0.02 
freq.    1032.39  E(vib)   ...       0.02 
freq.    1053.02  E(vib)   ...       0.02 
freq.    1065.95  E(vib)   ...       0.02 
freq.    1076.77  E(vib)   ...       0.02 
freq.    1104.45  E(vib)   ...       0.02 
freq.    1151.78  E(vib)   ...       0.01 
freq.    1160.57  E(vib)   ...       0.01 
freq.    1162.28  E(vib)   ...       0.01 
freq.    1171.70  E(vib)   ...       0.01 
freq.    1185.87  E(vib)   ...       0.01 
freq.    1223.16  E(vib)   ...       0.01 
freq.    1251.41  E(vib)   ...       0.01 
freq.    1272.92  E(vib)   ...       0.01 
freq.    1281.19  E(vib)   ...       0.01 
freq.    1283.37  E(vib)   ...       0.01 
freq.    1329.01  E(vib)   ...       0.01 
freq.    1340.29  E(vib)   ...       0.01 
freq.    1372.37  E(vib)   ...       0.01 
freq.    1391.45  E(vib)   ...       0.00 
freq.    1411.60  E(vib)   ...       0.00 
freq.    1415.34  E(vib)   ...       0.00 
freq.    1446.94  E(vib)   ...       0.00 
freq.    1451.34  E(vib)   ...       0.00 
freq.    1465.98  E(vib)   ...       0.00 
freq.    1473.26  E(vib)   ...       0.00 
freq.    1481.09  E(vib)   ...       0.00 
freq.    1489.43  E(vib)   ...       0.00 
freq.    1504.08  E(vib)   ...       0.00 
freq.    1504.71  E(vib)   ...       0.00 
freq.    1509.61  E(vib)   ...       0.00 
freq.    1512.14  E(vib)   ...       0.00 
freq.    1541.58  E(vib)   ...       0.00 
freq.    1594.99  E(vib)   ...       0.00 
freq.    1649.56  E(vib)   ...       0.00 
freq.    1657.80  E(vib)   ...       0.00 
freq.    1774.29  E(vib)   ...       0.00 
freq.    1787.47  E(vib)   ...       0.00 
freq.    2970.72  E(vib)   ...       0.00 
freq.    3026.90  E(vib)   ...       0.00 
freq.    3064.98  E(vib)   ...       0.00 
freq.    3066.66  E(vib)   ...       0.00 
freq.    3085.73  E(vib)   ...       0.00 
freq.    3089.21  E(vib)   ...       0.00 
freq.    3090.18  E(vib)   ...       0.00 
freq.    3121.62  E(vib)   ...       0.00 
freq.    3156.46  E(vib)   ...       0.00 
freq.    3171.37  E(vib)   ...       0.00 
freq.    3184.26  E(vib)   ...       0.00 
freq.    3185.62  E(vib)   ...       0.00 
freq.    3196.62  E(vib)   ...       0.00 
freq.    3201.93  E(vib)   ...       0.00 
freq.    3411.62  E(vib)   ...       0.00 
freq.    3494.08  E(vib)   ...       0.00 
freq.    3505.21  E(vib)   ...       0.00 
freq.    3630.58  E(vib)   ...       0.00 
freq.    3648.99  E(vib)   ...       0.00 

------------
INNER ENERGY
------------

The inner energy is: U= E(el) + E(ZPE) + E(vib) + E(rot) + E(trans)
    E(el)   - is the total energy from the electronic structure calculation
              = E(kin-el) + E(nuc-el) + E(el-el) + E(nuc-nuc)
    E(ZPE)  - the the zero temperature vibrational energy from the frequency calculation
    E(vib)  - the the finite temperature correction to E(ZPE) due to population
              of excited vibrational states
    E(rot)  - is the rotational thermal energy
    E(trans)- is the translational thermal energy

Summary of contributions to the inner energy U:
Electronic energy                ...   -668.80752899 Eh
Zero point energy                ...      0.29187011 Eh     183.15 kcal/mol
Thermal vibrational correction   ...      0.01384845 Eh       8.69 kcal/mol
Thermal rotational correction    ...      0.00141627 Eh       0.89 kcal/mol
Thermal translational correction ...      0.00141627 Eh       0.89 kcal/mol
-----------------------------------------------------------------------
Total thermal energy                   -668.49897789 Eh


Summary of corrections to the electronic energy:
(perhaps to be used in another calculation)
Total thermal correction                  0.01668099 Eh      10.47 kcal/mol
Non-thermal (ZPE) correction              0.29187011 Eh     183.15 kcal/mol
-----------------------------------------------------------------------
Total correction                          0.30855110 Eh     193.62 kcal/mol


--------
ENTHALPY
--------

The enthalpy is H = U + kB*T
                kB is Boltzmann's constant
Total free energy                 ...   -668.49897789 Eh 
Thermal Enthalpy correction       ...      0.00094421 Eh       0.59 kcal/mol
-----------------------------------------------------------------------
Total Enthalpy                    ...   -668.49803368 Eh


Note: Only C1 symmetry has been detected, increase convergence thresholds 
      if your molecule has a higher symmetry. Symmetry factor of 1.0 is   
      used for the rotational entropy correction. 
 

Note: Rotational entropy computed according to Herzberg 
Infrared and Raman Spectra, Chapter V,1, Van Nostrand Reinhold, 1945 
Point Group:  C1, Symmetry Number:   1  
Rotational constants in cm-1:     0.019650     0.014001     0.009321 

Vibrational entropy computed according to the QRRHO of S. Grimme
Chem.Eur.J. 2012 18 9955


-------
ENTROPY
-------

The entropy contributions are T*S = T*(S(el)+S(vib)+S(rot)+S(trans))
     S(el)   - electronic entropy
     S(vib)  - vibrational entropy
     S(rot)  - rotational entropy
     S(trans)- translational entropy
The entropies will be listed as multiplied by the temperature to get
units of energy

Electronic entropy                ...      0.00065446 Eh      0.41 kcal/mol
Vibrational entropy               ...      0.02496473 Eh     15.67 kcal/mol
Rotational entropy                ...      0.01558841 Eh      9.78 kcal/mol
Translational entropy             ...      0.01986189 Eh     12.46 kcal/mol
-----------------------------------------------------------------------
Final entropy term                ...      0.06106948 Eh     38.32 kcal/mol

In case the symmetry of your molecule has not been determined correctly
or in case you have a reason to use a different symmetry number we print 
out the resulting rotational entropy values for sn=1,12 :
 --------------------------------------------------------
|  sn= 1 | S(rot)=       0.01558841 Eh      9.78 kcal/mol|
|  sn= 2 | S(rot)=       0.01493395 Eh      9.37 kcal/mol|
|  sn= 3 | S(rot)=       0.01455112 Eh      9.13 kcal/mol|
|  sn= 4 | S(rot)=       0.01427949 Eh      8.96 kcal/mol|
|  sn= 5 | S(rot)=       0.01406881 Eh      8.83 kcal/mol|
|  sn= 6 | S(rot)=       0.01389666 Eh      8.72 kcal/mol|
|  sn= 7 | S(rot)=       0.01375111 Eh      8.63 kcal/mol|
|  sn= 8 | S(rot)=       0.01362504 Eh      8.55 kcal/mol|
|  sn= 9 | S(rot)=       0.01351383 Eh      8.48 kcal/mol|
|  sn=10 | S(rot)=       0.01341435 Eh      8.42 kcal/mol|
|  sn=11 | S(rot)=       0.01332436 Eh      8.36 kcal/mol|
|  sn=12 | S(rot)=       0.01324220 Eh      8.31 kcal/mol|
 --------------------------------------------------------


-------------------
GIBBS FREE ENERGY
-------------------

The Gibbs free energy is G = H - T*S

Total enthalpy                    ...   -668.49803368 Eh 
Total entropy correction          ...     -0.06106948 Eh    -38.32 kcal/mol
-----------------------------------------------------------------------
Final Gibbs free energy         ...   -668.55910316 Eh

For completeness - the Gibbs free energy minus the electronic energy
G-E(el)                           ...      0.24842583 Eh    155.89 kcal/mol


Timings for individual modules:

Sum of individual times         ...     1685.065 sec (=  28.084 min)
GTO integral calculation        ...       43.803 sec (=   0.730 min)   2.6 %
SCF iterations                  ...      659.595 sec (=  10.993 min)  39.1 %
SCF Gradient evaluation         ...      195.817 sec (=   3.264 min)  11.6 %
Geometry relaxation             ...        0.747 sec (=   0.012 min)   0.0 %
Analytical frequency calculation...      785.103 sec (=  13.085 min)  46.6 %
                             ****ORCA TERMINATED NORMALLY****
TOTAL RUN TIME: 0 days 0 hours 28 minutes 42 seconds 183 msec
