
                                 *****************
                                 * O   R   C   A *
                                 *****************

                                            #,                                       
                                            ###                                      
                                            ####                                     
                                            #####                                    
                                            ######                                   
                                           ########,                                 
                                     ,,################,,,,,                         
                               ,,#################################,,                 
                          ,,##########################################,,             
                       ,#########################################, ''#####,          
                    ,#############################################,,   '####,        
                  ,##################################################,,,,####,       
                ,###########''''           ''''###############################       
              ,#####''   ,,,,##########,,,,          '''####'''          '####       
            ,##' ,,,,###########################,,,                        '##       
           ' ,,###''''                  '''############,,,                           
         ,,##''                                '''############,,,,        ,,,,,,###''
      ,#''                                            '''#######################'''  
     '                                                          ''''####''''         
             ,#######,   #######,   ,#######,      ##                                
            ,#'     '#,  ##    ##  ,#'     '#,    #''#        ######   ,####,        
            ##       ##  ##   ,#'  ##            #'  '#       #        #'  '#        
            ##       ##  #######   ##           ,######,      #####,   #    #        
            '#,     ,#'  ##    ##  '#,     ,#' ,#      #,         ##   #,  ,#        
             '#######'   ##     ##  '#######'  #'      '#     #####' # '####'        



                  #######################################################
                  #                        -***-                        #
                  #          Department of theory and spectroscopy      #
                  #    Directorship and core code : Frank Neese         #
                  #        Max Planck Institute fuer Kohlenforschung    #
                  #                Kaiser Wilhelm Platz 1               #
                  #                 D-45470 Muelheim/Ruhr               #
                  #                      Germany                        #
                  #                                                     #
                  #                  All rights reserved                #
                  #                        -***-                        #
                  #######################################################


                         Program Version 5.0.4 -  RELEASE  -


 With contributions from (in alphabetic order):
   Daniel Aravena         : Magnetic Suceptibility
   Michael Atanasov       : Ab Initio Ligand Field Theory (pilot matlab implementation)
   Alexander A. Auer      : GIAO ZORA, VPT2 properties, NMR spectrum
   Ute Becker             : Parallelization
   Giovanni Bistoni       : ED, misc. LED, open-shell LED, HFLD
   Martin Brehm           : Molecular dynamics
   Dmytro Bykov           : SCF Hessian
   Vijay G. Chilkuri      : MRCI spin determinant printing, contributions to CSF-ICE
   Dipayan Datta          : RHF DLPNO-CCSD density
   Achintya Kumar Dutta   : EOM-CC, STEOM-CC
   Dmitry Ganyushin       : Spin-Orbit,Spin-Spin,Magnetic field MRCI
   Miquel Garcia          : C-PCM and meta-GGA Hessian, CC/C-PCM, Gaussian charge scheme
   Yang Guo               : DLPNO-NEVPT2, F12-NEVPT2, CIM, IAO-localization
   Andreas Hansen         : Spin unrestricted coupled pair/coupled cluster methods
   Benjamin Helmich-Paris : MC-RPA, TRAH-SCF, COSX integrals
   Lee Huntington         : MR-EOM, pCC
   Robert Izsak           : Overlap fitted RIJCOSX, COSX-SCS-MP3, EOM
   Marcus Kettner         : VPT2
   Christian Kollmar      : KDIIS, OOCD, Brueckner-CCSD(T), CCSD density, CASPT2, CASPT2-K
   Simone Kossmann        : Meta GGA functionals, TD-DFT gradient, OOMP2, MP2 Hessian
   Martin Krupicka        : Initial AUTO-CI
   Lucas Lang             : DCDCAS
   Marvin Lechner         : AUTO-CI (C++ implementation), FIC-MRCC
   Dagmar Lenk            : GEPOL surface, SMD
   Dimitrios Liakos       : Extrapolation schemes; Compound Job, initial MDCI parallelization
   Dimitrios Manganas     : Further ROCIS development; embedding schemes
   Dimitrios Pantazis     : SARC Basis sets
   Anastasios Papadopoulos: AUTO-CI, single reference methods and gradients
   Taras Petrenko         : DFT Hessian,TD-DFT gradient, ASA, ECA, R-Raman, ABS, FL, XAS/XES, NRVS
   Peter Pinski           : DLPNO-MP2, DLPNO-MP2 Gradient
   Christoph Reimann      : Effective Core Potentials
   Marius Retegan         : Local ZFS, SOC
   Christoph Riplinger    : Optimizer, TS searches, QM/MM, DLPNO-CCSD(T), (RO)-DLPNO pert. Triples
   Tobias Risthaus        : Range-separated hybrids, TD-DFT gradient, RPA, STAB
   Michael Roemelt        : Original ROCIS implementation
   Masaaki Saitow         : Open-shell DLPNO-CCSD energy and density
   Barbara Sandhoefer     : DKH picture change effects
   Avijit Sen             : IP-ROCIS
   Kantharuban Sivalingam : CASSCF convergence, NEVPT2, FIC-MRCI
   Bernardo de Souza      : ESD, SOC TD-DFT
   Georgi Stoychev        : AutoAux, RI-MP2 NMR, DLPNO-MP2 response
   Willem Van den Heuvel  : Paramagnetic NMR
   Boris Wezisla          : Elementary symmetry handling
   Frank Wennmohs         : Technical directorship


 We gratefully acknowledge several colleagues who have allowed us to
 interface, adapt or use parts of their codes:
   Stefan Grimme, W. Hujo, H. Kruse, P. Pracht,  : VdW corrections, initial TS optimization,
                  C. Bannwarth, S. Ehlert          DFT functionals, gCP, sTDA/sTD-DF
   Ed Valeev, F. Pavosevic, A. Kumar             : LibInt (2-el integral package), F12 methods
   Garnet Chan, S. Sharma, J. Yang, R. Olivares  : DMRG
   Ulf Ekstrom                                   : XCFun DFT Library
   Mihaly Kallay                                 : mrcc  (arbitrary order and MRCC methods)
   Jiri Pittner, Ondrej Demel                    : Mk-CCSD
   Frank Weinhold                                : gennbo (NPA and NBO analysis)
   Christopher J. Cramer and Donald G. Truhlar   : smd solvation model
   Lars Goerigk                                  : TD-DFT with DH, B97 family of functionals
   V. Asgeirsson, H. Jonsson                     : NEB implementation
   FAccTs GmbH                                   : IRC, NEB, NEB-TS, DLPNO-Multilevel, CI-OPT
                                                   MM, QMMM, 2- and 3-layer-ONIOM, Crystal-QMMM,
                                                   LR-CPCM, SF, NACMEs, symmetry and pop. for TD-DFT,
                                                   nearIR, NL-DFT gradient (VV10), updates on ESD,
                                                   ML-optimized integration grids
   S Lehtola, MJT Oliveira, MAL Marques          : LibXC Library
   Liviu Ungur et al                             : ANISO software


 Your calculation uses the libint2 library for the computation of 2-el integrals
 For citations please refer to: http://libint.valeyev.net

 Your ORCA version has been built with support for libXC version: 5.1.0
 For citations please refer to: https://tddft.org/programs/libxc/

 This ORCA versions uses:
   CBLAS   interface :  Fast vector & matrix operations
   LAPACKE interface :  Fast linear algebra routines
   SCALAPACK package :  Parallel linear algebra routines
   Shared memory     :  Shared parallel matrices
   BLAS/LAPACK       :  OpenBLAS 0.3.15  USE64BITINT DYNAMIC_ARCH NO_AFFINITY Zen SINGLE_THREADED
        Core in use  :  Zen
   Copyright (c) 2011-2014, The OpenBLAS Project




***************************************
The coordinates will be read from file: model.xyz
***************************************


================================================================================

----- Orbital basis set information -----
Your calculation utilizes the basis: EPR-II
   V. Barone, in Recent Advances in Density Functional Methods, Part 1 (ed. D. P. Chong), World Scientific, Singapore, 1995, p. 287.

----- AuxJ basis set information -----
Your calculation utilizes the auxiliary basis: def2/J
   F. Weigend, Phys. Chem. Chem. Phys. 8, 1057 (2006).

================================================================================
                                        WARNINGS
                       Please study these warnings very carefully!
================================================================================


WARNING: your system is open-shell and RHF/RKS was chosen
  ===> : WILL SWITCH to UHF/UKS


WARNING: Geometry Optimization
  ===> : Switching off AutoStart
         For restart on a previous wavefunction, please use MOREAD

INFO   : the flag for use of the SHARK integral package has been found!

================================================================================
                                       INPUT FILE
================================================================================
NAME = opt.inp
|  1> ! B3LYP EPR-II OPT
|  2> %pal nprocs 16 end
|  3> *XYZFile 1 2 model.xyz
|  4> 
|  5>                          ****END OF INPUT****
================================================================================

                       *****************************
                       * Geometry Optimization Run *
                       *****************************

Geometry optimization settings:
Update method            Update   .... BFGS
Choice of coordinates    CoordSys .... Z-matrix Internals
Initial Hessian          InHess   .... Almoef's Model

Convergence Tolerances:
Energy Change            TolE     ....  5.0000e-06 Eh
Max. Gradient            TolMAXG  ....  3.0000e-04 Eh/bohr
RMS Gradient             TolRMSG  ....  1.0000e-04 Eh/bohr
Max. Displacement        TolMAXD  ....  4.0000e-03 bohr
RMS Displacement         TolRMSD  ....  2.0000e-03 bohr
Strict Convergence                ....  False
------------------------------------------------------------------------------
                        ORCA OPTIMIZATION COORDINATE SETUP
------------------------------------------------------------------------------

The optimization will be done in new redundant internal coordinates
Making redundant internal coordinates   ...  (new redundants) done
Evaluating the initial hessian          ...  (Almloef) done
Evaluating the coordinates              ...  done
Calculating the B-matrix                .... done
Calculating the G-matrix                .... done
Diagonalizing the G-matrix              .... done
Small eigenvalue found = 5.286e-03
Small eigenvalue found = 6.483e-03
Small eigenvalue found = 1.069e-02
Small eigenvalue found = 2.372e-02
Small eigenvalue found = 2.396e-02
The first mode is                       ....   67
The number of degrees of freedom        ....   93

    -----------------------------------------------------------------
                    Redundant Internal Coordinates


    -----------------------------------------------------------------
         Definition                    Initial Value    Approx d2E/dq
    -----------------------------------------------------------------
      1. B(C   1,N   0)                  1.4442         0.458497   
      2. B(C   2,C   1)                  1.5372         0.363840   
      3. B(O   3,C   2)                  1.2186         1.050525   
      4. B(C   4,C   1)                  1.5527         0.343727   
      5. B(C   5,C   4)                  1.4974         0.421047   
      6. B(C   6,C   5)                  1.5032         0.412180   
      7. B(C   7,C   6)                  1.5306         0.372817   
      8. B(N   8,C   7)                  1.5166         0.351502   
      9. B(H   9,C   5)                  1.0896         0.360694   
     10. B(H  10,C   6)                  1.1087         0.336243   
     11. B(H  11,C   6)                  1.1016         0.345113   
     12. B(H  12,C   7)                  1.0943         0.354454   
     13. B(H  13,C   7)                  1.0951         0.353415   
     14. B(H  14,N   8)                  1.0245         0.410292   
     15. B(H  15,N   8)                  1.0250         0.409507   
     16. B(H  16,N   0)                  1.0108         0.431498   
     17. B(C  17,N   0)                  1.3624         0.619349   
     18. B(N  18,C   2)                  1.3475         0.654260   
     19. B(H  19,N  18)                  1.0084         0.435335   
     20. B(O  20,C  17)                  1.2159         1.060792   
     21. B(H  21,N   8)                  1.0248         0.409788   
     22. B(C  22,N  18)                  1.4540         0.442343   
     23. B(H  23,C  22)                  1.0975         0.350361   
     24. B(H  24,C  22)                  1.0937         0.355220   
     25. B(H  25,C  22)                  1.0941         0.354685   
     26. B(C  26,C  17)                  1.5199         0.387698   
     27. B(H  27,C  26)                  1.0935         0.355533   
     28. B(H  28,C  26)                  1.0976         0.350182   
     29. B(H  29,C  26)                  1.0954         0.352985   
     30. B(H  30,C   1)                  1.0977         0.350085   
     31. B(H  31,C   4)                  1.1040         0.341996   
     32. B(H  32,C   4)                  1.1024         0.344049   
     33. A(C   1,N   0,H  16)          116.6383         0.340705   
     34. A(C   1,N   0,C  17)          121.4389         0.405927   
     35. A(H  16,N   0,C  17)          121.7568         0.358434   
     36. A(N   0,C   1,H  30)          108.9950         0.331902   
     37. A(C   4,C   1,H  30)          107.2850         0.318456   
     38. A(C   2,C   1,C   4)          110.1631         0.356625   
     39. A(N   0,C   1,C   4)          112.0700         0.368684   
     40. A(N   0,C   1,C   2)          107.4030         0.372307   
     41. A(C   2,C   1,H  30)          110.9525         0.321428   
     42. A(C   1,C   2,N  18)          115.7731         0.396049   
     43. A(O   3,C   2,N  18)          123.4417         0.476121   
     44. A(C   1,C   2,O   3)          120.7223         0.430787   
     45. A(C   1,C   4,H  31)          109.0246         0.317245   
     46. A(C   5,C   4,H  31)          110.5676         0.327971   
     47. A(C   1,C   4,H  32)          106.6001         0.317554   
     48. A(C   1,C   4,C   5)          113.1433         0.365618   
     49. A(H  31,C   4,H  32)          106.2899         0.286448   
     50. A(C   5,C   4,H  32)          110.9124         0.328295   
     51. A(C   4,C   5,C   6)          120.1928         0.377226   
     52. A(C   6,C   5,H   9)          118.9505         0.329705   
     53. A(C   4,C   5,H   9)          119.5319         0.330868   
     54. A(H  10,C   6,H  11)          106.5542         0.285829   
     55. A(C   7,C   6,H  11)          110.0617         0.321958   
     56. A(C   5,C   6,C   7)          110.1986         0.369398   
     57. A(C   5,C   6,H  11)          110.2850         0.327311   
     58. A(C   7,C   6,H  10)          109.2127         0.320590   
     59. A(C   5,C   6,H  10)          110.4595         0.325911   
     60. A(H  12,C   7,H  13)          109.1121         0.289267   
     61. A(N   8,C   7,H  13)          106.3558         0.318213   
     62. A(C   6,C   7,H  13)          111.7443         0.323215   
     63. A(C   6,C   7,N   8)          110.4720         0.357246   
     64. A(N   8,C   7,H  12)          106.6609         0.318365   
     65. A(C   6,C   7,H  12)          112.2051         0.323371   
     66. A(C   7,N   8,H  21)          110.7647         0.323259   
     67. A(H  14,N   8,H  15)          107.9648         0.298069   
     68. A(C   7,N   8,H  15)          110.7337         0.323223   
     69. A(C   7,N   8,H  14)          111.9354         0.323324   
     70. A(H  15,N   8,H  21)          107.3770         0.298011   
     71. A(H  14,N   8,H  21)          107.8900         0.298101   
     72. A(N   0,C  17,O  20)          121.3862         0.472189   
     73. A(O  20,C  17,C  26)          122.7603         0.436500   
     74. A(N   0,C  17,C  26)          115.8429         0.396653   
     75. A(C   2,N  18,H  19)          118.7488         0.362346   
     76. A(H  19,N  18,C  22)          118.6495         0.339171   
     77. A(C   2,N  18,C  22)          121.7649         0.407291   
     78. A(H  24,C  22,H  25)          109.5604         0.289528   
     79. A(H  23,C  22,H  25)          108.3371         0.288904   
     80. A(N  18,C  22,H  25)          109.2504         0.330651   
     81. A(H  23,C  22,H  24)          109.3670         0.288972   
     82. A(N  18,C  22,H  24)          108.9465         0.330733   
     83. A(N  18,C  22,H  23)          111.3597         0.329981   
     84. A(H  28,C  26,H  29)          108.5266         0.288664   
     85. A(H  27,C  26,H  29)          110.2714         0.289350   
     86. A(C  17,C  26,H  29)          112.8362         0.325234   
     87. A(H  27,C  26,H  28)          108.0013         0.288989   
     88. A(C  17,C  26,H  28)          108.3371         0.324808   
     89. A(C  17,C  26,H  27)          108.7386         0.325619   
     90. D(H  30,C   1,N   0,H  16)    128.8432         0.017943   
     91. D(C   4,C   1,N   0,C  17)     72.0444         0.017943   
     92. D(H  30,C   1,N   0,C  17)    -46.5529         0.017943   
     93. D(C   4,C   1,N   0,H  16)   -112.5595         0.017943   
     94. D(C   2,C   1,N   0,H  16)      8.5633         0.017943   
     95. D(C   2,C   1,N   0,C  17)   -166.8328         0.017943   
     96. D(O   3,C   2,C   1,N   0)    -32.5557         0.009938   
     97. D(N  18,C   2,C   1,C   4)    -87.4545         0.009938   
     98. D(N  18,C   2,C   1,H  30)     31.2009         0.009938   
     99. D(O   3,C   2,C   1,H  30)   -151.5860         0.009938   
    100. D(O   3,C   2,C   1,C   4)     89.7587         0.009938   
    101. D(N  18,C   2,C   1,N   0)    150.2311         0.009938   
    102. D(C   5,C   4,C   1,H  30)    178.7106         0.009548   
    103. D(C   5,C   4,C   1,C   2)    -60.4107         0.009548   
    104. D(H  32,C   4,C   1,C   2)    177.4158         0.009548   
    105. D(H  32,C   4,C   1,N   0)    -63.0667         0.009548   
    106. D(H  31,C   4,C   1,H  30)    -57.8185         0.009548   
    107. D(H  32,C   4,C   1,H  30)     56.5372         0.009548   
    108. D(H  31,C   4,C   1,C   2)     63.0602         0.009548   
    109. D(H  31,C   4,C   1,N   0)   -177.4223         0.009548   
    110. D(C   5,C   4,C   1,N   0)     59.1068         0.009548   
    111. D(H   9,C   5,C   4,H  32)    117.8258         0.013107   
    112. D(H   9,C   5,C   4,H  31)   -124.5222         0.013107   
    113. D(C   6,C   5,C   4,H  32)    -48.8970         0.013107   
    114. D(C   6,C   5,C   4,H  31)     68.7550         0.013107   
    115. D(C   6,C   5,C   4,C   1)   -168.6280         0.013107   
    116. D(H   9,C   5,C   4,C   1)     -1.9052         0.013107   
    117. D(H  10,C   6,C   5,H   9)    -84.8779         0.012578   
    118. D(H  10,C   6,C   5,C   4)     81.9215         0.012578   
    119. D(C   7,C   6,C   5,H   9)     35.8862         0.012578   
    120. D(C   7,C   6,C   5,C   4)   -157.3145         0.012578   
    121. D(H  11,C   6,C   5,H   9)    157.5988         0.012578   
    122. D(H  11,C   6,C   5,C   4)    -35.6018         0.012578   
    123. D(H  13,C   7,C   6,H  11)   -179.0441         0.011101   
    124. D(H  13,C   7,C   6,H  10)     64.3095         0.011101   
    125. D(H  13,C   7,C   6,C   5)    -57.1990         0.011101   
    126. D(H  12,C   7,C   6,H  11)    -56.1191         0.011101   
    127. D(H  12,C   7,C   6,H  10)   -172.7655         0.011101   
    128. D(H  12,C   7,C   6,C   5)     65.7260         0.011101   
    129. D(N   8,C   7,C   6,H  11)     62.7585         0.011101   
    130. D(N   8,C   7,C   6,H  10)    -53.8878         0.011101   
    131. D(N   8,C   7,C   6,C   5)   -175.3964         0.011101   
    132. D(H  21,N   8,C   7,H  13)    179.0755         0.011384   
    133. D(H  21,N   8,C   7,H  12)     62.7156         0.011384   
    134. D(H  21,N   8,C   7,C   6)    -59.4795         0.011384   
    135. D(H  15,N   8,C   7,H  13)    -61.9086         0.011384   
    136. D(H  15,N   8,C   7,H  12)   -178.2685         0.011384   
    137. D(H  15,N   8,C   7,C   6)     59.5364         0.011384   
    138. D(H  14,N   8,C   7,H  13)     58.6204         0.011384   
    139. D(H  14,N   8,C   7,H  12)    -57.7395         0.011384   
    140. D(H  14,N   8,C   7,C   6)   -179.9346         0.011384   
    141. D(C  26,C  17,N   0,H  16)     -1.0860         0.031056   
    142. D(C  26,C  17,N   0,C   1)    174.0737         0.031056   
    143. D(O  20,C  17,N   0,H  16)   -179.9336         0.031056   
    144. D(O  20,C  17,N   0,C   1)     -4.7739         0.031056   
    145. D(C  22,N  18,C   2,O   3)      2.1949         0.034974   
    146. D(C  22,N  18,C   2,C   1)    179.3238         0.034974   
    147. D(H  19,N  18,C   2,O   3)    171.5758         0.034974   
    148. D(H  19,N  18,C   2,C   1)    -11.2953         0.034974   
    149. D(H  24,C  22,N  18,H  19)     26.6392         0.016686   
    150. D(H  24,C  22,N  18,C   2)   -163.9697         0.016686   
    151. D(H  23,C  22,N  18,H  19)    -94.0729         0.016686   
    152. D(H  23,C  22,N  18,C   2)     75.3182         0.016686   
    153. D(H  25,C  22,N  18,H  19)    146.2973         0.016686   
    154. D(H  25,C  22,N  18,C   2)    -44.3116         0.016686   
    155. D(H  29,C  26,C  17,O  20)   -156.5594         0.011190   
    156. D(H  29,C  26,C  17,N   0)     24.6104         0.011190   
    157. D(H  28,C  26,C  17,O  20)     83.2565         0.011190   
    158. D(H  28,C  26,C  17,N   0)    -95.5737         0.011190   
    159. D(H  27,C  26,C  17,O  20)    -33.8875         0.011190   
    160. D(H  27,C  26,C  17,N   0)    147.2824         0.011190   
    -----------------------------------------------------------------

Number of atoms                         .... 33
Number of degrees of freedom            .... 160

         *************************************************************
         *                GEOMETRY OPTIMIZATION CYCLE   1            *
         *************************************************************
---------------------------------
CARTESIAN COORDINATES (ANGSTROEM)
---------------------------------
  N     -7.844643    0.894478   -0.004635
  C     -6.410671    0.843119    0.159437
  C     -6.114966    0.972048    1.662394
  O     -6.834516    1.640946    2.383295
  C     -5.692715    1.973655   -0.626185
  C     -6.127999    3.345544   -0.212948
  C     -5.734077    4.542568   -1.032496
  C     -5.782391    5.809320   -0.174826
  N     -5.496297    7.034480   -1.021670
  H     -6.901065    3.457666    0.546605
  H     -6.416942    4.661544   -1.897751
  H     -4.722839    4.405402   -1.447277
  H     -5.033410    5.797454    0.622911
  H     -6.773050    5.963437    0.265727
  H     -5.521989    7.896482   -0.468632
  H     -6.184111    7.122532   -1.776511
  H     -8.386288    1.132862    0.814776
  C     -8.438424    0.544337   -1.179759
  N     -4.997771    0.355126    2.094739
  H     -4.525043   -0.283323    1.473703
  O     -7.780215    0.257652   -2.161086
  H     -4.570998    6.967227   -1.457038
  C     -4.586247    0.405206    3.488393
  H     -5.203509   -0.254550    4.111398
  H     -3.539259    0.097334    3.560788
  H     -4.693586    1.428803    3.859657
  C     -9.957926    0.510973   -1.170134
  H    -10.321948    0.801720   -2.159397
  H    -10.279464   -0.521150   -0.980226
  H    -10.392505    1.158116   -0.400511
  H     -6.040176   -0.112750   -0.232923
  H     -4.601382    1.859763   -0.504010
  H     -5.904281    1.798623   -1.693853

----------------------------
CARTESIAN COORDINATES (A.U.)
----------------------------
  NO LB      ZA    FRAG     MASS         X           Y           Z
   0 N     7.0000    0    14.007  -14.824228    1.690319   -0.008759
   1 C     6.0000    0    12.011  -12.114412    1.593264    0.301291
   2 C     6.0000    0    12.011  -11.555611    1.836904    3.141470
   3 O     8.0000    0    15.999  -12.915363    3.100939    4.503774
   4 C     6.0000    0    12.011  -10.757673    3.729668   -1.183319
   5 C     6.0000    0    12.011  -11.580240    6.322162   -0.402413
   6 C     6.0000    0    12.011  -10.835835    8.584209   -1.951135
   7 C     6.0000    0    12.011  -10.927134   10.978024   -0.330374
   8 N     7.0000    0    14.007  -10.386495   13.293241   -1.930676
   9 H     1.0000    0     1.008  -13.041123    6.534041    1.032933
  10 H     1.0000    0     1.008  -12.126263    8.809042   -3.586229
  11 H     1.0000    0     1.008   -8.924872    8.325002   -2.734957
  12 H     1.0000    0     1.008   -9.511767   10.955600    1.177131
  13 H     1.0000    0     1.008  -12.799210   11.269262    0.502152
  14 H     1.0000    0     1.008  -10.435047   14.922189   -0.885586
  15 H     1.0000    0     1.008  -11.686276   13.459636   -3.357120
  16 H     1.0000    0     1.008  -15.847788    2.140799    1.539704
  17 C     6.0000    0    12.011  -15.946309    1.028648   -2.229421
  18 N     7.0000    0    14.007   -9.444418    0.671091    3.958483
  19 H     1.0000    0     1.008   -8.551092   -0.535403    2.784895
  20 O     8.0000    0    15.999  -14.702475    0.486892   -4.083860
  21 H     1.0000    0     1.008   -8.637935   13.166151   -2.753402
  22 C     6.0000    0    12.011   -8.666751    0.765728    6.592108
  23 H     1.0000    0     1.008   -9.833207   -0.481030    7.769417
  24 H     1.0000    0     1.008   -6.688230    0.183935    6.728914
  25 H     1.0000    0     1.008   -8.869592    2.700046    7.293694
  26 C     6.0000    0    12.011  -18.817752    0.965599   -2.211232
  27 H     1.0000    0     1.008  -19.505654    1.515031   -4.080668
  28 H     1.0000    0     1.008  -19.425371   -0.984832   -1.852358
  29 H     1.0000    0     1.008  -19.638989    2.188522   -0.756856
  30 H     1.0000    0     1.008  -11.414279   -0.213066   -0.440161
  31 H     1.0000    0     1.008   -8.695352    3.514443   -0.952441
  32 H     1.0000    0     1.008  -11.157474    3.398905   -3.200919

--------------------------------
INTERNAL COORDINATES (ANGSTROEM)
--------------------------------
 N      0   0   0     0.000000000000     0.00000000     0.00000000
 C      1   0   0     1.444241834706     0.00000000     0.00000000
 C      2   1   0     1.537187688261   107.40303370     0.00000000
 O      3   2   1     1.218554242373   120.72230224   327.44430390
 C      2   1   3     1.552666870253   112.06996328   238.87720539
 C      5   2   1     1.497436339862   113.14330464    59.10681007
 C      6   5   2     1.503229978181   120.19276366   191.37203171
 C      7   6   5     1.530552826426   110.19858299   202.68553292
 N      8   7   6     1.516578633742   110.47199804   184.60363605
 H      6   5   2     1.089551363399   119.53192800   358.09481436
 H      7   6   5     1.108659487249   110.45945526    81.92148927
 H      7   6   5     1.101571770024   110.28502802   324.39820817
 H      8   7   6     1.094302104720   112.20505311    65.72600730
 H      8   7   6     1.095101179177   111.74427249   302.80098378
 H      9   8   7     1.024479888154   111.93542490   180.06537353
 H      9   8   7     1.025001284871   110.73374520    59.53638073
 H      1   2   3     1.010762316197   116.63830232     8.56328953
 C      1   2   3     1.362383890407   121.43894257   193.16719626
 N      3   2   1     1.347456863722   115.77312041   150.23114516
 H     19   3   2     1.008352134772   118.74883402   348.70466851
 O     18   1   2     1.215906638722   121.38623395   355.22608398
 H      9   8   7     1.024814574563   110.76465366   300.52053721
 C     19   3   2     1.454005419287   121.76485560   179.32379576
 H     23  19   3     1.097463490664   111.35972091    75.31818957
 H     23  19   3     1.093713959203   108.94646277   196.03026948
 H     23  19   3     1.094124768452   109.25037029   315.68839646
 C     18   1   2     1.519898807318   115.84286510   174.07371130
 H     27  18   1     1.093474645461   108.73860247   147.28235616
 H     27  18   1     1.097602419797   108.33708999   264.42630126
 H     27  18   1     1.095432415441   112.83617188    24.61041938
 H      2   1   3     1.097677784743   108.99501988   120.27993570
 H      5   2   1     1.104041324658   109.02455543   182.57766099
 H      5   2   1     1.102411799849   106.60006645   296.93334147

---------------------------
INTERNAL COORDINATES (A.U.)
---------------------------
 N      0   0   0     0.000000000000     0.00000000     0.00000000
 C      1   0   0     2.729221538747     0.00000000     0.00000000
 C      2   1   0     2.904863747248   107.40303370     0.00000000
 O      3   2   1     2.302733797413   120.72230224   327.44430390
 C      2   1   3     2.934115161990   112.06996328   238.87720539
 C      5   2   1     2.829744585320   113.14330464    59.10681007
 C      6   5   2     2.840692975062   120.19276366   191.37203171
 C      7   6   5     2.892325675444   110.19858299   202.68553292
 N      8   7   6     2.865918278329   110.47199804   184.60363605
 H      6   5   2     2.058953685664   119.53192800   358.09481436
 H      7   6   5     2.095062806674   110.45945526    81.92148927
 H      7   6   5     2.081668962205   110.28502802   324.39820817
 H      8   7   6     2.067931285695   112.20505311    65.72600730
 H      8   7   6     2.069441317579   111.74427249   302.80098378
 H      9   8   7     1.935986418321   111.93542490   180.06537353
 H      9   8   7     1.936971715324   110.73374520    59.53638073
 H      1   2   3     1.910063964100   116.63830232     8.56328953
 C      1   2   3     2.574532442136   121.43894257   193.16719626
 N      3   2   1     2.546324449708   115.77312041   150.23114516
 H     19   3   2     1.905509381274   118.74883402   348.70466851
 O     18   1   2     2.297730551601   121.38623395   355.22608398
 H      9   8   7     1.936618883976   110.76465366   300.52053721
 C     19   3   2     2.747672039691   121.76485560   179.32379576
 H     23  19   3     2.073905439333   111.35972091    75.31818957
 H     23  19   3     2.066819851741   108.94646277   196.03026948
 H     23  19   3     2.067596168715   109.25037029   315.68839646
 C     18   1   2     2.872192497104   115.84286510   174.07371130
 H     27  18   1     2.066367614307   108.73860247   147.28235616
 H     27  18   1     2.074167977346   108.33708999   264.42630126
 H     27  18   1     2.070067263403   112.83617188    24.61041938
 H      2   1   3     2.074310396454   108.99501988   120.27993570
 H      5   2   1     2.086335744135   109.02455543   182.57766099
 H      5   2   1     2.083256388518   106.60006645   296.93334147

---------------------
BASIS SET INFORMATION
---------------------
There are 4 groups of distinct atoms

 Group   1 Type N   : 10s5p1d contracted to 6s2p1d pattern {511111/41/1}
 Group   2 Type C   : 10s5p1d contracted to 6s2p1d pattern {511111/41/1}
 Group   3 Type O   : 10s5p1d contracted to 6s2p1d pattern {511111/41/1}
 Group   4 Type H   : 6s1p contracted to 4s1p pattern {3111/1}

Atom   0N    basis set group =>   1
Atom   1C    basis set group =>   2
Atom   2C    basis set group =>   2
Atom   3O    basis set group =>   3
Atom   4C    basis set group =>   2
Atom   5C    basis set group =>   2
Atom   6C    basis set group =>   2
Atom   7C    basis set group =>   2
Atom   8N    basis set group =>   1
Atom   9H    basis set group =>   4
Atom  10H    basis set group =>   4
Atom  11H    basis set group =>   4
Atom  12H    basis set group =>   4
Atom  13H    basis set group =>   4
Atom  14H    basis set group =>   4
Atom  15H    basis set group =>   4
Atom  16H    basis set group =>   4
Atom  17C    basis set group =>   2
Atom  18N    basis set group =>   1
Atom  19H    basis set group =>   4
Atom  20O    basis set group =>   3
Atom  21H    basis set group =>   4
Atom  22C    basis set group =>   2
Atom  23H    basis set group =>   4
Atom  24H    basis set group =>   4
Atom  25H    basis set group =>   4
Atom  26C    basis set group =>   2
Atom  27H    basis set group =>   4
Atom  28H    basis set group =>   4
Atom  29H    basis set group =>   4
Atom  30H    basis set group =>   4
Atom  31H    basis set group =>   4
Atom  32H    basis set group =>   4
---------------------------------
AUXILIARY/J BASIS SET INFORMATION
---------------------------------
There are 4 groups of distinct atoms

 Group   1 Type N   : 12s5p4d2f1g contracted to 6s4p3d1f1g pattern {711111/2111/211/2/1}
 Group   2 Type C   : 12s5p4d2f1g contracted to 6s4p3d1f1g pattern {711111/2111/211/2/1}
 Group   3 Type O   : 12s5p4d2f1g contracted to 6s4p3d1f1g pattern {711111/2111/211/2/1}
 Group   4 Type H   : 5s2p1d contracted to 3s1p1d pattern {311/2/1}

Atom   0N    basis set group =>   1
Atom   1C    basis set group =>   2
Atom   2C    basis set group =>   2
Atom   3O    basis set group =>   3
Atom   4C    basis set group =>   2
Atom   5C    basis set group =>   2
Atom   6C    basis set group =>   2
Atom   7C    basis set group =>   2
Atom   8N    basis set group =>   1
Atom   9H    basis set group =>   4
Atom  10H    basis set group =>   4
Atom  11H    basis set group =>   4
Atom  12H    basis set group =>   4
Atom  13H    basis set group =>   4
Atom  14H    basis set group =>   4
Atom  15H    basis set group =>   4
Atom  16H    basis set group =>   4
Atom  17C    basis set group =>   2
Atom  18N    basis set group =>   1
Atom  19H    basis set group =>   4
Atom  20O    basis set group =>   3
Atom  21H    basis set group =>   4
Atom  22C    basis set group =>   2
Atom  23H    basis set group =>   4
Atom  24H    basis set group =>   4
Atom  25H    basis set group =>   4
Atom  26C    basis set group =>   2
Atom  27H    basis set group =>   4
Atom  28H    basis set group =>   4
Atom  29H    basis set group =>   4
Atom  30H    basis set group =>   4
Atom  31H    basis set group =>   4
Atom  32H    basis set group =>   4


           ************************************************************
           *        Program running with 16 parallel MPI-processes    *
           *              working on a common directory               *
           ************************************************************
------------------------------------------------------------------------------
                           ORCA GTO INTEGRAL CALCULATION
                           -- RI-GTO INTEGRALS CHOSEN --
------------------------------------------------------------------------------
------------------------------------------------------------------------------
                   ___                                                        
                  /   \      - P O W E R E D   B Y -                         
                 /     \                                                     
                 |  |  |   _    _      __       _____    __    __             
                 |  |  |  | |  | |    /  \     |  _  \  |  |  /  |          
                  \  \/   | |  | |   /    \    | | | |  |  | /  /          
                 / \  \   | |__| |  /  /\  \   | |_| |  |  |/  /          
                |  |  |   |  __  | /  /__\  \  |    /   |      \           
                |  |  |   | |  | | |   __   |  |    \   |  |\   \          
                \     /   | |  | | |  |  |  |  | |\  \  |  | \   \       
                 \___/    |_|  |_| |__|  |__|  |_| \__\ |__|  \__/        
                                                                              
                      - O R C A' S   B I G   F R I E N D -                    
                                      &                                       
                       - I N T E G R A L  F E E D E R -                       
                                                                              
 v1 FN, 2020, v2 2021                                                         
------------------------------------------------------------------------------


Reading SHARK input file opt.SHARKINP.tmp ... ok
----------------------
SHARK INTEGRAL PACKAGE
----------------------

Number of atoms                             ...     33
Number of basis functions                   ...    371
Number of shells                            ...    221
Maximum angular momentum                    ...      2
Integral batch strategy                     ... SHARK/LIBINT Hybrid
RI-J (if used) integral strategy            ... SPLIT-RIJ (Revised 2003 algorithm where possible)
Printlevel                                  ...      1
Contraction scheme used                     ... SEGMENTED contraction
Coulomb Range Separation                    ... NOT USED
Exchange Range Separation                   ... NOT USED
Finite Nucleus Model                        ... NOT USED
Auxiliary Coulomb fitting basis             ... AVAILABLE
   # of basis functions in Aux-J            ...    895
   # of shells in Aux-J                     ...    305
   Maximum angular momentum in Aux-J        ...      4
Auxiliary J/K fitting basis                 ... NOT available
Auxiliary Correlation fitting basis         ... NOT available
Auxiliary 'external' fitting basis          ... NOT available
Integral threshold                          ...     2.500000e-11
Primitive cut-off                           ...     2.500000e-12
Primitive pair pre-selection threshold      ...     2.500000e-12

Calculating pre-screening integrals         ... done (  0.0 sec) Dimension = 221
Organizing shell pair data                  ... done (  0.1 sec)
Shell pair information
Total number of shell pairs                 ...     24531
Shell pairs after pre-screening             ...     15719
Total number of primitive shell pairs       ...     64184
Primitive shell pairs kept                  ...     29964
          la=0 lb=0:   7402 shell pairs
          la=1 lb=0:   5368 shell pairs
          la=1 lb=1:    920 shell pairs
          la=2 lb=0:   1436 shell pairs
          la=2 lb=1:    511 shell pairs
          la=2 lb=2:     82 shell pairs

Calculating one electron integrals          ... done (  0.0 sec)
Calculating RI/J V-Matrix + Cholesky decomp.... done (  0.0 sec)
Calculating Nuclear repulsion               ... done (  0.0 sec) ENN=    935.831260307364 Eh

SHARK setup successfully completed in   0.2 seconds

Maximum memory used throughout the entire GTOINT-calculation: 22.7 MB


           ************************************************************
           *        Program running with 16 parallel MPI-processes    *
           *              working on a common directory               *
           ************************************************************
-------------------------------------------------------------------------------
                                 ORCA SCF
-------------------------------------------------------------------------------

------------
SCF SETTINGS
------------
Hamiltonian:
 Density Functional     Method          .... DFT(GTOs)
 Exchange Functional    Exchange        .... B88
   X-Alpha parameter    XAlpha          ....  0.666667
   Becke's b parameter  XBeta           ....  0.004200
 Correlation Functional Correlation     .... LYP
 LDA part of GGA corr.  LDAOpt          .... VWN-5
 Gradients option       PostSCFGGA      .... off
 Hybrid DFT is turned on
   Fraction HF Exchange ScalHFX         ....  0.200000
   Scaling of DF-GGA-X  ScalDFX         ....  0.720000
   Scaling of DF-GGA-C  ScalDFC         ....  0.810000
   Scaling of DF-LDA-C  ScalLDAC        ....  1.000000
   Perturbative correction              ....  0.000000
   Density functional embedding theory  .... OFF
   NL short-range parameter             ....  4.800000
 RI-approximation to the Coulomb term is turned on
   Number of AuxJ basis functions       .... 895
   RIJ-COSX (HFX calculated with COS-X)).... on


General Settings:
 Integral files         IntName         .... opt
 Hartree-Fock type      HFTyp           .... UHF
 Total Charge           Charge          ....    1
 Multiplicity           Mult            ....    2
 Number of Electrons    NEL             ....  109
 Basis Dimension        Dim             ....  371
 Nuclear Repulsion      ENuc            ....    935.8312603074 Eh

Convergence Acceleration:
 DIIS                   CNVDIIS         .... on
   Start iteration      DIISMaxIt       ....    12
   Startup error        DIISStart       ....  0.200000
   # of expansion vecs  DIISMaxEq       ....     5
   Bias factor          DIISBfac        ....   1.050
   Max. coefficient     DIISMaxC        ....  10.000
 Trust-Rad. Augm. Hess. CNVTRAH         .... auto
   Auto Start mean grad. ratio tolernc. ....  1.125000
   Auto Start start iteration           ....    20
   Auto Start num. interpolation iter.  ....    10
   Max. Number of Micro iterations      ....    16
   Max. Number of Macro iterations      .... Maxiter - #DIIS iter
   Number of Davidson start vectors     ....     2
   Converg. threshold I  (grad. norm)   ....   1.000e-05
   Converg. threshold II (energy diff.) ....   1.000e-08
   Grad. Scal. Fac. for Micro threshold ....   0.100
   Minimum threshold for Micro iter.    ....   0.010
   NR start threshold (gradient norm)   ....   0.001
   Initial trust radius                 ....   0.400
   Minimum AH scaling param. (alpha)    ....   1.000
   Maximum AH scaling param. (alpha)    .... 1000.000
   Orbital update algorithm             .... Taylor
   White noise on init. David. guess    .... on
   Maximum white noise                  ....   0.010
   Quad. conv. algorithm                .... NR
 SOSCF                  CNVSOSCF        .... off
 Level Shifting         CNVShift        .... on
   Level shift para.    LevelShift      ....    0.2500
   Turn off err/grad.   ShiftErr        ....    0.0010
 Zerner damping         CNVZerner       .... off
 Static damping         CNVDamp         .... on
   Fraction old density DampFac         ....    0.7000
   Max. Damping (<1)    DampMax         ....    0.9800
   Min. Damping (>=0)   DampMin         ....    0.0000
   Turn off err/grad.   DampErr         ....    0.1000
 Fernandez-Rico         CNVRico         .... off

SCF Procedure:
 Maximum # iterations   MaxIter         ....   125
 SCF integral mode      SCFMode         .... Direct
   Integral package                     .... SHARK and LIBINT hybrid scheme
 Reset frequency        DirectResetFreq ....    20
 Integral Threshold     Thresh          ....  2.500e-11 Eh
 Primitive CutOff       TCut            ....  2.500e-12 Eh

Convergence Tolerance:
 Convergence Check Mode ConvCheckMode   .... Total+1el-Energy
 Convergence forced     ConvForced      .... 0
 Energy Change          TolE            ....  1.000e-08 Eh
 1-El. energy change                    ....  1.000e-05 Eh
 DIIS Error             TolErr          ....  5.000e-07


Diagonalization of the overlap matrix:
Smallest eigenvalue                        ... 1.019e-03
Time for diagonalization                   ...    0.015 sec
Threshold for overlap eigenvalues          ... 1.000e-08
Number of eigenvalues below threshold      ... 0
Time for construction of square roots      ...    0.011 sec
Total time needed                          ...    0.027 sec

Time for model grid setup =    0.115 sec

------------------------------
INITIAL GUESS: MODEL POTENTIAL
------------------------------
Loading Hartree-Fock densities                     ... done
Calculating cut-offs                               ... done
Initializing the effective Hamiltonian             ... done
Setting up the integral package (SHARK)            ... done
Starting the Coulomb interaction                   ... done (   0.0 sec)
Reading the grid                                   ... done
Mapping shells                                     ... done
Starting the XC term evaluation                    ... done (   0.0 sec)
  promolecular density results
     # of electrons  =    109.997565707
     EX              =    -88.085505381
     EC              =     -3.689029539
     EX+EC           =    -91.774534921
Transforming the Hamiltonian                       ... done (   0.0 sec)
Diagonalizing the Hamiltonian                      ... done (   0.0 sec)
Back transforming the eigenvectors                 ... done (   0.0 sec)
Now organizing SCF variables                       ... done
                      ------------------
                      INITIAL GUESS DONE (   0.3 sec)
                      ------------------
-------------------
DFT GRID GENERATION
-------------------

General Integration Accuracy     IntAcc      ... 4.388
Radial Grid Type                 RadialGrid  ... OptM3 with GC (2021)
Angular Grid (max. ang.)         AngularGrid ... 4 (Lebedev-302)
Angular grid pruning method      GridPruning ... 4 (adaptive)
Weight generation scheme         WeightScheme... Becke
Basis function cutoff            BFCut       ... 1.0000e-11
Integration weight cutoff        WCut        ... 1.0000e-14
Angular grids for H and He will be reduced by one unit
Partially contracted basis set               ... off
Rotationally invariant grid construction     ... off

Total number of grid points                  ...   144826
Total number of batches                      ...     2281
Average number of points per batch           ...       63
Average number of grid points per atom       ...     4389
Time for grid setup =    0.614 sec

--------------------
COSX GRID GENERATION
--------------------

GRIDX 1
-------
General Integration Accuracy     IntAcc      ... 3.816
Radial Grid Type                 RadialGrid  ... OptM3 with GC (2021)
Angular Grid (max. ang.)         AngularGrid ... 1 (Lebedev-50)
Angular grid pruning method      GridPruning ... 4 (adaptive)
Weight generation scheme         WeightScheme... Becke
Basis function cutoff            BFCut       ... 1.0000e-11
Integration weight cutoff        WCut        ... 1.0000e-14
Angular grids for H and He will be reduced by one unit
Partially contracted basis set               ... on
Rotationally invariant grid construction     ... off

Total number of grid points                  ...    18472
Total number of batches                      ...      309
Average number of points per batch           ...       59
Average number of grid points per atom       ...      560
UseSFitting                                  ... on

GRIDX 2
-------
General Integration Accuracy     IntAcc      ... 4.020
Radial Grid Type                 RadialGrid  ... OptM3 with GC (2021)
Angular Grid (max. ang.)         AngularGrid ... 2 (Lebedev-110)
Angular grid pruning method      GridPruning ... 4 (adaptive)
Weight generation scheme         WeightScheme... Becke
Basis function cutoff            BFCut       ... 1.0000e-11
Integration weight cutoff        WCut        ... 1.0000e-14
Angular grids for H and He will be reduced by one unit
Partially contracted basis set               ... on
Rotationally invariant grid construction     ... off

Total number of grid points                  ...    39011
Total number of batches                      ...      626
Average number of points per batch           ...       62
Average number of grid points per atom       ...     1182
UseSFitting                                  ... on

GRIDX 3
-------
General Integration Accuracy     IntAcc      ... 4.338
Radial Grid Type                 RadialGrid  ... OptM3 with GC (2021)
Angular Grid (max. ang.)         AngularGrid ... 3 (Lebedev-194)
Angular grid pruning method      GridPruning ... 4 (adaptive)
Weight generation scheme         WeightScheme... Becke
Basis function cutoff            BFCut       ... 1.0000e-11
Integration weight cutoff        WCut        ... 1.0000e-14
Angular grids for H and He will be reduced by one unit
Partially contracted basis set               ... on
Rotationally invariant grid construction     ... off

Total number of grid points                  ...    85113
Total number of batches                      ...     1347
Average number of points per batch           ...       63
Average number of grid points per atom       ...     2579
UseSFitting                                  ... on

Time for X-Grid setup             =    0.775 sec

--------------
SCF ITERATIONS
--------------
ITER       Energy         Delta-E        Max-DP      RMS-DP      [F,P]     Damp
               ***  Starting incremental Fock matrix formation  ***
  0   -668.1324928390   0.000000000000 0.06288790  0.00088969  0.1294425 0.7000
  1   -668.3466270326  -0.214134193610 0.03664367  0.00062922  0.0510092 0.7000
                               ***Turning on DIIS***
  2   -668.4258352256  -0.079208193062 0.05740954  0.00100504  0.0183554 0.0000
  3   -668.5563136838  -0.130478458178 0.03475017  0.00046578  0.0247818 0.0000
  4   -668.5836638797  -0.027350195901 0.01305324  0.00016130  0.0064480 0.0000
  5   -668.5852353669  -0.001571487161 0.00561540  0.00006262  0.0046548 0.0000
  6   -668.5855871001  -0.000351733259 0.00353905  0.00003853  0.0005428 0.0000
               *** Restarting incremental Fock matrix formation ***
                                   *** Resetting DIIS ***
  7   -668.5856469856  -0.000059885467 0.00170476  0.00001682  0.0006304 0.0000
  8   -668.5856364533   0.000010532260 0.00111770  0.00000984  0.0009763 0.0000
  9   -668.5856561871  -0.000019733751 0.00022734  0.00000253  0.0001070 0.0000
 10   -668.5856561248   0.000000062299 0.00015232  0.00000155  0.0001577 0.0000
 11   -668.5856565299  -0.000000405123 0.00003323  0.00000048  0.0000243 0.0000
 12   -668.5856565456  -0.000000015711 0.00001798  0.00000022  0.0000159 0.0000
 13   -668.5856565542  -0.000000008612 0.00000634  0.00000008  0.0000039 0.0000
 14   -668.5856565523   0.000000001915 0.00000536  0.00000004  0.0000043 0.0000
 15   -668.5856565631  -0.000000010746 0.00000183  0.00000002  0.0000018 0.0000
                            ***DIIS convergence achieved***

               *****************************************************
               *                     SUCCESS                       *
               *           SCF CONVERGED AFTER  16 CYCLES          *
               *****************************************************

Old exchange energy                            =    -17.890415849 Eh
New exchange energy                            =    -17.890365776 Eh
Exchange energy change after final integration =      0.000050073 Eh
Total energy after final integration           =   -668.585606495 Eh
Final COS-X integration done in                =     2.228 sec

----------------
TOTAL SCF ENERGY
----------------

Total Energy       :         -668.58560649 Eh          -18193.13927 eV

Components:
Nuclear Repulsion  :          935.83126031 Eh           25465.26322 eV
Electronic Energy  :        -1604.41686680 Eh          -43658.40250 eV
One Electron Energy:        -2752.23661352 Eh          -74892.16570 eV
Two Electron Energy:         1147.81974672 Eh           31233.76320 eV
Max COSX asymmetry :            0.00000152 Eh               0.00004 eV

Virial components:
Potential Energy   :        -1332.80082114 Eh          -36267.35414 eV
Kinetic Energy     :          664.21521465 Eh           18074.21487 eV
Virial Ratio       :            2.00657978


DFT components:
N(Alpha)           :       55.000037062948 electrons
N(Beta)            :       54.000023409059 electrons
N(Total)           :      109.000060472007 electrons
E(X)               :      -71.048901331784 Eh       
E(C)               :       -4.315856102353 Eh       
E(XC)              :      -75.364757434137 Eh       
DFET-embed. en.    :        0.000000000000 Eh       

---------------
SCF CONVERGENCE
---------------

  Last Energy change         ...   -4.8834e-09  Tolerance :   1.0000e-08
  Last MAX-Density change    ...    0.0000e+00  Tolerance :   1.0000e-07
  Last RMS-Density change    ...    0.0000e+00  Tolerance :   5.0000e-09
  Last DIIS Error            ...    4.3839e-07  Tolerance :   5.0000e-07

             **** THE GBW FILE WAS UPDATED (opt.gbw) ****
             **** DENSITY opt.scfp WAS UPDATED ****
             **** ENERGY FILE WAS UPDATED (opt.en.tmp) ****
----------------------
UHF SPIN CONTAMINATION
----------------------

Warning: in a DFT calculation there is little theoretical justification to 
         calculate <S**2> as in Hartree-Fock theory. We will do it anyways
         but you should keep in mind that the values have only limited relevance

Expectation value of <S**2>     :     0.754074
Ideal value S*(S+1) for S=0.5   :     0.750000
Deviation                       :     0.004074

             **** THE GBW FILE WAS UPDATED (opt.gbw) ****
             **** DENSITY opt.scfp WAS UPDATED ****
----------------
ORBITAL ENERGIES
----------------
                 SPIN UP ORBITALS
  NO   OCC          E(Eh)            E(eV) 
   0   1.0000     -19.207028      -522.6498 
   1   1.0000     -19.185251      -522.0572 
   2   1.0000     -14.648241      -398.5989 
   3   1.0000     -14.455362      -393.3504 
   4   1.0000     -14.436749      -392.8439 
   5   1.0000     -10.424968      -283.6778 
   6   1.0000     -10.386031      -282.6183 
   7   1.0000     -10.370031      -282.1829 
   8   1.0000     -10.357682      -281.8468 
   9   1.0000     -10.331590      -281.1369 
  10   1.0000     -10.323002      -280.9032 
  11   1.0000     -10.301273      -280.3119 
  12   1.0000     -10.300381      -280.2876 
  13   1.0000     -10.262286      -279.2510 
  14   1.0000      -1.197776       -32.5931 
  15   1.0000      -1.139733       -31.0137 
  16   1.0000      -1.117611       -30.4117 
  17   1.0000      -1.018878       -27.7251 
  18   1.0000      -1.008946       -27.4548 
  19   1.0000      -0.961939       -26.1757 
  20   1.0000      -0.894492       -24.3404 
  21   1.0000      -0.848299       -23.0834 
  22   1.0000      -0.809160       -22.0184 
  23   1.0000      -0.805417       -21.9165 
  24   1.0000      -0.782734       -21.2993 
  25   1.0000      -0.778927       -21.1957 
  26   1.0000      -0.746858       -20.3230 
  27   1.0000      -0.708551       -19.2806 
  28   1.0000      -0.682437       -18.5701 
  29   1.0000      -0.676435       -18.4067 
  30   1.0000      -0.656213       -17.8565 
  31   1.0000      -0.628793       -17.1103 
  32   1.0000      -0.623230       -16.9589 
  33   1.0000      -0.585614       -15.9354 
  34   1.0000      -0.574830       -15.6419 
  35   1.0000      -0.557391       -15.1674 
  36   1.0000      -0.552492       -15.0341 
  37   1.0000      -0.547243       -14.8912 
  38   1.0000      -0.539720       -14.6865 
  39   1.0000      -0.531072       -14.4512 
  40   1.0000      -0.525042       -14.2871 
  41   1.0000      -0.511123       -13.9084 
  42   1.0000      -0.497651       -13.5418 
  43   1.0000      -0.490747       -13.3539 
  44   1.0000      -0.482444       -13.1280 
  45   1.0000      -0.481905       -13.1133 
  46   1.0000      -0.471350       -12.8261 
  47   1.0000      -0.466781       -12.7018 
  48   1.0000      -0.457219       -12.4415 
  49   1.0000      -0.430470       -11.7137 
  50   1.0000      -0.358809        -9.7637 
  51   1.0000      -0.354372        -9.6429 
  52   1.0000      -0.341414        -9.2904 
  53   1.0000      -0.332485        -9.0474 
  54   1.0000      -0.313531        -8.5316 
  55   0.0000      -0.185955        -5.0601 
  56   0.0000      -0.114241        -3.1087 
  57   0.0000      -0.111400        -3.0313 
  58   0.0000      -0.085253        -2.3199 
  59   0.0000      -0.079832        -2.1723 
  60   0.0000      -0.068102        -1.8531 
  61   0.0000      -0.065861        -1.7922 
  62   0.0000      -0.053469        -1.4550 
  63   0.0000      -0.049394        -1.3441 
  64   0.0000      -0.043320        -1.1788 
  65   0.0000      -0.040767        -1.1093 
  66   0.0000      -0.023885        -0.6499 
  67   0.0000      -0.018134        -0.4935 
  68   0.0000      -0.007074        -0.1925 
  69   0.0000      -0.002327        -0.0633 
  70   0.0000       0.010660         0.2901 
  71   0.0000       0.026541         0.7222 
  72   0.0000       0.030687         0.8350 
  73   0.0000       0.038802         1.0558 
  74   0.0000       0.041586         1.1316 
  75   0.0000       0.053260         1.4493 
  76   0.0000       0.062649         1.7048 
  77   0.0000       0.067447         1.8353 
  78   0.0000       0.076161         2.0725 
  79   0.0000       0.081475         2.2171 
  80   0.0000       0.090200         2.4545 
  81   0.0000       0.096802         2.6341 
  82   0.0000       0.106564         2.8998 
  83   0.0000       0.106938         2.9099 
  84   0.0000       0.112807         3.0696 
  85   0.0000       0.120031         3.2662 
  86   0.0000       0.125307         3.4098 
  87   0.0000       0.129004         3.5104 
  88   0.0000       0.138470         3.7680 
  89   0.0000       0.148767         4.0482 
  90   0.0000       0.152373         4.1463 
  91   0.0000       0.163825         4.4579 
  92   0.0000       0.167801         4.5661 
  93   0.0000       0.172299         4.6885 
  94   0.0000       0.177277         4.8240 
  95   0.0000       0.181849         4.9484 
  96   0.0000       0.188385         5.1262 
  97   0.0000       0.196944         5.3591 
  98   0.0000       0.204888         5.5753 
  99   0.0000       0.208676         5.6784 
 100   0.0000       0.213781         5.8173 
 101   0.0000       0.223056         6.0697 
 102   0.0000       0.225212         6.1283 
 103   0.0000       0.230947         6.2844 
 104   0.0000       0.234969         6.3938 
 105   0.0000       0.242881         6.6091 
 106   0.0000       0.256710         6.9854 
 107   0.0000       0.262469         7.1422 
 108   0.0000       0.266100         7.2410 
 109   0.0000       0.282989         7.7005 
 110   0.0000       0.291864         7.9420 
 111   0.0000       0.292980         7.9724 
 112   0.0000       0.313817         8.5394 
 113   0.0000       0.319205         8.6860 
 114   0.0000       0.326979         8.8976 
 115   0.0000       0.334403         9.0996 
 116   0.0000       0.343937         9.3590 
 117   0.0000       0.355038         9.6611 
 118   0.0000       0.369657        10.0589 
 119   0.0000       0.379429        10.3248 
 120   0.0000       0.393785        10.7154 
 121   0.0000       0.395123        10.7518 
 122   0.0000       0.403974        10.9927 
 123   0.0000       0.413218        11.2442 
 124   0.0000       0.426712        11.6114 
 125   0.0000       0.440375        11.9832 
 126   0.0000       0.449947        12.2437 
 127   0.0000       0.463949        12.6247 
 128   0.0000       0.478882        13.0310 
 129   0.0000       0.483017        13.1436 
 130   0.0000       0.506756        13.7895 
 131   0.0000       0.525471        14.2988 
 132   0.0000       0.531206        14.4549 
 133   0.0000       0.537929        14.6378 
 134   0.0000       0.552462        15.0333 
 135   0.0000       0.582130        15.8406 
 136   0.0000       0.601339        16.3633 
 137   0.0000       0.605125        16.4663 
 138   0.0000       0.619606        16.8603 
 139   0.0000       0.633187        17.2299 
 140   0.0000       0.655545        17.8383 
 141   0.0000       0.665148        18.0996 
 142   0.0000       0.682642        18.5756 
 143   0.0000       0.693891        18.8817 
 144   0.0000       0.712897        19.3989 
 145   0.0000       0.720265        19.5994 
 146   0.0000       0.726947        19.7812 
 147   0.0000       0.733923        19.9711 
 148   0.0000       0.750437        20.4204 
 149   0.0000       0.756119        20.5750 
 150   0.0000       0.759802        20.6753 
 151   0.0000       0.760662        20.6987 
 152   0.0000       0.763446        20.7744 
 153   0.0000       0.776384        21.1265 
 154   0.0000       0.785425        21.3725 
 155   0.0000       0.790111        21.5000 
 156   0.0000       0.799684        21.7605 
 157   0.0000       0.804300        21.8861 
 158   0.0000       0.809545        22.0289 
 159   0.0000       0.824838        22.4450 
 160   0.0000       0.831059        22.6143 
 161   0.0000       0.841753        22.9053 
 162   0.0000       0.847258        23.0551 
 163   0.0000       0.853222        23.2173 
 164   0.0000       0.855700        23.2848 
 165   0.0000       0.872949        23.7542 
 166   0.0000       0.883459        24.0401 
 167   0.0000       0.900057        24.4918 
 168   0.0000       0.904384        24.6095 
 169   0.0000       0.913858        24.8674 
 170   0.0000       0.935617        25.4594 
 171   0.0000       0.939576        25.5672 
 172   0.0000       0.965007        26.2592 
 173   0.0000       0.969087        26.3702 
 174   0.0000       0.975247        26.5378 
 175   0.0000       0.996589        27.1186 
 176   0.0000       1.006826        27.3971 
 177   0.0000       1.014264        27.5995 
 178   0.0000       1.034647        28.1542 
 179   0.0000       1.047673        28.5086 
 180   0.0000       1.056220        28.7412 
 181   0.0000       1.070043        29.1174 
 182   0.0000       1.094561        29.7845 
 183   0.0000       1.105376        30.0788 
 184   0.0000       1.114564        30.3288 
 185   0.0000       1.123784        30.5797 
 186   0.0000       1.134999        30.8849 
 187   0.0000       1.149758        31.2865 
 188   0.0000       1.176696        32.0195 
 189   0.0000       1.202048        32.7094 
 190   0.0000       1.210351        32.9353 
 191   0.0000       1.212213        32.9860 
 192   0.0000       1.236341        33.6426 
 193   0.0000       1.258227        34.2381 
 194   0.0000       1.271516        34.5997 
 195   0.0000       1.283545        34.9270 
 196   0.0000       1.294510        35.2254 
 197   0.0000       1.310973        35.6734 
 198   0.0000       1.325862        36.0785 
 199   0.0000       1.334035        36.3009 
 200   0.0000       1.339065        36.4378 
 201   0.0000       1.340565        36.4786 
 202   0.0000       1.385812        37.7099 
 203   0.0000       1.393613        37.9222 
 204   0.0000       1.402292        38.1583 
 205   0.0000       1.407544        38.3012 
 206   0.0000       1.419956        38.6390 
 207   0.0000       1.423541        38.7365 
 208   0.0000       1.427697        38.8496 
 209   0.0000       1.443234        39.2724 
 210   0.0000       1.455423        39.6041 
 211   0.0000       1.462550        39.7980 
 212   0.0000       1.476468        40.1767 
 213   0.0000       1.491938        40.5977 
 214   0.0000       1.493488        40.6399 
 215   0.0000       1.507914        41.0324 
 216   0.0000       1.519106        41.3370 
 217   0.0000       1.526160        41.5289 
 218   0.0000       1.537503        41.8376 
 219   0.0000       1.547103        42.0988 
 220   0.0000       1.556425        42.3525 
 221   0.0000       1.560284        42.4575 
 222   0.0000       1.582865        43.0719 
 223   0.0000       1.592642        43.3380 
 224   0.0000       1.602843        43.6156 
 225   0.0000       1.604839        43.6699 
 226   0.0000       1.615776        43.9675 
 227   0.0000       1.616069        43.9755 
 228   0.0000       1.627164        44.2774 
 229   0.0000       1.644708        44.7548 
 230   0.0000       1.650114        44.9019 
 231   0.0000       1.665621        45.3238 
 232   0.0000       1.689376        45.9702 
 233   0.0000       1.691126        46.0179 
 234   0.0000       1.709683        46.5228 
 235   0.0000       1.714037        46.6413 
 236   0.0000       1.750935        47.6454 
 237   0.0000       1.758538        47.8523 
 238   0.0000       1.764981        48.0276 
 239   0.0000       1.773096        48.2484 
 240   0.0000       1.788224        48.6600 
 241   0.0000       1.809748        49.2457 
 242   0.0000       1.843249        50.1574 
 243   0.0000       1.871085        50.9148 
 244   0.0000       1.892569        51.4994 
 245   0.0000       1.905753        51.8582 
 246   0.0000       1.912238        52.0346 
 247   0.0000       1.922424        52.3118 
 248   0.0000       1.931482        52.5583 
 249   0.0000       1.946962        52.9795 
 250   0.0000       1.962273        53.3962 
 251   0.0000       1.981276        53.9133 
 252   0.0000       1.989134        54.1271 
 253   0.0000       1.996809        54.3359 
 254   0.0000       2.027112        55.1605 
 255   0.0000       2.052746        55.8581 
 256   0.0000       2.074651        56.4541 
 257   0.0000       2.082961        56.6803 
 258   0.0000       2.099434        57.1285 
 259   0.0000       2.113374        57.5078 
 260   0.0000       2.132940        58.0403 
 261   0.0000       2.136459        58.1360 
 262   0.0000       2.157520        58.7091 
 263   0.0000       2.186891        59.5083 
 264   0.0000       2.198918        59.8356 
 265   0.0000       2.205202        60.0066 
 266   0.0000       2.219326        60.3909 
 267   0.0000       2.242244        61.0146 
 268   0.0000       2.257499        61.4297 
 269   0.0000       2.270582        61.7857 
 270   0.0000       2.273601        61.8678 
 271   0.0000       2.286855        62.2285 
 272   0.0000       2.293545        62.4105 
 273   0.0000       2.313200        62.9454 
 274   0.0000       2.321286        63.1654 
 275   0.0000       2.349878        63.9434 
 276   0.0000       2.356086        64.1124 
 277   0.0000       2.362900        64.2978 
 278   0.0000       2.388741        65.0009 
 279   0.0000       2.397186        65.2307 
 280   0.0000       2.402894        65.3861 
 281   0.0000       2.408317        65.5336 
 282   0.0000       2.414890        65.7125 
 283   0.0000       2.430641        66.1411 
 284   0.0000       2.450275        66.6754 
 285   0.0000       2.470182        67.2171 
 286   0.0000       2.526851        68.7591 
 287   0.0000       2.549947        69.3876 
 288   0.0000       2.567561        69.8669 
 289   0.0000       2.588717        70.4426 
 290   0.0000       2.609222        71.0005 
 291   0.0000       2.627840        71.5072 
 292   0.0000       2.643090        71.9221 
 293   0.0000       2.669081        72.6294 
 294   0.0000       2.681998        72.9809 
 295   0.0000       2.706387        73.6445 
 296   0.0000       2.738545        74.5196 
 297   0.0000       2.912946        79.2653 
 298   0.0000       2.954769        80.4034 
 299   0.0000       3.025162        82.3188 
 300   0.0000       3.041096        82.7524 
 301   0.0000       3.301044        89.8260 
 302   0.0000       3.357873        91.3724 
 303   0.0000       3.365715        91.5858 
 304   0.0000       3.374512        91.8251 
 305   0.0000       4.632225       126.0492 
 306   0.0000       4.685647       127.5029 
 307   0.0000       4.823290       131.2484 
 308   0.0000       4.858574       132.2085 
 309   0.0000       4.891264       133.0981 
 310   0.0000       4.915531       133.7584 
 311   0.0000       4.917664       133.8164 
 312   0.0000       4.927606       134.0870 
 313   0.0000       4.931499       134.1929 
 314   0.0000       4.953074       134.7800 
 315   0.0000       4.987249       135.7100 
 316   0.0000       5.033690       136.9737 
 317   0.0000       5.040675       137.1637 
 318   0.0000       5.066229       137.8591 
 319   0.0000       5.095275       138.6495 
 320   0.0000       5.117342       139.2500 
 321   0.0000       5.164907       140.5443 
 322   0.0000       5.178637       140.9179 
 323   0.0000       5.205741       141.6554 
 324   0.0000       5.225618       142.1963 
 325   0.0000       5.260185       143.1369 
 326   0.0000       5.281341       143.7126 
 327   0.0000       5.307267       144.4181 
 328   0.0000       5.485281       149.2621 
 329   0.0000       5.544294       150.8679 
 330   0.0000       5.595650       152.2654 
 331   0.0000       5.643797       153.5755 
 332   0.0000       5.736414       156.0958 
 333   0.0000       7.006047       190.6442 
 334   0.0000       7.231909       196.7903 
 335   0.0000       7.250586       197.2985 
 336   0.0000       9.004248       245.0180 
 337   0.0000       9.037484       245.9224 
 338   0.0000      29.471249       801.9534 
 339   0.0000      29.547447       804.0269 
 340   0.0000      29.641158       806.5769 
 341   0.0000      29.711876       808.5013 
 342   0.0000      29.824718       811.5718 
 343   0.0000      29.959248       815.2326 
 344   0.0000      30.003152       816.4273 
 345   0.0000      30.014479       816.7355 
 346   0.0000      30.146608       820.3309 
 347   0.0000      36.234607       985.9938 
 348   0.0000      36.273711       987.0579 
 349   0.0000      36.438025       991.5291 
 350   0.0000      36.478817       992.6391 
 351   0.0000      36.527783       993.9715 
 352   0.0000      36.535873       994.1916 
 353   0.0000      36.537076       994.2244 
 354   0.0000      36.546357       994.4769 
 355   0.0000      36.549027       994.5496 
 356   0.0000      36.582427       995.4584 
 357   0.0000      36.618231       996.4327 
 358   0.0000      36.640878       997.0490 
 359   0.0000      36.654501       997.4197 
 360   0.0000      36.690662       998.4037 
 361   0.0000      36.713233       999.0179 
 362   0.0000      36.748199       999.9693 
 363   0.0000      36.794744      1001.2359 
 364   0.0000      36.819447      1001.9081 
 365   0.0000      36.841616      1002.5113 
 366   0.0000      40.935891      1113.9222 
 367   0.0000      41.167993      1120.2381 
 368   0.0000      41.197826      1121.0498 
 369   0.0000      53.542328      1456.9608 
 370   0.0000      53.572647      1457.7858 

                 SPIN DOWN ORBITALS
  NO   OCC          E(Eh)            E(eV) 
   0   1.0000     -19.206909      -522.6466 
   1   1.0000     -19.185125      -522.0538 
   2   1.0000     -14.648194      -398.5976 
   3   1.0000     -14.455367      -393.3505 
   4   1.0000     -14.436608      -392.8401 
   5   1.0000     -10.424606      -283.6680 
   6   1.0000     -10.386035      -282.6184 
   7   1.0000     -10.370050      -282.1834 
   8   1.0000     -10.358597      -281.8718 
   9   1.0000     -10.331572      -281.1364 
  10   1.0000     -10.309139      -280.5259 
  11   1.0000     -10.301272      -280.3119 
  12   1.0000     -10.301140      -280.3083 
  13   1.0000     -10.262283      -279.2509 
  14   1.0000      -1.197606       -32.5885 
  15   1.0000      -1.139553       -31.0088 
  16   1.0000      -1.117413       -30.4063 
  17   1.0000      -1.018839       -27.7240 
  18   1.0000      -1.008455       -27.4415 
  19   1.0000      -0.956206       -26.0197 
  20   1.0000      -0.887731       -24.1564 
  21   1.0000      -0.843331       -22.9482 
  22   1.0000      -0.808423       -21.9983 
  23   1.0000      -0.804510       -21.8918 
  24   1.0000      -0.782553       -21.2944 
  25   1.0000      -0.776841       -21.1389 
  26   1.0000      -0.744530       -20.2597 
  27   1.0000      -0.696828       -18.9617 
  28   1.0000      -0.682335       -18.5673 
  29   1.0000      -0.675140       -18.3715 
  30   1.0000      -0.651338       -17.7238 
  31   1.0000      -0.625307       -17.0155 
  32   1.0000      -0.622375       -16.9357 
  33   1.0000      -0.582909       -15.8618 
  34   1.0000      -0.572336       -15.5741 
  35   1.0000      -0.555067       -15.1041 
  36   1.0000      -0.548815       -14.9340 
  37   1.0000      -0.544489       -14.8163 
  38   1.0000      -0.537985       -14.6393 
  39   1.0000      -0.529065       -14.3966 
  40   1.0000      -0.522454       -14.2167 
  41   1.0000      -0.507030       -13.7970 
  42   1.0000      -0.493953       -13.4411 
  43   1.0000      -0.488283       -13.2868 
  44   1.0000      -0.482235       -13.1223 
  45   1.0000      -0.479468       -13.0470 
  46   1.0000      -0.470142       -12.7932 
  47   1.0000      -0.464194       -12.6314 
  48   1.0000      -0.456272       -12.4158 
  49   1.0000      -0.429885       -11.6978 
  50   1.0000      -0.358457        -9.7541 
  51   1.0000      -0.353754        -9.6261 
  52   1.0000      -0.337668        -9.1884 
  53   1.0000      -0.331224        -9.0131 
  54   0.0000      -0.185796        -5.0558 
  55   0.0000      -0.174757        -4.7554 
  56   0.0000      -0.113769        -3.0958 
  57   0.0000      -0.110034        -2.9942 
  58   0.0000      -0.085029        -2.3137 
  59   0.0000      -0.079559        -2.1649 
  60   0.0000      -0.067823        -1.8456 
  61   0.0000      -0.065673        -1.7870 
  62   0.0000      -0.053076        -1.4443 
  63   0.0000      -0.048691        -1.3249 
  64   0.0000      -0.041988        -1.1426 
  65   0.0000      -0.039452        -1.0735 
  66   0.0000      -0.022174        -0.6034 
  67   0.0000      -0.016047        -0.4367 
  68   0.0000      -0.006818        -0.1855 
  69   0.0000      -0.002041        -0.0555 
  70   0.0000       0.012515         0.3406 
  71   0.0000       0.027664         0.7528 
  72   0.0000       0.033314         0.9065 
  73   0.0000       0.040190         1.0936 
  74   0.0000       0.043339         1.1793 
  75   0.0000       0.056998         1.5510 
  76   0.0000       0.066064         1.7977 
  77   0.0000       0.069271         1.8849 
  78   0.0000       0.077426         2.1069 
  79   0.0000       0.082697         2.2503 
  80   0.0000       0.091493         2.4897 
  81   0.0000       0.098256         2.6737 
  82   0.0000       0.107369         2.9216 
  83   0.0000       0.107436         2.9235 
  84   0.0000       0.113196         3.0802 
  85   0.0000       0.120605         3.2818 
  86   0.0000       0.126960         3.4548 
  87   0.0000       0.130217         3.5434 
  88   0.0000       0.142215         3.8699 
  89   0.0000       0.149895         4.0789 
  90   0.0000       0.155472         4.2306 
  91   0.0000       0.166455         4.5295 
  92   0.0000       0.169134         4.6024 
  93   0.0000       0.175956         4.7880 
  94   0.0000       0.181924         4.9504 
  95   0.0000       0.185818         5.0564 
  96   0.0000       0.190026         5.1709 
  97   0.0000       0.198346         5.3973 
  98   0.0000       0.207785         5.6541 
  99   0.0000       0.210505         5.7281 
 100   0.0000       0.214859         5.8466 
 101   0.0000       0.224259         6.1024 
 102   0.0000       0.226114         6.1529 
 103   0.0000       0.233433         6.3520 
 104   0.0000       0.236056         6.4234 
 105   0.0000       0.246212         6.6998 
 106   0.0000       0.258866         7.0441 
 107   0.0000       0.265208         7.2167 
 108   0.0000       0.268114         7.2957 
 109   0.0000       0.285033         7.7562 
 110   0.0000       0.293332         7.9820 
 111   0.0000       0.294972         8.0266 
 112   0.0000       0.315676         8.5900 
 113   0.0000       0.321669         8.7531 
 114   0.0000       0.331058         9.0085 
 115   0.0000       0.340625         9.2689 
 116   0.0000       0.347773         9.4634 
 117   0.0000       0.355431         9.6718 
 118   0.0000       0.373225        10.1560 
 119   0.0000       0.380720        10.3599 
 120   0.0000       0.394899        10.7457 
 121   0.0000       0.395926        10.7737 
 122   0.0000       0.407912        11.0998 
 123   0.0000       0.418329        11.3833 
 124   0.0000       0.427621        11.6361 
 125   0.0000       0.446547        12.1511 
 126   0.0000       0.452580        12.3153 
 127   0.0000       0.467653        12.7255 
 128   0.0000       0.480136        13.0652 
 129   0.0000       0.486327        13.2336 
 130   0.0000       0.509088        13.8530 
 131   0.0000       0.526868        14.3368 
 132   0.0000       0.532194        14.4817 
 133   0.0000       0.538240        14.6463 
 134   0.0000       0.553064        15.0496 
 135   0.0000       0.583929        15.8895 
 136   0.0000       0.602685        16.3999 
 137   0.0000       0.607069        16.5192 
 138   0.0000       0.623431        16.9644 
 139   0.0000       0.635414        17.2905 
 140   0.0000       0.656959        17.8768 
 141   0.0000       0.668322        18.1860 
 142   0.0000       0.685405        18.6508 
 143   0.0000       0.695989        18.9388 
 144   0.0000       0.717637        19.5279 
 145   0.0000       0.722767        19.6675 
 146   0.0000       0.728346        19.8193 
 147   0.0000       0.735972        20.0268 
 148   0.0000       0.751839        20.4586 
 149   0.0000       0.757397        20.6098 
 150   0.0000       0.759892        20.6777 
 151   0.0000       0.763306        20.7706 
 152   0.0000       0.764997        20.8166 
 153   0.0000       0.778869        21.1941 
 154   0.0000       0.787714        21.4348 
 155   0.0000       0.791400        21.5351 
 156   0.0000       0.802193        21.8288 
 157   0.0000       0.804905        21.9026 
 158   0.0000       0.812896        22.1200 
 159   0.0000       0.827219        22.5098 
 160   0.0000       0.833140        22.6709 
 161   0.0000       0.845863        23.0171 
 162   0.0000       0.848306        23.0836 
 163   0.0000       0.854597        23.2548 
 164   0.0000       0.856674        23.3113 
 165   0.0000       0.873929        23.7808 
 166   0.0000       0.886509        24.1231 
 167   0.0000       0.901704        24.5366 
 168   0.0000       0.904944        24.6248 
 169   0.0000       0.916727        24.9454 
 170   0.0000       0.938818        25.5465 
 171   0.0000       0.943143        25.6642 
 172   0.0000       0.966667        26.3043 
 173   0.0000       0.969955        26.3938 
 174   0.0000       0.977953        26.6115 
 175   0.0000       0.998416        27.1683 
 176   0.0000       1.010993        27.5105 
 177   0.0000       1.015787        27.6410 
 178   0.0000       1.036638        28.2084 
 179   0.0000       1.049417        28.5561 
 180   0.0000       1.057906        28.7871 
 181   0.0000       1.072547        29.1855 
 182   0.0000       1.095614        29.8132 
 183   0.0000       1.109289        30.1853 
 184   0.0000       1.115337        30.3499 
 185   0.0000       1.124991        30.6126 
 186   0.0000       1.139078        30.9959 
 187   0.0000       1.153100        31.3775 
 188   0.0000       1.180640        32.1269 
 189   0.0000       1.205358        32.7995 
 190   0.0000       1.213027        33.0081 
 191   0.0000       1.218018        33.1440 
 192   0.0000       1.242678        33.8150 
 193   0.0000       1.259837        34.2819 
 194   0.0000       1.273206        34.6457 
 195   0.0000       1.291950        35.1557 
 196   0.0000       1.298179        35.3252 
 197   0.0000       1.316652        35.8279 
 198   0.0000       1.328181        36.1416 
 199   0.0000       1.335199        36.3326 
 200   0.0000       1.340584        36.4791 
 201   0.0000       1.341778        36.5116 
 202   0.0000       1.387230        37.7485 
 203   0.0000       1.395716        37.9794 
 204   0.0000       1.403562        38.1929 
 205   0.0000       1.408433        38.3254 
 206   0.0000       1.420902        38.6647 
 207   0.0000       1.426288        38.8113 
 208   0.0000       1.429604        38.9015 
 209   0.0000       1.445849        39.3435 
 210   0.0000       1.459334        39.7105 
[...]
      px      :     1.062930
      py      :     0.887807
      dz2     :     0.015737  d :     0.187019
      dxz     :     0.037431
      dyz     :     0.064861
      dx2y2   :     0.048077
      dxy     :     0.020911
  8 N s       :     3.029035  s :     3.029035
      pz      :     1.198137  p :     3.576426
      px      :     1.178510
      py      :     1.199780
      dz2     :     0.004716  d :     0.051760
      dxz     :     0.016392
      dyz     :     0.012384
      dx2y2   :     0.014701
      dxy     :     0.003567
  9 H s       :     0.846246  s :     0.846246
      pz      :     0.045040  p :     0.096149
      px      :     0.035280
      py      :     0.015829
 10 H s       :     0.858852  s :     0.858852
      pz      :     0.030865  p :     0.081403
      px      :     0.034721
      py      :     0.015817
 11 H s       :     0.860794  s :     0.860794
      pz      :     0.025182  p :     0.080489
      px      :     0.038665
      py      :     0.016643
 12 H s       :     0.853264  s :     0.853264
      pz      :     0.029835  p :     0.083055
      px      :     0.039863
      py      :     0.013356
 13 H s       :     0.854096  s :     0.854096
      pz      :     0.027714  p :     0.082660
      px      :     0.041453
      py      :     0.013492
 14 H s       :     0.745909  s :     0.745909
      pz      :     0.038352  p :     0.129607
      px      :     0.022660
      py      :     0.068594
 15 H s       :     0.743958  s :     0.743958
      pz      :     0.046595  p :     0.129237
      px      :     0.059086
      py      :     0.023555
 16 H s       :     0.756249  s :     0.756249
      pz      :     0.065165  p :     0.151873
      px      :     0.037121
      py      :     0.049587
 17 C s       :     2.843894  s :     2.843894
      pz      :     0.946975  p :     2.768601
      px      :     1.024718
      py      :     0.796908
      dz2     :     0.160938  d :     0.486952
      dxz     :     0.124051
      dyz     :     0.096834
      dx2y2   :     0.060744
      dxy     :     0.044385
 18 N s       :     3.065592  s :     3.065592
      pz      :     1.160394  p :     3.801677
      px      :     1.298237
      py      :     1.343046
      dz2     :     0.019639  d :     0.081107
      dxz     :     0.022296
      dyz     :     0.018187
      dx2y2   :     0.009886
      dxy     :     0.011099
 19 H s       :     0.771534  s :     0.771534
      pz      :     0.045464  p :     0.145070
      px      :     0.042151
      py      :     0.057455
 20 O s       :     3.584581  s :     3.584581
      pz      :     1.508254  p :     4.574476
      px      :     1.638411
      py      :     1.427810
      dz2     :     0.008913  d :     0.032023
      dxz     :     0.012092
      dyz     :     0.005657
      dx2y2   :     0.002741
      dxy     :     0.002620
 21 H s       :     0.744070  s :     0.744070
      pz      :     0.042914  p :     0.128902
      px      :     0.062240
      py      :     0.023748
 22 C s       :     2.856331  s :     2.856331
      pz      :     0.874194  p :     2.967150
      px      :     1.032273
      py      :     1.060683
      dz2     :     0.052453  d :     0.155786
      dxz     :     0.031094
      dyz     :     0.039360
      dx2y2   :     0.023413
      dxy     :     0.009467
 23 H s       :     0.881152  s :     0.881152
      pz      :     0.019823  p :     0.079966
      px      :     0.018311
      py      :     0.041832
 24 H s       :     0.885202  s :     0.885202
      pz      :     0.012863  p :     0.079620
      px      :     0.048130
      py      :     0.018626
 25 H s       :     0.861680  s :     0.861680
      pz      :     0.020368  p :     0.083999
      px      :     0.026732
      py      :     0.036899
 26 C s       :     2.868764  s :     2.868764
      pz      :     1.030715  p :     3.061398
      px      :     0.983364
      py      :     1.047320
      dz2     :     0.020698  d :     0.105376
      dxz     :     0.019598
      dyz     :     0.014615
      dx2y2   :     0.034224
      dxy     :     0.016241
 27 H s       :     0.863403  s :     0.863403
      pz      :     0.035602  p :     0.081611
      px      :     0.018845
      py      :     0.027164
 28 H s       :     0.855857  s :     0.855857
      pz      :     0.018031  p :     0.082136
      px      :     0.019353
      py      :     0.044752
 29 H s       :     0.882912  s :     0.882912
      pz      :     0.038453  p :     0.081556
      px      :     0.022653
      py      :     0.020449
 30 H s       :     0.853920  s :     0.853920
      pz      :     0.022632  p :     0.082006
      px      :     0.016427
      py      :     0.042947
 31 H s       :     0.857685  s :     0.857685
      pz      :     0.017963  p :     0.080884
      px      :     0.046778
      py      :     0.016144
 32 H s       :     0.842006  s :     0.842006
      pz      :     0.049791  p :     0.085560
      px      :     0.018487
      py      :     0.017282

SPIN
  0 N s       :     0.000677  s :     0.000677
      pz      :     0.000343  p :     0.003222
      px      :     0.000008
      py      :     0.002871
      dz2     :    -0.000004  d :     0.000114
      dxz     :     0.000028
      dyz     :    -0.000004
      dx2y2   :     0.000097
      dxy     :    -0.000004
  1 C s       :     0.001176  s :     0.001176
      pz      :     0.001377  p :     0.002630
      px      :     0.000064
      py      :     0.001189
      dz2     :     0.000690  d :     0.000154
      dxz     :    -0.000029
      dyz     :    -0.000103
      dx2y2   :    -0.000449
      dxy     :     0.000045
  2 C s       :     0.000044  s :     0.000044
      pz      :     0.000051  p :    -0.000107
      px      :    -0.000202
      py      :     0.000044
      dz2     :    -0.000021  d :     0.000134
      dxz     :     0.000028
      dyz     :     0.000095
      dx2y2   :     0.000006
      dxy     :     0.000026
  3 O s       :     0.000084  s :     0.000084
      pz      :     0.000307  p :     0.002125
      px      :     0.000635
      py      :     0.001183
      dz2     :    -0.000001  d :    -0.000004
      dxz     :    -0.000002
      dyz     :     0.000000
      dx2y2   :    -0.000004
      dxy     :     0.000002
  4 C s       :    -0.004032  s :    -0.004032
      pz      :    -0.002572  p :    -0.020687
      px      :    -0.005555
      py      :    -0.012560
      dz2     :     0.006485  d :     0.033184
      dxz     :     0.000168
      dyz     :     0.005102
      dx2y2   :     0.007248
      dxy     :     0.014182
  5 C s       :     0.028040  s :     0.028040
      pz      :     0.210125  p :     0.801319
      px      :     0.556771
      py      :     0.034424
      dz2     :    -0.000080  d :    -0.003784
      dxz     :    -0.001258
      dyz     :    -0.000780
      dx2y2   :    -0.001562
      dxy     :    -0.000104
  6 C s       :    -0.002775  s :    -0.002775
      pz      :    -0.008434  p :    -0.023436
      px      :    -0.006076
      py      :    -0.008927
      dz2     :     0.007016  d :     0.037722
      dxz     :     0.013652
      dyz     :     0.005090
      dx2y2   :     0.001209
      dxy     :     0.010755
  7 C s       :     0.005813  s :     0.005813
      pz      :     0.004460  p :     0.008682
      px      :     0.001142
      py      :     0.003080
      dz2     :    -0.000190  d :     0.000126
      dxz     :     0.000260
      dyz     :     0.000221
      dx2y2   :     0.000011
      dxy     :    -0.000175
  8 N s       :    -0.000164  s :    -0.000164
      pz      :     0.000748  p :     0.001851
      px      :     0.000506
      py      :     0.000598
      dz2     :     0.000032  d :     0.000226
      dxz     :    -0.000009
      dyz     :     0.000070
      dx2y2   :     0.000113
      dxy     :     0.000021
  9 H s       :    -0.019814  s :    -0.019814
      pz      :     0.009123  p :     0.027268
      px      :     0.017297
      py      :     0.000848
 10 H s       :     0.041548  s :     0.041548
      pz      :    -0.000014  p :     0.000054
      px      :    -0.000463
      py      :     0.000531
 11 H s       :     0.012236  s :     0.012236
      pz      :    -0.000504  p :    -0.000874
      px      :    -0.000118
      py      :    -0.000251
 12 H s       :    -0.000423  s :    -0.000423
      pz      :     0.000717  p :     0.000744
      px      :     0.000070
      py      :    -0.000043
 13 H s       :     0.000063  s :     0.000063
      pz      :     0.000052  p :     0.000178
      px      :     0.000038
      py      :     0.000088
 14 H s       :    -0.000190  s :    -0.000190
      pz      :     0.000129  p :     0.000269
      px      :     0.000048
      py      :     0.000092
 15 H s       :     0.000346  s :     0.000346
      pz      :    -0.000001  p :     0.000472
      px      :     0.000120
      py      :     0.000353
 16 H s       :     0.000212  s :     0.000212
      pz      :     0.000062  p :     0.000083
      px      :     0.000000
      py      :     0.000021
 17 C s       :    -0.000030  s :    -0.000030
      pz      :     0.000033  p :    -0.000637
      px      :    -0.000073
      py      :    -0.000598
      dz2     :     0.000009  d :     0.000443
      dxz     :     0.000021
      dyz     :     0.000396
      dx2y2   :    -0.000005
      dxy     :     0.000023
 18 N s       :     0.000031  s :     0.000031
      pz      :     0.000056  p :    -0.000285
      px      :    -0.000136
      py      :    -0.000205
      dz2     :    -0.000002  d :    -0.000007
      dxz     :     0.000002
      dyz     :    -0.000001
      dx2y2   :    -0.000006
      dxy     :    -0.000000
 19 H s       :     0.000043  s :     0.000043
      pz      :     0.000018  p :    -0.000000
      px      :    -0.000013
      py      :    -0.000005
 20 O s       :     0.000359  s :     0.000359
      pz      :    -0.000011  p :     0.002170
      px      :     0.001164
      py      :     0.001017
      dz2     :    -0.000000  d :    -0.000004
      dxz     :    -0.000003
      dyz     :    -0.000001
      dx2y2   :     0.000000
      dxy     :     0.000000
 21 H s       :     0.000063  s :     0.000063
      pz      :     0.000041  p :     0.000048
      px      :     0.000003
      py      :     0.000003
 22 C s       :     0.000018  s :     0.000018
      pz      :     0.000002  p :     0.000001
      px      :     0.000000
      py      :    -0.000002
      dz2     :    -0.000001  d :    -0.000014
      dxz     :    -0.000001
      dyz     :    -0.000012
      dx2y2   :     0.000000
      dxy     :    -0.000000
 23 H s       :    -0.000015  s :    -0.000015
      pz      :     0.000000  p :     0.000000
      px      :    -0.000000
      py      :     0.000000
 24 H s       :    -0.000007  s :    -0.000007
      pz      :    -0.000001  p :    -0.000001
      px      :     0.000000
      py      :    -0.000000
 25 H s       :     0.000003  s :     0.000003
      pz      :     0.000000  p :    -0.000001
      px      :    -0.000002
      py      :    -0.000000
 26 C s       :    -0.000022  s :    -0.000022
      pz      :     0.000004  p :     0.000065
      px      :     0.000053
      py      :     0.000008
      dz2     :    -0.000001  d :    -0.000025
      dxz     :    -0.000002
      dyz     :     0.000001
      dx2y2   :    -0.000002
      dxy     :    -0.000021
 27 H s       :    -0.000024  s :    -0.000024
      pz      :     0.000001  p :     0.000001
      px      :    -0.000000
      py      :     0.000001
 28 H s       :    -0.000032  s :    -0.000032
      pz      :     0.000000  p :     0.000004
      px      :     0.000003
      py      :     0.000001
 29 H s       :     0.000044  s :     0.000044
      pz      :     0.000001  p :    -0.000002
      px      :    -0.000003
      py      :    -0.000001
 30 H s       :    -0.000724  s :    -0.000724
      pz      :     0.000041  p :     0.000122
      px      :    -0.000029
      py      :     0.000110
 31 H s       :     0.040295  s :     0.040295
      pz      :    -0.000150  p :    -0.001198
      px      :    -0.000839
      py      :    -0.000210
 32 H s       :     0.025941  s :     0.025941
      pz      :    -0.000666  p :    -0.001127
      px      :    -0.000235
      py      :    -0.000226


                      *****************************
                      * MAYER POPULATION ANALYSIS *
                      *****************************

  NA   - Mulliken gross atomic population
  ZA   - Total nuclear charge
  QA   - Mulliken gross atomic charge
  VA   - Mayer's total valence
  BVA  - Mayer's bonded valence
  FA   - Mayer's free valence

  ATOM       NA         ZA         QA         VA         BVA        FA
  0 N      7.1198     7.0000    -0.1198     3.2762     3.2762     0.0001
  1 C      6.1138     6.0000    -0.1138     4.1409     4.1408     0.0000
  2 C      5.9148     6.0000     0.0852     4.0429     4.0429    -0.0000
  3 O      8.3324     8.0000    -0.3324     2.1092     2.1092     0.0000
  4 C      6.2881     6.0000    -0.2881     3.9116     3.9090     0.0026
  5 C      6.0900     6.0000    -0.0900     3.8957     3.1374     0.7583
  6 C      6.2682     6.0000    -0.2682     3.9210     3.9185     0.0025
  7 C      6.2802     6.0000    -0.2802     3.7514     3.7512     0.0002
  8 N      7.3712     7.0000    -0.3712     3.5482     3.5482     0.0000
  9 H      0.8370     1.0000     0.1630     0.9768     0.9739     0.0028
 10 H      0.8376     1.0000     0.1624     0.9581     0.9550     0.0030
 11 H      0.8356     1.0000     0.1644     0.9599     0.9597     0.0002
 12 H      0.7760     1.0000     0.2240     0.9383     0.9383     0.0000
 13 H      0.7788     1.0000     0.2212     0.9389     0.9389     0.0000
 14 H      0.6651     1.0000     0.3349     0.8901     0.8901     0.0000
 15 H      0.6658     1.0000     0.3342     0.8929     0.8929     0.0000
 16 H      0.7447     1.0000     0.2553     0.9629     0.9629    -0.0000
 17 C      5.8217     6.0000     0.1783     3.9698     3.9698     0.0000
 18 N      7.1035     7.0000    -0.1035     3.2072     3.2072     0.0000
 19 H      0.7625     1.0000     0.2375     0.9587     0.9587     0.0000
 20 O      8.3189     8.0000    -0.3189     2.1194     2.1194     0.0000
 21 H      0.6649     1.0000     0.3351     0.8906     0.8906     0.0000
 22 C      6.4473     6.0000    -0.4473     3.8794     3.8794     0.0000
 23 H      0.8187     1.0000     0.1813     0.9522     0.9522     0.0000
 24 H      0.8346     1.0000     0.1654     0.9577     0.9577     0.0000
 25 H      0.8022     1.0000     0.1978     0.9640     0.9640     0.0000
 26 C      6.5442     6.0000    -0.5442     3.8503     3.8503     0.0000
 27 H      0.8159     1.0000     0.1841     0.9603     0.9603     0.0000
 28 H      0.8003     1.0000     0.1997     0.9556     0.9556     0.0000
 29 H      0.8504     1.0000     0.1496     0.9704     0.9704     0.0000
 30 H      0.8487     1.0000     0.1513     0.9515     0.9515     0.0000
 31 H      0.8449     1.0000     0.1551     0.9687     0.9667     0.0020
 32 H      0.8024     1.0000     0.1976     0.9612     0.9604     0.0009

  Mayer bond orders larger than 0.100000
B(  0-N ,  1-C ) :   1.0276 B(  0-N , 16-H ) :   0.8966 B(  0-N , 17-C ) :   1.1938 
B(  1-C ,  2-C ) :   0.9055 B(  1-C ,  4-C ) :   0.9391 B(  1-C , 20-O ) :   0.1238 
B(  1-C , 30-H ) :   0.9768 B(  2-C ,  3-O ) :   1.8439 B(  2-C , 18-N ) :   1.2137 
B(  4-C ,  5-C ) :   0.9745 B(  4-C , 31-H ) :   0.9554 B(  4-C , 32-H ) :   0.9456 
B(  5-C ,  6-C ) :   1.0013 B(  5-C ,  9-H ) :   0.9669 B(  6-C ,  7-C ) :   0.9700 
B(  6-C , 10-H ) :   0.9390 B(  6-C , 11-H ) :   0.9521 B(  7-C ,  8-N ) :   0.8727 
B(  7-C , 12-H ) :   0.9335 B(  7-C , 13-H ) :   0.9374 B(  8-N , 14-H ) :   0.8847 
B(  8-N , 15-H ) :   0.8824 B(  8-N , 21-H ) :   0.8836 B( 17-C , 20-O ) :   1.8615 
B( 17-C , 26-C ) :   0.9001 B( 18-N , 19-H ) :   0.9264 B( 18-N , 22-C ) :   0.9650 
B( 22-C , 23-H ) :   0.9534 B( 22-C , 24-H ) :   0.9588 B( 22-C , 25-H ) :   0.9451 
B( 26-C , 27-H ) :   0.9580 B( 26-C , 28-H ) :   0.9498 B( 26-C , 29-H ) :   0.9745 


-------
TIMINGS
-------

Total SCF time: 0 days 0 hours 0 min 16 sec 

Total time                  ....      16.716 sec
Sum of individual times     ....      15.943 sec  ( 95.4%)

Fock matrix formation       ....      13.790 sec  ( 82.5%)
  Split-RI-J                ....       1.133 sec  (  8.2% of F)
  Chain of spheres X        ....       9.736 sec  ( 70.6% of F)
  XC integration            ....       2.641 sec  ( 19.2% of F)
    Basis function eval.    ....       0.285 sec  ( 10.8% of XC)
    Density eval.           ....       0.396 sec  ( 15.0% of XC)
    XC-Functional eval.     ....       0.066 sec  (  2.5% of XC)
    XC-Potential eval.      ....       0.235 sec  (  8.9% of XC)
Diagonalization             ....       0.463 sec  (  2.8%)
Density matrix formation    ....       0.023 sec  (  0.1%)
Population analysis         ....       0.062 sec  (  0.4%)
Initial guess               ....       0.060 sec  (  0.4%)
Orbital Transformation      ....       0.000 sec  (  0.0%)
Orbital Orthonormalization  ....       0.043 sec  (  0.3%)
DIIS solution               ....       0.230 sec  (  1.4%)
Grid generation             ....       1.314 sec  (  7.9%)

Maximum memory used throughout the entire SCF-calculation: 85.1 MB

-------------------------   --------------------
FINAL SINGLE POINT ENERGY      -668.587441411070
-------------------------   --------------------

                                *** OPTIMIZATION RUN DONE ***

                            ***************************************
                            *     ORCA property calculations      *
                            ***************************************

                                    ---------------------
                                    Active property flags
                                    ---------------------
   (+) Dipole Moment


------------------------------------------------------------------------------
                       ORCA ELECTRIC PROPERTIES CALCULATION
------------------------------------------------------------------------------

Dipole Moment Calculation                       ... on
Quadrupole Moment Calculation                   ... off
Polarizability Calculation                      ... off
GBWName                                         ... opt.gbw
Electron density                                ... opt.scfp
The origin for moment calculation is the CENTER OF MASS  = (-12.362706,  4.024495  0.319164)

-------------
DIPOLE MOMENT
-------------
                                X             Y             Z
Electronic contribution:     -1.65845      -4.91788      -0.06369
Nuclear contribution   :      3.86420      12.03423      -1.09652
                        -----------------------------------------
Total Dipole Moment    :      2.20575       7.11635      -1.16020
                        -----------------------------------------
Magnitude (a.u.)       :      7.54014
Magnitude (Debye)      :     19.16552



--------------------
Rotational spectrum 
--------------------
 
Rotational constants in cm-1:     0.019579     0.013319     0.008990 
Rotational constants in MHz :   586.972327   399.294273   269.528123 

 Dipole components along the rotational axes: 
x,y,z [a.u.] :    -7.361022     1.626627     0.152362 
x,y,z [Debye]:   -18.710231     4.134558     0.387273 

 

Timings for individual modules:

Sum of individual times         ...      739.489 sec (=  12.325 min)
GTO integral calculation        ...       59.513 sec (=   0.992 min)   8.0 %
SCF iterations                  ...      497.572 sec (=   8.293 min)  67.3 %
SCF Gradient evaluation         ...      181.292 sec (=   3.022 min)  24.5 %
Geometry relaxation             ...        1.112 sec (=   0.019 min)   0.2 %
                             ****ORCA TERMINATED NORMALLY****
TOTAL RUN TIME: 0 days 0 hours 13 minutes 13 seconds 237 msec
