
                                 *****************
                                 * O   R   C   A *
                                 *****************

                                            #,                                       
                                            ###                                      
                                            ####                                     
                                            #####                                    
                                            ######                                   
                                           ########,                                 
                                     ,,################,,,,,                         
                               ,,#################################,,                 
                          ,,##########################################,,             
                       ,#########################################, ''#####,          
                    ,#############################################,,   '####,        
                  ,##################################################,,,,####,       
                ,###########''''           ''''###############################       
              ,#####''   ,,,,##########,,,,          '''####'''          '####       
            ,##' ,,,,###########################,,,                        '##       
           ' ,,###''''                  '''############,,,                           
         ,,##''                                '''############,,,,        ,,,,,,###''
      ,#''                                            '''#######################'''  
     '                                                          ''''####''''         
             ,#######,   #######,   ,#######,      ##                                
            ,#'     '#,  ##    ##  ,#'     '#,    #''#        ######   ,####,        
            ##       ##  ##   ,#'  ##            #'  '#       #        #'  '#        
            ##       ##  #######   ##           ,######,      #####,   #    #        
            '#,     ,#'  ##    ##  '#,     ,#' ,#      #,         ##   #,  ,#        
             '#######'   ##     ##  '#######'  #'      '#     #####' # '####'        



                  #######################################################
                  #                        -***-                        #
                  #          Department of theory and spectroscopy      #
                  #    Directorship and core code : Frank Neese         #
                  #        Max Planck Institute fuer Kohlenforschung    #
                  #                Kaiser Wilhelm Platz 1               #
                  #                 D-45470 Muelheim/Ruhr               #
                  #                      Germany                        #
                  #                                                     #
                  #                  All rights reserved                #
                  #                        -***-                        #
                  #######################################################


                         Program Version 5.0.4 -  RELEASE  -


 With contributions from (in alphabetic order):
   Daniel Aravena         : Magnetic Suceptibility
   Michael Atanasov       : Ab Initio Ligand Field Theory (pilot matlab implementation)
   Alexander A. Auer      : GIAO ZORA, VPT2 properties, NMR spectrum
   Ute Becker             : Parallelization
   Giovanni Bistoni       : ED, misc. LED, open-shell LED, HFLD
   Martin Brehm           : Molecular dynamics
   Dmytro Bykov           : SCF Hessian
   Vijay G. Chilkuri      : MRCI spin determinant printing, contributions to CSF-ICE
   Dipayan Datta          : RHF DLPNO-CCSD density
   Achintya Kumar Dutta   : EOM-CC, STEOM-CC
   Dmitry Ganyushin       : Spin-Orbit,Spin-Spin,Magnetic field MRCI
   Miquel Garcia          : C-PCM and meta-GGA Hessian, CC/C-PCM, Gaussian charge scheme
   Yang Guo               : DLPNO-NEVPT2, F12-NEVPT2, CIM, IAO-localization
   Andreas Hansen         : Spin unrestricted coupled pair/coupled cluster methods
   Benjamin Helmich-Paris : MC-RPA, TRAH-SCF, COSX integrals
   Lee Huntington         : MR-EOM, pCC
   Robert Izsak           : Overlap fitted RIJCOSX, COSX-SCS-MP3, EOM
   Marcus Kettner         : VPT2
   Christian Kollmar      : KDIIS, OOCD, Brueckner-CCSD(T), CCSD density, CASPT2, CASPT2-K
   Simone Kossmann        : Meta GGA functionals, TD-DFT gradient, OOMP2, MP2 Hessian
   Martin Krupicka        : Initial AUTO-CI
   Lucas Lang             : DCDCAS
   Marvin Lechner         : AUTO-CI (C++ implementation), FIC-MRCC
   Dagmar Lenk            : GEPOL surface, SMD
   Dimitrios Liakos       : Extrapolation schemes; Compound Job, initial MDCI parallelization
   Dimitrios Manganas     : Further ROCIS development; embedding schemes
   Dimitrios Pantazis     : SARC Basis sets
   Anastasios Papadopoulos: AUTO-CI, single reference methods and gradients
   Taras Petrenko         : DFT Hessian,TD-DFT gradient, ASA, ECA, R-Raman, ABS, FL, XAS/XES, NRVS
   Peter Pinski           : DLPNO-MP2, DLPNO-MP2 Gradient
   Christoph Reimann      : Effective Core Potentials
   Marius Retegan         : Local ZFS, SOC
   Christoph Riplinger    : Optimizer, TS searches, QM/MM, DLPNO-CCSD(T), (RO)-DLPNO pert. Triples
   Tobias Risthaus        : Range-separated hybrids, TD-DFT gradient, RPA, STAB
   Michael Roemelt        : Original ROCIS implementation
   Masaaki Saitow         : Open-shell DLPNO-CCSD energy and density
   Barbara Sandhoefer     : DKH picture change effects
   Avijit Sen             : IP-ROCIS
   Kantharuban Sivalingam : CASSCF convergence, NEVPT2, FIC-MRCI
   Bernardo de Souza      : ESD, SOC TD-DFT
   Georgi Stoychev        : AutoAux, RI-MP2 NMR, DLPNO-MP2 response
   Willem Van den Heuvel  : Paramagnetic NMR
   Boris Wezisla          : Elementary symmetry handling
   Frank Wennmohs         : Technical directorship


 We gratefully acknowledge several colleagues who have allowed us to
 interface, adapt or use parts of their codes:
   Stefan Grimme, W. Hujo, H. Kruse, P. Pracht,  : VdW corrections, initial TS optimization,
                  C. Bannwarth, S. Ehlert          DFT functionals, gCP, sTDA/sTD-DF
   Ed Valeev, F. Pavosevic, A. Kumar             : LibInt (2-el integral package), F12 methods
   Garnet Chan, S. Sharma, J. Yang, R. Olivares  : DMRG
   Ulf Ekstrom                                   : XCFun DFT Library
   Mihaly Kallay                                 : mrcc  (arbitrary order and MRCC methods)
   Jiri Pittner, Ondrej Demel                    : Mk-CCSD
   Frank Weinhold                                : gennbo (NPA and NBO analysis)
   Christopher J. Cramer and Donald G. Truhlar   : smd solvation model
   Lars Goerigk                                  : TD-DFT with DH, B97 family of functionals
   V. Asgeirsson, H. Jonsson                     : NEB implementation
   FAccTs GmbH                                   : IRC, NEB, NEB-TS, DLPNO-Multilevel, CI-OPT
                                                   MM, QMMM, 2- and 3-layer-ONIOM, Crystal-QMMM,
                                                   LR-CPCM, SF, NACMEs, symmetry and pop. for TD-DFT,
                                                   nearIR, NL-DFT gradient (VV10), updates on ESD,
                                                   ML-optimized integration grids
   S Lehtola, MJT Oliveira, MAL Marques          : LibXC Library
   Liviu Ungur et al                             : ANISO software


 Your calculation uses the libint2 library for the computation of 2-el integrals
 For citations please refer to: http://libint.valeyev.net

 Your ORCA version has been built with support for libXC version: 5.1.0
 For citations please refer to: https://tddft.org/programs/libxc/

 This ORCA versions uses:
   CBLAS   interface :  Fast vector & matrix operations
   LAPACKE interface :  Fast linear algebra routines
   SCALAPACK package :  Parallel linear algebra routines
   Shared memory     :  Shared parallel matrices
   BLAS/LAPACK       :  OpenBLAS 0.3.15  USE64BITINT DYNAMIC_ARCH NO_AFFINITY Zen SINGLE_THREADED
        Core in use  :  Zen
   Copyright (c) 2011-2014, The OpenBLAS Project




***************************************
The coordinates will be read from file: opt.xyz
***************************************


================================================================================

----- Orbital basis set information -----
Your calculation utilizes the basis: EPR-II
   V. Barone, in Recent Advances in Density Functional Methods, Part 1 (ed. D. P. Chong), World Scientific, Singapore, 1995, p. 287.

----- AuxJ basis set information -----
Your calculation utilizes the AutoAux generation procedure.
  G. L. Stoychev, A. A. Auer, F. Neese, J. Chem. Theory Comput. 13, 554 (2017)

----- AuxC basis set information -----
Your calculation utilizes the AutoAux generation procedure.
  G. L. Stoychev, A. A. Auer, F. Neese, J. Chem. Theory Comput. 13, 554 (2017)

----- AuxJK basis set information -----
Your calculation utilizes the AutoAux generation procedure.
  G. L. Stoychev, A. A. Auer, F. Neese, J. Chem. Theory Comput. 13, 554 (2017)

================================================================================
                                        WARNINGS
                       Please study these warnings very carefully!
================================================================================


WARNING: your system is open-shell and RHF/RKS was chosen
  ===> : WILL SWITCH to UHF/UKS


INFO   : the flag for use of the SHARK integral package has been found!

================================================================================
                                       INPUT FILE
================================================================================
NAME = epr_info.inp
|  1> ! B3LYP EPR-II AUTOAUX
|  2> %pal nprocs 16 end
|  3> *XYZFile 0 2 opt.xyz
|  4> %EPRNMR
|  5>         GTENSOR   TRUE
|  6>         NUCLEI    = 9,10,11,12,29,30,31,32 {SHIFT, AISO, ADIP, AORB}
|  7>         ORI       GIAO
|  8> END
|  9> 
| 10>                          ****END OF INPUT****
================================================================================

                       ****************************
                       * Single Point Calculation *
                       ****************************

---------------------------------
CARTESIAN COORDINATES (ANGSTROEM)
---------------------------------
  N      1.596233   -0.802325    0.380239
  C      1.093065    0.224062   -0.517746
  C      1.163026    1.562899    0.246626
  O      1.332755    1.604603    1.466997
  C     -0.339554   -0.078626   -1.036496
  C     -1.416718   -0.158896    0.057323
  C     -2.799088   -0.535189   -0.509134
  C     -3.864598   -0.610713    0.551400
  N     -5.122776   -1.133630    0.174909
  H     -3.915912    0.192393    1.285318
  H     -5.751476   -1.271656    0.957200
  H     -5.054199   -1.990053   -0.364279
  H      1.682364   -0.522745    1.349190
  C      2.130897   -1.974181   -0.075211
  N      1.004062    2.675092   -0.527857
  H      0.901362    2.549278   -1.523359
  O      2.150056   -2.272414   -1.270908
  C      2.701003   -2.901005    0.994720
  H      2.196582   -3.868187    0.921230
  H      3.761251   -3.063994    0.782275
  H      2.591529   -2.513043    2.010937
  C      1.018658    4.031929    0.007896
  H      1.848554    4.610126   -0.412159
  H      0.077506    4.548663   -0.207610
  H      1.147128    3.960495    1.087948
  H      1.758368    0.272244   -1.389077
  H     -0.616496    0.685605   -1.775209
  H     -0.280887   -1.029132   -1.577500
  H     -1.493324    0.802729    0.581918
  H     -1.121829   -0.900608    0.807506
  H     -3.082187    0.197691   -1.287982
  H     -2.725848   -1.504583   -1.026180

----------------------------
CARTESIAN COORDINATES (A.U.)
----------------------------
  NO LB      ZA    FRAG     MASS         X           Y           Z
   0 N     7.0000    0    14.007    3.016443   -1.516175    0.718547
   1 C     6.0000    0    12.011    2.065594    0.423416   -0.978399
   2 C     6.0000    0    12.011    2.197800    2.953451    0.466056
   3 O     8.0000    0    15.999    2.518543    3.032260    2.772223
   4 C     6.0000    0    12.011   -0.641664   -0.148581   -1.958694
   5 C     6.0000    0    12.011   -2.677210   -0.300270    0.108325
   6 C     6.0000    0    12.011   -5.289509   -1.011361   -0.962124
   7 C     6.0000    0    12.011   -7.303032   -1.154080    1.041994
   8 N     7.0000    0    14.007   -9.680644   -2.142249    0.330530
   9 H     1.0000    0     1.008   -7.400002    0.363571    2.428899
  10 H     1.0000    0     1.008  -10.868714   -2.403082    1.808845
  11 H     1.0000    0     1.008   -9.551052   -3.760655   -0.688388
  12 H     1.0000    0     1.008    3.179207   -0.987844    2.549600
  13 C     6.0000    0    12.011    4.026812   -3.730661   -0.142128
  14 N     7.0000    0    14.007    1.897402    5.055191   -0.997504
  15 H     1.0000    0     1.008    1.703328    4.817437   -2.878731
  16 O     8.0000    0    15.999    4.063017   -4.294241   -2.401668
  17 C     6.0000    0    12.011    5.104156   -5.482105    1.879749
  18 H     1.0000    0     1.008    4.150938   -7.309814    1.740873
  19 H     1.0000    0     1.008    7.107734   -5.790110    1.478286
  20 H     1.0000    0     1.008    4.897281   -4.748964    3.800120
  21 C     6.0000    0    12.011    1.924985    7.619241    0.014922
  22 H     1.0000    0     1.008    3.493262    8.711876   -0.778868
  23 H     1.0000    0     1.008    0.146464    8.595727   -0.392327
  24 H     1.0000    0     1.008    2.167759    7.484251    2.055924
  25 H     1.0000    0     1.008    3.322834    0.514467   -2.624974
  26 H     1.0000    0     1.008   -1.165009    1.295606   -3.354658
  27 H     1.0000    0     1.008   -0.530800   -1.944778   -2.981043
  28 H     1.0000    0     1.008   -2.821974    1.516938    1.099666
  29 H     1.0000    0     1.008   -2.119950   -1.701902    1.525966
  30 H     1.0000    0     1.008   -5.824488    0.373581   -2.433934
  31 H     1.0000    0     1.008   -5.151106   -2.843249   -1.939200

--------------------------------
INTERNAL COORDINATES (ANGSTROEM)
--------------------------------
 N      0   0   0     0.000000000000     0.00000000     0.00000000
 C      1   0   0     1.453624675425     0.00000000     0.00000000
 C      2   1   0     1.543257642510   106.91149969     0.00000000
 O      3   2   1     1.232823088370   121.72775472   345.61554258
 C      2   1   3     1.553421781493   112.82633810   236.31390612
 C      5   2   1     1.537259554023   114.75739935    61.73566641
 C      6   5   2     1.540589165070   112.32568529   183.06301889
 C      7   6   5     1.505240312694   112.85279255   180.27422605
 N      8   7   6     1.413576538773   117.44893175   188.89863167
 H      8   7   6     1.089150681926   118.10691244    45.61471188
 H      9   8   7     1.013061474613   113.39718761   172.32242631
 H      9   8   7     1.014341244395   113.18704393    46.50087373
 H      1   2   3     1.012151248308   115.20173377    13.57104479
 C      1   2   3     1.366215752103   122.35500224   204.43602477
 N      3   2   1     1.364575585076   114.87825572   166.51907662
 H     15   3   2     1.008663159430   118.05736508   357.06544760
 O     14   1   2     1.232478153173   122.48339772   355.60855486
 C     14   1   2     1.526032938610   115.68439526   175.89091646
 H     18  14   1     1.093289695286   108.52953393   122.80293553
 H     18  14   1     1.093537743211   108.45309363   239.42373245
 H     18  14   1     1.093249996849   113.50190451     1.09926809
 C     15   3   2     1.458852343389   123.26092924   179.09481232
 H     22  15   3     1.095210897950   110.96175685   117.74350225
 H     22  15   3     1.095091506949   110.97725420   239.17664247
 H     22  15   3     1.090009040295   107.70494310   358.53435047
 H      2   1   3     1.097344737755   108.15927661   117.39987831
 H      5   2   1     1.098381385479   108.75641122   185.09716449
 H      5   2   1     1.095257713196   106.53802620   299.61285849
 H      6   5   2     1.098084980665   110.06486385    61.30818957
 H      6   5   2     1.095386448893   109.51310252   304.50914120
 H      7   6   5     1.106283019000   109.06681972   303.32410308
 H      7   6   5     1.101101506615   109.14797900    58.28716068

---------------------------
INTERNAL COORDINATES (A.U.)
---------------------------
 N      0   0   0     0.000000000000     0.00000000     0.00000000
 C      1   0   0     2.746952538064     0.00000000     0.00000000
 C      2   1   0     2.916334298424   106.91149969     0.00000000
 O      3   2   1     2.329698008594   121.72775472   345.61554258
 C      2   1   3     2.935541737489   112.82633810   236.31390612
 C      5   2   1     2.904999553857   114.75739935    61.73566641
 C      6   5   2     2.911291606869   112.32568529   183.06301889
 C      7   6   5     2.844491956730   112.85279255   180.27422605
 N      8   7   6     2.671272527617   117.44893175   188.89863167
 H      8   7   6     2.058196507415   118.10691244    45.61471188
 H      9   8   7     1.914408743844   113.39718761   172.32242631
 H      9   8   7     1.916827158248   113.18704393    46.50087373
 H      1   2   3     1.912688665409   115.20173377    13.57104479
 C      1   2   3     2.581773611324   122.35500224   204.43602477
 N      3   2   1     2.578674144830   114.87825572   166.51907662
 H     15   3   2     1.906097132699   118.05736508   357.06544760
 O     14   1   2     2.329046175538   122.48339772   355.60855486
 C     14   1   2     2.883784325316   115.68439526   175.89091646
 H     18  14   1     2.066018109128   108.52953393   122.80293553
 H     18  14   1     2.066486851776   108.45309363   239.42373245
 H     18  14   1     2.065943089956   113.50190451     1.09926809
 C     15   3   2     2.756831398835   123.26092924   179.09481232
 H     22  15   3     2.069648656011   110.96175685   117.74350225
 H     22  15   3     2.069423039717   110.97725420   239.17664247
 H     22  15   3     2.059818569655   107.70494310   358.53435047
 H      2   1   3     2.073681028857   108.15927661   117.39987831
 H      5   2   1     2.075640009151   108.75641122   185.09716449
 H      5   2   1     2.069737124005   106.53802620   299.61285849
 H      6   5   2     2.075079885229   110.06486385    61.30818957
 H      6   5   2     2.069980399217   109.51310252   304.50914120
 H      7   6   5     2.090571932518   109.06681972   303.32410308
 H      7   6   5     2.080780293151   109.14797900    58.28716068

---------------------
BASIS SET INFORMATION
---------------------
There are 4 groups of distinct atoms

 Group   1 Type N   : 10s5p1d contracted to 6s2p1d pattern {511111/41/1}
 Group   2 Type C   : 10s5p1d contracted to 6s2p1d pattern {511111/41/1}
 Group   3 Type O   : 10s5p1d contracted to 6s2p1d pattern {511111/41/1}
 Group   4 Type H   : 6s1p contracted to 4s1p pattern {3111/1}

Atom   0N    basis set group =>   1
Atom   1C    basis set group =>   2
Atom   2C    basis set group =>   2
Atom   3O    basis set group =>   3
Atom   4C    basis set group =>   2
Atom   5C    basis set group =>   2
Atom   6C    basis set group =>   2
Atom   7C    basis set group =>   2
Atom   8N    basis set group =>   1
Atom   9H    basis set group =>   4
Atom  10H    basis set group =>   4
Atom  11H    basis set group =>   4
Atom  12H    basis set group =>   4
Atom  13C    basis set group =>   2
Atom  14N    basis set group =>   1
Atom  15H    basis set group =>   4
Atom  16O    basis set group =>   3
Atom  17C    basis set group =>   2
Atom  18H    basis set group =>   4
Atom  19H    basis set group =>   4
Atom  20H    basis set group =>   4
Atom  21C    basis set group =>   2
Atom  22H    basis set group =>   4
Atom  23H    basis set group =>   4
Atom  24H    basis set group =>   4
Atom  25H    basis set group =>   4
Atom  26H    basis set group =>   4
Atom  27H    basis set group =>   4
Atom  28H    basis set group =>   4
Atom  29H    basis set group =>   4
Atom  30H    basis set group =>   4
Atom  31H    basis set group =>   4
---------------------------------
AUXILIARY/J BASIS SET INFORMATION
---------------------------------
There are 4 groups of distinct atoms

 Group   1 Type N   : 17s13p12d2f contracted to 17s13p12d2f pattern {11111111111111111/1111111111111/111111111111/11}
 Group   2 Type C   : 17s13p12d2f contracted to 17s13p12d2f pattern {11111111111111111/1111111111111/111111111111/11}
 Group   3 Type O   : 17s13p12d2f contracted to 17s13p12d2f pattern {11111111111111111/1111111111111/111111111111/11}
 Group   4 Type H   : 15s6p1d contracted to 15s6p1d pattern {111111111111111/111111/1}

Atom   0N    basis set group =>   1
Atom   1C    basis set group =>   2
Atom   2C    basis set group =>   2
Atom   3O    basis set group =>   3
Atom   4C    basis set group =>   2
Atom   5C    basis set group =>   2
Atom   6C    basis set group =>   2
Atom   7C    basis set group =>   2
Atom   8N    basis set group =>   1
Atom   9H    basis set group =>   4
Atom  10H    basis set group =>   4
Atom  11H    basis set group =>   4
Atom  12H    basis set group =>   4
Atom  13C    basis set group =>   2
Atom  14N    basis set group =>   1
Atom  15H    basis set group =>   4
Atom  16O    basis set group =>   3
Atom  17C    basis set group =>   2
Atom  18H    basis set group =>   4
Atom  19H    basis set group =>   4
Atom  20H    basis set group =>   4
Atom  21C    basis set group =>   2
Atom  22H    basis set group =>   4
Atom  23H    basis set group =>   4
Atom  24H    basis set group =>   4
Atom  25H    basis set group =>   4
Atom  26H    basis set group =>   4
Atom  27H    basis set group =>   4
Atom  28H    basis set group =>   4
Atom  29H    basis set group =>   4
Atom  30H    basis set group =>   4
Atom  31H    basis set group =>   4
---------------------------------
AUXILIARY/C BASIS SET INFORMATION
---------------------------------
There are 4 groups of distinct atoms

 Group   1 Type N   : 17s13p12d2f contracted to 17s13p12d2f pattern {11111111111111111/1111111111111/111111111111/11}
 Group   2 Type C   : 17s13p12d2f contracted to 17s13p12d2f pattern {11111111111111111/1111111111111/111111111111/11}
 Group   3 Type O   : 17s13p12d2f contracted to 17s13p12d2f pattern {11111111111111111/1111111111111/111111111111/11}
 Group   4 Type H   : 15s6p1d contracted to 15s6p1d pattern {111111111111111/111111/1}

Atom   0N    basis set group =>   1
Atom   1C    basis set group =>   2
Atom   2C    basis set group =>   2
Atom   3O    basis set group =>   3
Atom   4C    basis set group =>   2
Atom   5C    basis set group =>   2
Atom   6C    basis set group =>   2
Atom   7C    basis set group =>   2
Atom   8N    basis set group =>   1
Atom   9H    basis set group =>   4
Atom  10H    basis set group =>   4
Atom  11H    basis set group =>   4
Atom  12H    basis set group =>   4
Atom  13C    basis set group =>   2
Atom  14N    basis set group =>   1
Atom  15H    basis set group =>   4
Atom  16O    basis set group =>   3
Atom  17C    basis set group =>   2
Atom  18H    basis set group =>   4
Atom  19H    basis set group =>   4
Atom  20H    basis set group =>   4
Atom  21C    basis set group =>   2
Atom  22H    basis set group =>   4
Atom  23H    basis set group =>   4
Atom  24H    basis set group =>   4
Atom  25H    basis set group =>   4
Atom  26H    basis set group =>   4
Atom  27H    basis set group =>   4
Atom  28H    basis set group =>   4
Atom  29H    basis set group =>   4
Atom  30H    basis set group =>   4
Atom  31H    basis set group =>   4
----------------------------------
AUXILIARY/JK BASIS SET INFORMATION
----------------------------------
There are 4 groups of distinct atoms

 Group   1 Type N   : 17s13p12d2f contracted to 17s13p12d2f pattern {11111111111111111/1111111111111/111111111111/11}
 Group   2 Type C   : 17s13p12d2f contracted to 17s13p12d2f pattern {11111111111111111/1111111111111/111111111111/11}
 Group   3 Type O   : 17s13p12d2f contracted to 17s13p12d2f pattern {11111111111111111/1111111111111/111111111111/11}
 Group   4 Type H   : 15s6p1d contracted to 15s6p1d pattern {111111111111111/111111/1}

Atom   0N    basis set group =>   1
Atom   1C    basis set group =>   2
Atom   2C    basis set group =>   2
Atom   3O    basis set group =>   3
Atom   4C    basis set group =>   2
Atom   5C    basis set group =>   2
Atom   6C    basis set group =>   2
Atom   7C    basis set group =>   2
Atom   8N    basis set group =>   1
Atom   9H    basis set group =>   4
Atom  10H    basis set group =>   4
Atom  11H    basis set group =>   4
Atom  12H    basis set group =>   4
Atom  13C    basis set group =>   2
Atom  14N    basis set group =>   1
Atom  15H    basis set group =>   4
Atom  16O    basis set group =>   3
Atom  17C    basis set group =>   2
Atom  18H    basis set group =>   4
Atom  19H    basis set group =>   4
Atom  20H    basis set group =>   4
Atom  21C    basis set group =>   2
Atom  22H    basis set group =>   4
Atom  23H    basis set group =>   4
Atom  24H    basis set group =>   4
Atom  25H    basis set group =>   4
Atom  26H    basis set group =>   4
Atom  27H    basis set group =>   4
Atom  28H    basis set group =>   4
Atom  29H    basis set group =>   4
Atom  30H    basis set group =>   4
Atom  31H    basis set group =>   4


           ************************************************************
           *        Program running with 16 parallel MPI-processes    *
           *              working on a common directory               *
           ************************************************************
------------------------------------------------------------------------------
                           ORCA GTO INTEGRAL CALCULATION
                           -- RI-GTO INTEGRALS CHOSEN --
------------------------------------------------------------------------------
------------------------------------------------------------------------------
                   ___                                                        
                  /   \      - P O W E R E D   B Y -                         
                 /     \                                                     
                 |  |  |   _    _      __       _____    __    __             
                 |  |  |  | |  | |    /  \     |  _  \  |  |  /  |          
                  \  \/   | |  | |   /    \    | | | |  |  | /  /          
                 / \  \   | |__| |  /  /\  \   | |_| |  |  |/  /          
                |  |  |   |  __  | /  /__\  \  |    /   |      \           
                |  |  |   | |  | | |   __   |  |    \   |  |\   \          
                \     /   | |  | | |  |  |  |  | |\  \  |  | \   \       
                 \___/    |_|  |_| |__|  |__|  |_| \__\ |__|  \__/        
                                                                              
                      - O R C A' S   B I G   F R I E N D -                    
                                      &                                       
                       - I N T E G R A L  F E E D E R -                       
                                                                              
 v1 FN, 2020, v2 2021                                                         
------------------------------------------------------------------------------


Reading SHARK input file epr_info.SHARKINP.tmp ... ok
----------------------
SHARK INTEGRAL PACKAGE
----------------------

Number of atoms                             ...     32
Number of basis functions                   ...    364
Number of shells                            ...    216
Maximum angular momentum                    ...      2
Integral batch strategy                     ... SHARK/LIBINT Hybrid
RI-J (if used) integral strategy            ... SPLIT-RIJ (Revised 2003 algorithm where possible)
Printlevel                                  ...      1
Contraction scheme used                     ... SEGMENTED contraction
Coulomb Range Separation                    ... NOT USED
Exchange Range Separation                   ... NOT USED
Finite Nucleus Model                        ... NOT USED
Auxiliary Coulomb fitting basis             ... AVAILABLE
   # of basis functions in Aux-J            ...   2504
   # of shells in Aux-J                     ...   1012
   Maximum angular momentum in Aux-J        ...      3
Auxiliary J/K fitting basis                 ... AVAILABLE
   # of basis functions in Aux-JK           ...   2504
   # of shells in Aux-JK                    ...   1012
   Maximum angular momentum in Aux-JK       ...      3
Auxiliary Correlation fitting basis         ... AVAILABLE
   # of basis functions in Aux-C            ...   2504
   # of shells in Aux-C                     ...   1012
   Maximum angular momentum in Aux-C        ...      3
Auxiliary 'external' fitting basis          ... NOT available
Integral threshold                          ...     1.000000e-10
Primitive cut-off                           ...     1.000000e-11
Primitive pair pre-selection threshold      ...     1.000000e-11

Calculating pre-screening integrals         ... done (  0.0 sec) Dimension = 216
Organizing shell pair data                  ... done (  0.0 sec)
Shell pair information
Total number of shell pairs                 ...     23436
Shell pairs after pre-screening             ...     15010
Total number of primitive shell pairs       ...     61703
Primitive shell pairs kept                  ...     28622
          la=0 lb=0:   7055 shell pairs
          la=1 lb=0:   5116 shell pairs
          la=1 lb=1:    881 shell pairs
          la=2 lb=0:   1379 shell pairs
          la=2 lb=1:    500 shell pairs
          la=2 lb=2:     79 shell pairs

Calculating one electron integrals          ... done (  0.0 sec)
Calculating RI/J V-Matrix + Cholesky decomp.... done (  0.3 sec)
Calculating RI/JK V-Matrix + Cholesky decomp... done (  0.3 sec)
Calculating RI/C V-Matrix + Cholesky decomp.... done (  0.3 sec)
Calculating Nuclear repulsion               ... done (  0.0 sec) ENN=    915.812054614673 Eh

SHARK setup successfully completed in   1.1 seconds

Maximum memory used throughout the entire GTOINT-calculation: 28.0 MB


           ************************************************************
           *        Program running with 16 parallel MPI-processes    *
           *              working on a common directory               *
           ************************************************************
-------------------------------------------------------------------------------
                                 ORCA SCF
-------------------------------------------------------------------------------

------------
SCF SETTINGS
------------
Hamiltonian:
 Density Functional     Method          .... DFT(GTOs)
 Exchange Functional    Exchange        .... B88
   X-Alpha parameter    XAlpha          ....  0.666667
   Becke's b parameter  XBeta           ....  0.004200
 Correlation Functional Correlation     .... LYP
 LDA part of GGA corr.  LDAOpt          .... VWN-5
 Gradients option       PostSCFGGA      .... off
 Hybrid DFT is turned on
   Fraction HF Exchange ScalHFX         ....  0.200000
   Scaling of DF-GGA-X  ScalDFX         ....  0.720000
   Scaling of DF-GGA-C  ScalDFC         ....  0.810000
   Scaling of DF-LDA-C  ScalLDAC        ....  1.000000
   Perturbative correction              ....  0.000000
   Density functional embedding theory  .... OFF
   NL short-range parameter             ....  4.800000
 RI-approximation to the Coulomb term is turned on
   Number of AuxJ basis functions       .... 2504
   RIJ-COSX (HFX calculated with COS-X)).... on


General Settings:
 Integral files         IntName         .... epr_info
 Hartree-Fock type      HFTyp           .... UHF
 Total Charge           Charge          ....    0
 Multiplicity           Mult            ....    2
 Number of Electrons    NEL             ....  109
 Basis Dimension        Dim             ....  364
 Nuclear Repulsion      ENuc            ....    915.8120546147 Eh

Convergence Acceleration:
 DIIS                   CNVDIIS         .... on
   Start iteration      DIISMaxIt       ....    12
   Startup error        DIISStart       ....  0.200000
   # of expansion vecs  DIISMaxEq       ....     5
   Bias factor          DIISBfac        ....   1.050
   Max. coefficient     DIISMaxC        ....  10.000
 Trust-Rad. Augm. Hess. CNVTRAH         .... auto
   Auto Start mean grad. ratio tolernc. ....  1.125000
   Auto Start start iteration           ....    20
   Auto Start num. interpolation iter.  ....    10
   Max. Number of Micro iterations      ....    16
   Max. Number of Macro iterations      .... Maxiter - #DIIS iter
   Number of Davidson start vectors     ....     2
   Converg. threshold I  (grad. norm)   ....   5.000e-05
   Converg. threshold II (energy diff.) ....   1.000e-06
   Grad. Scal. Fac. for Micro threshold ....   0.100
   Minimum threshold for Micro iter.    ....   0.010
   NR start threshold (gradient norm)   ....   0.001
   Initial trust radius                 ....   0.400
   Minimum AH scaling param. (alpha)    ....   1.000
   Maximum AH scaling param. (alpha)    .... 1000.000
   Orbital update algorithm             .... Taylor
   White noise on init. David. guess    .... on
   Maximum white noise                  ....   0.010
   Quad. conv. algorithm                .... NR
 SOSCF                  CNVSOSCF        .... off
 Level Shifting         CNVShift        .... on
   Level shift para.    LevelShift      ....    0.2500
   Turn off err/grad.   ShiftErr        ....    0.0010
 Zerner damping         CNVZerner       .... off
 Static damping         CNVDamp         .... on
   Fraction old density DampFac         ....    0.7000
   Max. Damping (<1)    DampMax         ....    0.9800
   Min. Damping (>=0)   DampMin         ....    0.0000
   Turn off err/grad.   DampErr         ....    0.1000
 Fernandez-Rico         CNVRico         .... off

SCF Procedure:
 Maximum # iterations   MaxIter         ....   125
 SCF integral mode      SCFMode         .... Direct
   Integral package                     .... SHARK and LIBINT hybrid scheme
 Reset frequency        DirectResetFreq ....    20
 Integral Threshold     Thresh          ....  1.000e-10 Eh
 Primitive CutOff       TCut            ....  1.000e-11 Eh

Convergence Tolerance:
 Convergence Check Mode ConvCheckMode   .... Total+1el-Energy
 Convergence forced     ConvForced      .... 0
 Energy Change          TolE            ....  1.000e-06 Eh
 1-El. energy change                    ....  1.000e-03 Eh
 DIIS Error             TolErr          ....  1.000e-06


Diagonalization of the overlap matrix:
Smallest eigenvalue                        ... 9.592e-04
Time for diagonalization                   ...    0.014 sec
Threshold for overlap eigenvalues          ... 1.000e-08
Number of eigenvalues below threshold      ... 0
Time for construction of square roots      ...    0.011 sec
Total time needed                          ...    0.026 sec

Time for model grid setup =    0.108 sec

------------------------------
INITIAL GUESS: MODEL POTENTIAL
------------------------------
Loading Hartree-Fock densities                     ... done
Calculating cut-offs                               ... done
Initializing the effective Hamiltonian             ... done
Setting up the integral package (SHARK)            ... done
Starting the Coulomb interaction                   ... done (   0.0 sec)
Reading the grid                                   ... done
Mapping shells                                     ... done
Starting the XC term evaluation                    ... done (   0.0 sec)
  promolecular density results
     # of electrons  =    108.992008979
     EX              =    -87.723483412
     EC              =     -3.657935775
     EX+EC           =    -91.381419187
Transforming the Hamiltonian                       ... done (   0.0 sec)
Diagonalizing the Hamiltonian                      ... done (   0.0 sec)
Back transforming the eigenvectors                 ... done (   0.0 sec)
Now organizing SCF variables                       ... done
                      ------------------
                      INITIAL GUESS DONE (   0.3 sec)
                      ------------------
-------------------
DFT GRID GENERATION
-------------------

General Integration Accuracy     IntAcc      ... 4.388
Radial Grid Type                 RadialGrid  ... OptM3 with GC (2021)
Angular Grid (max. ang.)         AngularGrid ... 4 (Lebedev-302)
Angular grid pruning method      GridPruning ... 4 (adaptive)
Weight generation scheme         WeightScheme... Becke
Basis function cutoff            BFCut       ... 1.0000e-10
Integration weight cutoff        WCut        ... 1.0000e-14
Angular grids for H and He will be reduced by one unit
Partially contracted basis set               ... off
Rotationally invariant grid construction     ... off

Total number of grid points                  ...   141684
Total number of batches                      ...     2230
Average number of points per batch           ...       63
Average number of grid points per atom       ...     4428
Time for grid setup =    0.572 sec

--------------------
COSX GRID GENERATION
--------------------

GRIDX 1
-------
General Integration Accuracy     IntAcc      ... 3.816
Radial Grid Type                 RadialGrid  ... OptM3 with GC (2021)
Angular Grid (max. ang.)         AngularGrid ... 1 (Lebedev-50)
Angular grid pruning method      GridPruning ... 4 (adaptive)
Weight generation scheme         WeightScheme... Becke
Basis function cutoff            BFCut       ... 1.0000e-10
Integration weight cutoff        WCut        ... 1.0000e-14
Angular grids for H and He will be reduced by one unit
Partially contracted basis set               ... on
Rotationally invariant grid construction     ... off

Total number of grid points                  ...    18084
Total number of batches                      ...      302
Average number of points per batch           ...       59
Average number of grid points per atom       ...      565
UseSFitting                                  ... on

GRIDX 2
-------
General Integration Accuracy     IntAcc      ... 4.020
Radial Grid Type                 RadialGrid  ... OptM3 with GC (2021)
Angular Grid (max. ang.)         AngularGrid ... 2 (Lebedev-110)
Angular grid pruning method      GridPruning ... 4 (adaptive)
Weight generation scheme         WeightScheme... Becke
Basis function cutoff            BFCut       ... 1.0000e-10
Integration weight cutoff        WCut        ... 1.0000e-14
Angular grids for H and He will be reduced by one unit
Partially contracted basis set               ... on
Rotationally invariant grid construction     ... off

Total number of grid points                  ...    38337
Total number of batches                      ...      616
Average number of points per batch           ...       62
Average number of grid points per atom       ...     1198
UseSFitting                                  ... on

GRIDX 3
-------
General Integration Accuracy     IntAcc      ... 4.338
Radial Grid Type                 RadialGrid  ... OptM3 with GC (2021)
Angular Grid (max. ang.)         AngularGrid ... 3 (Lebedev-194)
Angular grid pruning method      GridPruning ... 4 (adaptive)
Weight generation scheme         WeightScheme... Becke
Basis function cutoff            BFCut       ... 1.0000e-10
Integration weight cutoff        WCut        ... 1.0000e-14
Angular grids for H and He will be reduced by one unit
Partially contracted basis set               ... on
Rotationally invariant grid construction     ... off

Total number of grid points                  ...    83561
Total number of batches                      ...     1323
Average number of points per batch           ...       63
Average number of grid points per atom       ...     2611
UseSFitting                                  ... on

Time for X-Grid setup             =    0.663 sec

--------------
SCF ITERATIONS
--------------
ITER       Energy         Delta-E        Max-DP      RMS-DP      [F,P]     Damp
               ***  Starting incremental Fock matrix formation  ***
  0   -667.7084181882   0.000000000000 0.06250487  0.00097062  0.1303667 0.7000
  1   -667.9576756820  -0.249257493798 0.05235566  0.00068911  0.0502345 0.7000
                               ***Turning on DIIS***
  2   -668.0478850013  -0.090209319233 0.08146570  0.00105785  0.0175600 0.0000
  3   -668.1942145431  -0.146329541802 0.04641860  0.00050862  0.0281519 0.0000
  4   -668.2269422973  -0.032727754194 0.01726874  0.00017496  0.0084087 0.0000
  5   -668.2288569112  -0.001914613895 0.00790403  0.00006893  0.0052756 0.0000
  6   -668.2292423234  -0.000385412202 0.00476722  0.00003964  0.0006843 0.0000
               *** Restarting incremental Fock matrix formation ***
                                   *** Resetting DIIS ***
  7   -668.2293045529  -0.000062229531 0.00174599  0.00001969  0.0006807 0.0000
  8   -668.2292908056   0.000013747298 0.00118230  0.00001132  0.0009941 0.0000
  9   -668.2293160901  -0.000025284510 0.00027274  0.00000283  0.0001455 0.0000
                 **** Energy Check signals convergence ****

               *****************************************************
               *                     SUCCESS                       *
               *           SCF CONVERGED AFTER  10 CYCLES          *
               *****************************************************

Old exchange energy                            =    -17.858492246 Eh
New exchange energy                            =    -17.858511099 Eh
Exchange energy change after final integration =     -0.000018853 Eh
Total energy after final integration           =   -668.229334782 Eh
Final COS-X integration done in                =     2.082 sec

----------------
TOTAL SCF ENERGY
----------------

Total Energy       :         -668.22933478 Eh          -18183.44463 eV

Components:
Nuclear Repulsion  :          915.81205461 Eh           24920.51294 eV
Electronic Energy  :        -1584.04138940 Eh          -43103.95757 eV
One Electron Energy:        -2725.74614168 Eh          -74171.32331 eV
Two Electron Energy:         1141.70475228 Eh           31067.36574 eV
Max COSX asymmetry :            0.00000132 Eh               0.00004 eV

Virial components:
Potential Energy   :        -1331.83210254 Eh          -36240.99397 eV
Kinetic Energy     :          663.60276776 Eh           18057.54934 eV
Virial Ratio       :            2.00697189


DFT components:
N(Alpha)           :       54.999988192800 electrons
N(Beta)            :       53.999991966375 electrons
N(Total)           :      108.999980159175 electrons
E(X)               :      -70.935817177888 Eh       
E(C)               :       -4.314028461618 Eh       
E(XC)              :      -75.249845639506 Eh       
DFET-embed. en.    :        0.000000000000 Eh       

---------------
SCF CONVERGENCE
---------------

  Last Energy change         ...    1.6157e-07  Tolerance :   1.0000e-06
  Last MAX-Density change    ...    0.0000e+00  Tolerance :   1.0000e-05
  Last RMS-Density change    ...    0.0000e+00  Tolerance :   1.0000e-06
  Last DIIS Error            ...    2.0394e-04  Tolerance :   1.0000e-06

             **** THE GBW FILE WAS UPDATED (epr_info.gbw) ****
             **** DENSITY epr_info.scfp WAS UPDATED ****
             **** ENERGY FILE WAS UPDATED (epr_info.en.tmp) ****
----------------------
UHF SPIN CONTAMINATION
----------------------

Warning: in a DFT calculation there is little theoretical justification to 
         calculate <S**2> as in Hartree-Fock theory. We will do it anyways
         but you should keep in mind that the values have only limited relevance

Expectation value of <S**2>     :     0.753369
Ideal value S*(S+1) for S=0.5   :     0.750000
Deviation                       :     0.003369

             **** THE GBW FILE WAS UPDATED (epr_info.gbw) ****
             **** DENSITY epr_info.scfp WAS UPDATED ****
----------------
ORBITAL ENERGIES
----------------
                 SPIN UP ORBITALS
  NO   OCC          E(Eh)            E(eV) 
   0   1.0000     -19.121376      -520.3191 
   1   1.0000     -19.097950      -519.6817 
   2   1.0000     -14.371098      -391.0575 
   3   1.0000     -14.347435      -390.4136 
   4   1.0000     -14.333891      -390.0450 
   5   1.0000     -10.302312      -280.3402 
   6   1.0000     -10.285972      -279.8955 
   7   1.0000     -10.237275      -278.5704 
   8   1.0000     -10.224411      -278.2204 
   9   1.0000     -10.198166      -277.5062 
  10   1.0000     -10.188171      -277.2342 
  11   1.0000     -10.183923      -277.1186 
  12   1.0000     -10.181857      -277.0624 
  13   1.0000     -10.178644      -276.9750 
  14   1.0000      -1.044030       -28.4095 
  15   1.0000      -1.019760       -27.7491 
  16   1.0000      -0.930491       -25.3199 
  17   1.0000      -0.914503       -24.8849 
  18   1.0000      -0.896644       -24.3989 
  19   1.0000      -0.797548       -21.7024 
  20   1.0000      -0.758751       -20.6467 
  21   1.0000      -0.725846       -19.7513 
  22   1.0000      -0.709661       -19.3109 
  23   1.0000      -0.664373       -18.0785 
  24   1.0000      -0.612277       -16.6609 
  25   1.0000      -0.596499       -16.2316 
  26   1.0000      -0.580472       -15.7955 
  27   1.0000      -0.561345       -15.2750 
  28   1.0000      -0.535894       -14.5824 
  29   1.0000      -0.504536       -13.7291 
  30   1.0000      -0.479039       -13.0353 
  31   1.0000      -0.471089       -12.8190 
  32   1.0000      -0.466531       -12.6949 
  33   1.0000      -0.460516       -12.5313 
  34   1.0000      -0.450062       -12.2468 
  35   1.0000      -0.446756       -12.1568 
  36   1.0000      -0.441202       -12.0057 
  37   1.0000      -0.426073       -11.5940 
  38   1.0000      -0.409896       -11.1538 
  39   1.0000      -0.401845       -10.9348 
  40   1.0000      -0.400074       -10.8866 
  41   1.0000      -0.389543       -10.6000 
  42   1.0000      -0.382849       -10.4178 
  43   1.0000      -0.374822       -10.1994 
  44   1.0000      -0.364662        -9.9230 
  45   1.0000      -0.356050        -9.6886 
  46   1.0000      -0.339274        -9.2321 
  47   1.0000      -0.335376        -9.1260 
  48   1.0000      -0.326314        -8.8795 
  49   1.0000      -0.314150        -8.5485 
  50   1.0000      -0.269039        -7.3209 
  51   1.0000      -0.268521        -7.3068 
  52   1.0000      -0.247224        -6.7273 
  53   1.0000      -0.244019        -6.6401 
  54   1.0000      -0.143431        -3.9030 
  55   0.0000       0.006954         0.1892 
  56   0.0000       0.012726         0.3463 
  57   0.0000       0.026630         0.7246 
  58   0.0000       0.029576         0.8048 
  59   0.0000       0.034748         0.9455 
  60   0.0000       0.036339         0.9888 
  61   0.0000       0.048695         1.3251 
  62   0.0000       0.053405         1.4532 
  63   0.0000       0.064994         1.7686 
  64   0.0000       0.080400         2.1878 
  65   0.0000       0.094209         2.5635 
  66   0.0000       0.095785         2.6064 
  67   0.0000       0.115622         3.1462 
  68   0.0000       0.120386         3.2759 
  69   0.0000       0.150400         4.0926 
  70   0.0000       0.155460         4.2303 
  71   0.0000       0.161649         4.3987 
  72   0.0000       0.167359         4.5541 
  73   0.0000       0.170646         4.6435 
  74   0.0000       0.176572         4.8048 
  75   0.0000       0.186117         5.0645 
  76   0.0000       0.193666         5.2699 
  77   0.0000       0.195296         5.3143 
  78   0.0000       0.202432         5.5085 
  79   0.0000       0.203102         5.5267 
  80   0.0000       0.207764         5.6536 
  81   0.0000       0.218694         5.9510 
  82   0.0000       0.220733         6.0065 
  83   0.0000       0.235666         6.4128 
  84   0.0000       0.237428         6.4607 
  85   0.0000       0.247831         6.7438 
  86   0.0000       0.250334         6.8119 
  87   0.0000       0.251226         6.8362 
  88   0.0000       0.256970         6.9925 
  89   0.0000       0.262602         7.1458 
  90   0.0000       0.269530         7.3343 
  91   0.0000       0.274549         7.4708 
  92   0.0000       0.282255         7.6806 
  93   0.0000       0.285564         7.7706 
  94   0.0000       0.291559         7.9337 
  95   0.0000       0.295733         8.0473 
  96   0.0000       0.298914         8.1339 
  97   0.0000       0.313568         8.5326 
  98   0.0000       0.316627         8.6159 
  99   0.0000       0.321309         8.7433 
 100   0.0000       0.328093         8.9279 
 101   0.0000       0.334030         9.0894 
 102   0.0000       0.344684         9.3793 
 103   0.0000       0.353406         9.6167 
 104   0.0000       0.367178         9.9914 
 105   0.0000       0.372778        10.1438 
 106   0.0000       0.380284        10.3480 
 107   0.0000       0.390839        10.6353 
 108   0.0000       0.395534        10.7630 
 109   0.0000       0.409440        11.1414 
 110   0.0000       0.423712        11.5298 
 111   0.0000       0.429250        11.6805 
 112   0.0000       0.436471        11.8770 
 113   0.0000       0.443716        12.0741 
 114   0.0000       0.452297        12.3076 
 115   0.0000       0.460530        12.5316 
 116   0.0000       0.472828        12.8663 
 117   0.0000       0.485336        13.2067 
 118   0.0000       0.489768        13.3273 
 119   0.0000       0.505596        13.7580 
 120   0.0000       0.513481        13.9725 
 121   0.0000       0.525593        14.3021 
 122   0.0000       0.535593        14.5742 
 123   0.0000       0.555886        15.1264 
 124   0.0000       0.564397        15.3580 
 125   0.0000       0.566563        15.4169 
 126   0.0000       0.591156        16.0862 
 127   0.0000       0.604730        16.4555 
 128   0.0000       0.612056        16.6549 
 129   0.0000       0.617759        16.8101 
 130   0.0000       0.644697        17.5431 
 131   0.0000       0.656756        17.8712 
 132   0.0000       0.671811        18.2809 
 133   0.0000       0.686114        18.6701 
 134   0.0000       0.720754        19.6127 
 135   0.0000       0.723981        19.7005 
 136   0.0000       0.745181        20.2774 
 137   0.0000       0.769080        20.9277 
 138   0.0000       0.782580        21.2951 
 139   0.0000       0.801398        21.8072 
 140   0.0000       0.806712        21.9518 
 141   0.0000       0.815945        22.2030 
 142   0.0000       0.822927        22.3930 
 143   0.0000       0.826115        22.4797 
 144   0.0000       0.834398        22.7051 
 145   0.0000       0.850817        23.1519 
 146   0.0000       0.857238        23.3266 
 147   0.0000       0.869105        23.6496 
 148   0.0000       0.871553        23.7162 
 149   0.0000       0.876973        23.8636 
 150   0.0000       0.888320        24.1724 
 151   0.0000       0.893984        24.3265 
 152   0.0000       0.910263        24.7695 
 153   0.0000       0.912156        24.8210 
 154   0.0000       0.916969        24.9520 
 155   0.0000       0.927373        25.2351 
 156   0.0000       0.933138        25.3920 
 157   0.0000       0.940757        25.5993 
 158   0.0000       0.941614        25.6226 
 159   0.0000       0.944297        25.6956 
 160   0.0000       0.955403        25.9978 
 161   0.0000       0.972264        26.4567 
 162   0.0000       0.977797        26.6072 
 163   0.0000       0.984583        26.7919 
 164   0.0000       0.989641        26.9295 
 165   0.0000       1.004258        27.3272 
 166   0.0000       1.023632        27.8544 
 167   0.0000       1.030558        28.0429 
 168   0.0000       1.041490        28.3404 
 169   0.0000       1.052036        28.6274 
 170   0.0000       1.066476        29.0203 
 171   0.0000       1.072698        29.1896 
 172   0.0000       1.101041        29.9608 
 173   0.0000       1.129252        30.7285 
 174   0.0000       1.149421        31.2773 
 175   0.0000       1.151261        31.3274 
 176   0.0000       1.166821        31.7508 
 177   0.0000       1.170730        31.8572 
 178   0.0000       1.186086        32.2750 
 179   0.0000       1.190204        32.3871 
 180   0.0000       1.209555        32.9137 
 181   0.0000       1.220459        33.2104 
 182   0.0000       1.235976        33.6326 
 183   0.0000       1.244031        33.8518 
 184   0.0000       1.261705        34.3327 
 185   0.0000       1.281237        34.8642 
 186   0.0000       1.296588        35.2820 
 187   0.0000       1.326873        36.1060 
 188   0.0000       1.343573        36.5605 
 189   0.0000       1.359528        36.9946 
 190   0.0000       1.381752        37.5994 
 191   0.0000       1.385188        37.6929 
 192   0.0000       1.399969        38.0951 
 193   0.0000       1.405433        38.2438 
 194   0.0000       1.409655        38.3587 
 195   0.0000       1.415189        38.5093 
 196   0.0000       1.439479        39.1702 
 197   0.0000       1.466044        39.8931 
 198   0.0000       1.481104        40.3029 
 199   0.0000       1.494673        40.6721 
 200   0.0000       1.505958        40.9792 
 201   0.0000       1.520584        41.3772 
 202   0.0000       1.529110        41.6092 
 203   0.0000       1.545026        42.0423 
 204   0.0000       1.547100        42.0987 
 205   0.0000       1.562819        42.5265 
 206   0.0000       1.577602        42.9287 
 207   0.0000       1.589428        43.2505 
 208   0.0000       1.596558        43.4446 
 209   0.0000       1.602870        43.6163 
 210   0.0000       1.612488        43.8780 
 211   0.0000       1.624713        44.2107 
 212   0.0000       1.632779        44.4302 
 213   0.0000       1.636565        44.5332 
 214   0.0000       1.661611        45.2147 
 215   0.0000       1.673004        45.5248 
 216   0.0000       1.676503        45.6200 
 217   0.0000       1.686611        45.8950 
 218   0.0000       1.699075        46.2342 
 219   0.0000       1.701110        46.2896 
 220   0.0000       1.707346        46.4592 
 221   0.0000       1.715218        46.6735 
 222   0.0000       1.727073        46.9961 
 223   0.0000       1.738409        47.3045 
 224   0.0000       1.751921        47.6722 
 225   0.0000       1.763515        47.9877 
 226   0.0000       1.768194        48.1150 
 227   0.0000       1.772592        48.2347 
 228   0.0000       1.789582        48.6970 
 229   0.0000       1.799420        48.9647 
 230   0.0000       1.823279        49.6139 
 231   0.0000       1.831707        49.8433 
 232   0.0000       1.842033        50.1243 
 233   0.0000       1.858075        50.5608 
 234   0.0000       1.868035        50.8318 
 235   0.0000       1.882817        51.2341 
 236   0.0000       1.906729        51.8847 
 237   0.0000       1.922886        52.3244 
 238   0.0000       1.939362        52.7727 
 239   0.0000       1.984666        54.0055 
 240   0.0000       1.993873        54.2560 
 241   0.0000       2.008694        54.6594 
 242   0.0000       2.026713        55.1497 
 243   0.0000       2.033901        55.3453 
 244   0.0000       2.045081        55.6495 
 245   0.0000       2.059533        56.0427 
 246   0.0000       2.079032        56.5733 
 247   0.0000       2.105034        57.2809 
 248   0.0000       2.126158        57.8557 
 249   0.0000       2.157506        58.7087 
 250   0.0000       2.161433        58.8156 
 251   0.0000       2.179609        59.3102 
 252   0.0000       2.185028        59.4576 
 253   0.0000       2.206987        60.0552 
 254   0.0000       2.242205        61.0135 
 255   0.0000       2.256059        61.3905 
 256   0.0000       2.275582        61.9217 
 257   0.0000       2.278637        62.0049 
 258   0.0000       2.289590        62.3029 
 259   0.0000       2.314869        62.9908 
 260   0.0000       2.329838        63.3981 
 261   0.0000       2.344715        63.8029 
 262   0.0000       2.364136        64.3314 
 263   0.0000       2.372574        64.5610 
 264   0.0000       2.393197        65.1222 
 265   0.0000       2.398070        65.2548 
 266   0.0000       2.400219        65.3133 
 267   0.0000       2.415717        65.7350 
 268   0.0000       2.434908        66.2572 
 269   0.0000       2.445653        66.5496 
 270   0.0000       2.452024        66.7230 
 271   0.0000       2.466999        67.1305 
 272   0.0000       2.474810        67.3430 
 273   0.0000       2.494897        67.8896 
 274   0.0000       2.506775        68.2128 
 275   0.0000       2.513639        68.3996 
 276   0.0000       2.553833        69.4933 
 277   0.0000       2.557188        69.5846 
 278   0.0000       2.573412        70.0261 
 279   0.0000       2.611553        71.0640 
 280   0.0000       2.619543        71.2814 
 281   0.0000       2.623239        71.3820 
 282   0.0000       2.647801        72.0503 
 283   0.0000       2.683309        73.0166 
 284   0.0000       2.699837        73.4663 
 285   0.0000       2.719975        74.0143 
 286   0.0000       2.752849        74.9088 
 287   0.0000       2.762382        75.1682 
 288   0.0000       2.775740        75.5317 
 289   0.0000       2.784963        75.7827 
 290   0.0000       2.827376        76.9368 
 291   0.0000       2.927945        79.6734 
 292   0.0000       2.988200        81.3130 
 293   0.0000       3.031762        82.4984 
 294   0.0000       3.091084        84.1127 
 295   0.0000       3.114673        84.7546 
 296   0.0000       3.356195        91.3267 
 297   0.0000       3.416835        92.9768 
 298   0.0000       3.440847        93.6302 
 299   0.0000       3.441454        93.6467 
 300   0.0000       4.907166       133.5308 
 301   0.0000       4.974250       135.3562 
 302   0.0000       4.982605       135.5836 
 303   0.0000       4.991654       135.8298 
 304   0.0000       5.014802       136.4597 
 305   0.0000       5.020246       136.6078 
 306   0.0000       5.027972       136.8181 
 307   0.0000       5.062117       137.7472 
 308   0.0000       5.065530       137.8401 
 309   0.0000       5.101650       138.8230 
 310   0.0000       5.107576       138.9842 
 311   0.0000       5.149033       140.1123 
 312   0.0000       5.176062       140.8478 
 313   0.0000       5.228061       142.2628 
 314   0.0000       5.246536       142.7655 
 315   0.0000       5.266011       143.2954 
 316   0.0000       5.296532       144.1260 
 317   0.0000       5.310740       144.5126 
 318   0.0000       5.340480       145.3218 
 319   0.0000       5.358672       145.8169 
 320   0.0000       5.381486       146.4377 
 321   0.0000       5.434409       147.8778 
 322   0.0000       5.594689       152.2392 
 323   0.0000       5.628262       153.1528 
 324   0.0000       5.707892       155.3196 
 325   0.0000       5.737640       156.1291 
 326   0.0000       5.866394       159.6327 
 327   0.0000       7.232130       196.7963 
 328   0.0000       7.295012       198.5074 
 329   0.0000       7.330033       199.4603 
 330   0.0000       9.085372       247.2255 
 331   0.0000       9.107306       247.8224 
 332   0.0000      29.585604       805.0652 
 333   0.0000      29.636850       806.4597 
 334   0.0000      29.742423       809.3325 
 335   0.0000      29.854373       812.3788 
 336   0.0000      29.920238       814.1711 
 337   0.0000      30.047153       817.6246 
 338   0.0000      30.078801       818.4858 
 339   0.0000      30.147907       820.3662 
 340   0.0000      30.277663       823.8971 
 341   0.0000      36.519573       993.7481 
 342   0.0000      36.599551       995.9244 
 343   0.0000      36.612505       996.2769 
 344   0.0000      36.623059       996.5641 
 345   0.0000      36.634580       996.8776 
 346   0.0000      36.641564       997.0677 
 347   0.0000      36.670622       997.8584 
 348   0.0000      36.688445       998.3433 
 349   0.0000      36.709183       998.9077 
 350   0.0000      36.722717       999.2759 
 351   0.0000      36.738350       999.7013 
 352   0.0000      36.784258      1000.9506 
 353   0.0000      36.811147      1001.6822 
 354   0.0000      36.853388      1002.8317 
 355   0.0000      36.886057      1003.7206 
 356   0.0000      36.890200      1003.8334 
 357   0.0000      36.926539      1004.8222 
 358   0.0000      36.947014      1005.3794 
 359   0.0000      41.177086      1120.4855 
 360   0.0000      41.234276      1122.0417 
 361   0.0000      41.267248      1122.9389 
 362   0.0000      53.621265      1459.1088 
 363   0.0000      53.641777      1459.6670 

                 SPIN DOWN ORBITALS
  NO   OCC          E(Eh)            E(eV) 
   0   1.0000     -19.121376      -520.3191 
   1   1.0000     -19.097950      -519.6816 
   2   1.0000     -14.371098      -391.0575 
   3   1.0000     -14.347432      -390.4135 
   4   1.0000     -14.330002      -389.9392 
   5   1.0000     -10.302312      -280.3402 
   6   1.0000     -10.285972      -279.8955 
   7   1.0000     -10.237281      -278.5706 
   8   1.0000     -10.224411      -278.2204 
   9   1.0000     -10.188168      -277.2342 
  10   1.0000     -10.185924      -277.1731 
  11   1.0000     -10.183923      -277.1186 
  12   1.0000     -10.182382      -277.0767 
  13   1.0000     -10.178468      -276.9702 
  14   1.0000      -1.044030       -28.4095 
  15   1.0000      -1.019759       -27.7491 
  16   1.0000      -0.930491       -25.3199 
  17   1.0000      -0.914497       -24.8847 
  18   1.0000      -0.885180       -24.0870 
  19   1.0000      -0.796784       -21.6816 
  20   1.0000      -0.756687       -20.5905 
  21   1.0000      -0.725771       -19.7492 
  22   1.0000      -0.706637       -19.2286 
  23   1.0000      -0.659953       -17.9582 
  24   1.0000      -0.607621       -16.5342 
  25   1.0000      -0.596495       -16.2314 
  26   1.0000      -0.570037       -15.5115 
  27   1.0000      -0.560675       -15.2568 
  28   1.0000      -0.535865       -14.5816 
  29   1.0000      -0.500687       -13.6244 
  30   1.0000      -0.478697       -13.0260 
  31   1.0000      -0.470859       -12.8127 
  32   1.0000      -0.465692       -12.6721 
  33   1.0000      -0.459716       -12.5095 
  34   1.0000      -0.448602       -12.2071 
  35   1.0000      -0.445001       -12.1091 
  36   1.0000      -0.436404       -11.8752 
  37   1.0000      -0.425656       -11.5827 
  38   1.0000      -0.407371       -11.0851 
  39   1.0000      -0.400346       -10.8940 
  40   1.0000      -0.398544       -10.8449 
  41   1.0000      -0.389130       -10.5888 
  42   1.0000      -0.379518       -10.3272 
  43   1.0000      -0.373331       -10.1589 
  44   1.0000      -0.361710        -9.8426 
  45   1.0000      -0.354073        -9.6348 
  46   1.0000      -0.335066        -9.1176 
  47   1.0000      -0.331501        -9.0206 
  48   1.0000      -0.323652        -8.8070 
  49   1.0000      -0.284354        -7.7377 
  50   1.0000      -0.269024        -7.3205 
  51   1.0000      -0.268500        -7.3063 
  52   1.0000      -0.247161        -6.7256 
  53   1.0000      -0.244015        -6.6400 
  54   0.0000      -0.012428        -0.3382 
  55   0.0000       0.007056         0.1920 
  56   0.0000       0.012846         0.3496 
  57   0.0000       0.026865         0.7310 
  58   0.0000       0.029621         0.8060 
  59   0.0000       0.035660         0.9704 
  60   0.0000       0.038244         1.0407 
  61   0.0000       0.049716         1.3528 
  62   0.0000       0.054529         1.4838 
  63   0.0000       0.065159         1.7731 
  64   0.0000       0.081060         2.2058 
  65   0.0000       0.094247         2.5646 
  66   0.0000       0.096826         2.6348 
  67   0.0000       0.116555         3.1716 
  68   0.0000       0.120614         3.2821 
  69   0.0000       0.150593         4.0978 
  70   0.0000       0.155850         4.2409 
  71   0.0000       0.162823         4.4306 
  72   0.0000       0.167897         4.5687 
  73   0.0000       0.171027         4.6539 
  74   0.0000       0.177525         4.8307 
  75   0.0000       0.186488         5.0746 
  76   0.0000       0.194286         5.2868 
  77   0.0000       0.197774         5.3817 
  78   0.0000       0.202916         5.5216 
  79   0.0000       0.204104         5.5539 
  80   0.0000       0.210514         5.7284 
  81   0.0000       0.219796         5.9810 
  82   0.0000       0.222081         6.0431 
  83   0.0000       0.236761         6.4426 
  84   0.0000       0.240209         6.5364 
  85   0.0000       0.249613         6.7923 
  86   0.0000       0.250715         6.8223 
  87   0.0000       0.253261         6.8916 
  88   0.0000       0.260115         7.0781 
  89   0.0000       0.267363         7.2753 
  90   0.0000       0.272452         7.4138 
  91   0.0000       0.275645         7.5007 
  92   0.0000       0.283807         7.7228 
  93   0.0000       0.288773         7.8579 
  94   0.0000       0.292557         7.9609 
  95   0.0000       0.299172         8.1409 
  96   0.0000       0.301325         8.1995 
  97   0.0000       0.314010         8.5447 
  98   0.0000       0.317797         8.6477 
  99   0.0000       0.324638         8.8339 
 100   0.0000       0.331313         9.0155 
 101   0.0000       0.334785         9.1100 
 102   0.0000       0.353578         9.6213 
 103   0.0000       0.356300         9.6954 
 104   0.0000       0.368572        10.0294 
 105   0.0000       0.373255        10.1568 
 106   0.0000       0.382864        10.4183 
 107   0.0000       0.392914        10.6917 
 108   0.0000       0.405757        11.0412 
 109   0.0000       0.415709        11.3120 
 110   0.0000       0.425385        11.5753 
 111   0.0000       0.434237        11.8162 
 112   0.0000       0.437840        11.9142 
 113   0.0000       0.444849        12.1050 
 114   0.0000       0.453295        12.3348 
 115   0.0000       0.462252        12.5785 
 116   0.0000       0.474374        12.9084 
 117   0.0000       0.485945        13.2232 
 118   0.0000       0.492598        13.4043 
 119   0.0000       0.506488        13.7822 
 120   0.0000       0.521693        14.1960 
 121   0.0000       0.526522        14.3274 
 122   0.0000       0.536590        14.6014 
 123   0.0000       0.556815        15.1517 
 124   0.0000       0.565060        15.3761 
 125   0.0000       0.567331        15.4379 
 126   0.0000       0.591297        16.0900 
 127   0.0000       0.607976        16.5439 
 128   0.0000       0.615720        16.7546 
 129   0.0000       0.621955        16.9243 
 130   0.0000       0.651313        17.7231 
 131   0.0000       0.657141        17.8817 
 132   0.0000       0.675028        18.3684 
 133   0.0000       0.686389        18.6776 
 134   0.0000       0.724050        19.7024 
 135   0.0000       0.724337        19.7102 
 136   0.0000       0.746485        20.3129 
 137   0.0000       0.770076        20.9548 
 138   0.0000       0.785024        21.3616 
 139   0.0000       0.803213        21.8565 
 140   0.0000       0.807877        21.9835 
 141   0.0000       0.816373        22.2146 
 142   0.0000       0.824804        22.4441 
 143   0.0000       0.826454        22.4890 
 144   0.0000       0.836481        22.7618 
 145   0.0000       0.851407        23.1680 
 146   0.0000       0.858445        23.3595 
 147   0.0000       0.869717        23.6662 
 148   0.0000       0.876355        23.8468 
 149   0.0000       0.877170        23.8690 
 150   0.0000       0.889591        24.2070 
 151   0.0000       0.895847        24.3772 
 152   0.0000       0.911761        24.8103 
 153   0.0000       0.913813        24.8661 
 154   0.0000       0.919767        25.0281 
 155   0.0000       0.928436        25.2640 
 156   0.0000       0.936394        25.4806 
 157   0.0000       0.942065        25.6349 
 158   0.0000       0.943647        25.6779 
 159   0.0000       0.945852        25.7379 
 160   0.0000       0.956834        26.0368 
 161   0.0000       0.973825        26.4991 
 162   0.0000       0.981646        26.7119 
 163   0.0000       0.986149        26.8345 
 164   0.0000       0.990556        26.9544 
 165   0.0000       1.005370        27.3575 
 166   0.0000       1.024025        27.8651 
 167   0.0000       1.030825        28.0502 
 168   0.0000       1.041644        28.3446 
 169   0.0000       1.052403        28.6373 
 170   0.0000       1.068435        29.0736 
 171   0.0000       1.088066        29.6078 
 172   0.0000       1.101869        29.9834 
 173   0.0000       1.135375        30.8951 
 174   0.0000       1.150311        31.3016 
 175   0.0000       1.151812        31.3424 
 176   0.0000       1.167787        31.7771 
 177   0.0000       1.174805        31.9681 
 178   0.0000       1.188133        32.3308 
 179   0.0000       1.191855        32.4320 
 180   0.0000       1.210620        32.9427 
 181   0.0000       1.221433        33.2369 
 182   0.0000       1.239149        33.7190 
 183   0.0000       1.246621        33.9223 
 184   0.0000       1.262202        34.3463 
 185   0.0000       1.283440        34.9242 
 186   0.0000       1.297528        35.3075 
 187   0.0000       1.327874        36.1333 
 188   0.0000       1.355543        36.8862 
 189   0.0000       1.362900        37.0864 
 190   0.0000       1.384092        37.6631 
 191   0.0000       1.385674        37.7061 
 192   0.0000       1.400483        38.1091 
 193   0.0000       1.408264        38.3208 
 194   0.0000       1.415071        38.5060 
 195   0.0000       1.417544        38.5733 
 196   0.0000       1.439709        39.1765 
 197   0.0000       1.466356        39.9016 
 198   0.0000       1.481296        40.3081 
 199   0.0000       1.495451        40.6933 
 200   0.0000       1.506288        40.9882 
 201   0.0000       1.522425        41.4273 
 202   0.0000       1.532873        41.7116 
 203   0.0000       1.547390        42.1066 
 204   0.0000       1.549438        42.1624 
 205   0.0000       1.564506        42.5724 
 206   0.0000       1.578238        42.9460 
 207   0.0000       1.593155        43.3520 
 208   0.0000       1.598171        43.4884 
 209   0.0000       1.604781        43.6683 
 210   0.0000       1.615060        43.9480 
 211   0.0000       1.633455        44.4486 
 212   0.0000       1.635199        44.4960 
 213   0.0000       1.637930        44.5704 
 214   0.0000       1.665297        45.3150 
 215   0.0000       1.674117        45.5550 
 216   0.0000       1.677539        45.6482 
 217   0.0000       1.687609        45.9222 
 218   0.0000       1.700878        46.2832 
 219   0.0000       1.704310        46.3766 
 220   0.0000       1.710784        46.5528 
 221   0.0000       1.720577        46.8193 
 222   0.0000       1.727844        47.0170 
 223   0.0000       1.741321        47.3837 
 224   0.0000       1.752042        47.6755 
 225   0.0000       1.765917        48.0530 
 226   0.0000       1.771239        48.1979 
 227   0.0000       1.778136        48.3855 
 228   0.0000       1.791528        48.7500 
 229   0.0000       1.806406        49.1548 
 230   0.0000       1.824336        49.6427 
 231   0.0000       1.832205        49.8568 
 232   0.0000       1.843132        50.1542 
 233   0.0000       1.859486        50.5992 
 234   0.0000       1.868888        50.8550 
 235   0.0000       1.884708        51.2855 
 236   0.0000       1.908139        51.9231 
 237   0.0000       1.924114        52.3578 
 238   0.0000       1.943845        52.8947 
 239   0.0000       1.985446        54.0267 
 240   0.0000       1.994508        54.2733 
 241   0.0000       2.010061        54.6965 
 242   0.0000       2.028936        55.2102 
 243   0.0000       2.038180        55.4617 
 244   0.0000       2.047118        55.7049 
 245   0.0000       2.060929        56.0807 
 246   0.0000       2.081791        56.6484 
 247   0.0000       2.105663        57.2980 
 248   0.0000       2.128885        57.9299 
 249   0.0000       2.157975        58.7215 
 250   0.0000       2.168920        59.0193 
 251   0.0000       2.181784        59.3693 
 252   0.0000       2.187393        59.5220 
 253   0.0000       2.207531        60.0700 
 254   0.0000       2.242713        61.0273 
 255   0.0000       2.259433        61.4823 
 256   0.0000       2.275919        61.9309 
 257   0.0000       2.279947        62.0405 
 258   0.0000       2.291094        62.3439 
 259   0.0000       2.316510        63.0354 
 260   0.0000       2.333390        63.4948 
 261   0.0000       2.344941        63.8091 
 262   0.0000       2.365476        64.3679 
 263   0.0000       2.372700        64.5645 
 264   0.0000       2.393595        65.1330 
 265   0.0000       2.398438        65.2648 
 266   0.0000       2.400346        65.3167 
 267   0.0000       2.420179        65.8564 
 268   0.0000       2.435964        66.2860 
 269   0.0000       2.448361        66.6233 
 270   0.0000       2.458085        66.8879 
 271   0.0000       2.470971        67.2385 
 272   0.0000       2.476525        67.3897 
 273   0.0000       2.495267        67.8997 
 274   0.0000       2.507678        68.2374 
 275   0.0000       2.515771        68.4576 
 276   0.0000       2.555708        69.5443 
 277   0.0000       2.560924        69.6863 
 278   0.0000       2.576381        70.1069 
 279   0.0000       2.614307        71.1389 
 280   0.0000       2.620655        71.3117 
 281   0.0000       2.624681        71.4212 
 282   0.0000       2.648604        72.0722 
 283   0.0000       2.688238        73.1507 
 284   0.0000       2.699882        73.4675 
 285   0.0000       2.720100        74.0177 
 286   0.0000       2.753356        74.9226 
 287   0.0000       2.762771        75.1788 
 288   0.0000       2.775766        75.5324 
 289   0.0000       2.790897        75.9442 
 290   0.0000       2.827400        76.9375 
 291   0.0000       2.933360        79.8208 
 292   0.0000       2.988207        81.3132 
 293   0.0000       3.031783        82.4990 
 294   0.0000       3.091088        84.1128 
 295   0.0000       3.114675        84.7546 
 296   0.0000       3.356196        91.3267 
 297   0.0000       3.416836        92.9768 
 298   0.0000       3.440849        93.6303 
 299   0.0000       3.441454        93.6467 
 300   0.0000       4.909337       133.5899 
 301   0.0000       4.974258       135.3564 
 302   0.0000       4.983965       135.6206 
 303   0.0000       4.991661       135.8300 
 304   0.0000       5.019596       136.5902 
 305   0.0000       5.020735       136.6211 
 306   0.0000       5.029568       136.8615 
 307   0.0000       5.062896       137.7684 
 308   0.0000       5.071922       138.0140 
 309   0.0000       5.103296       138.8678 
 310   0.0000       5.107976       138.9951 
 311   0.0000       5.149839       140.1342 
 312   0.0000       5.177137       140.8771 
 313   0.0000       5.228416       142.2724 
 314   0.0000       5.246661       142.7689 
 315   0.0000       5.271820       143.4535 
 316   0.0000       5.297442       144.1507 
 317   0.0000       5.311624       144.5366 
 318   0.0000       5.342232       145.3695 
 319   0.0000       5.358924       145.8237 
 320   0.0000       5.382659       146.4696 
 321   0.0000       5.442396       148.0951 
 322   0.0000       5.595540       152.2624 
 323   0.0000       5.631380       153.2376 
 324   0.0000       5.708987       155.3494 
 325   0.0000       5.739061       156.1678 
 326   0.0000       5.867466       159.6619 
 327   0.0000       7.241786       197.0590 
 328   0.0000       7.295168       198.5116 
 329   0.0000       7.330054       199.4609 
 330   0.0000       9.085372       247.2255 
 331   0.0000       9.107306       247.8224 
 332   0.0000      29.588196       805.1357 
 333   0.0000      29.637288       806.4716 
 334   0.0000      29.749659       809.5294 
 335   0.0000      29.858256       812.4845 
 336   0.0000      29.921443       814.2039 
 337   0.0000      30.048028       817.6484 
 338   0.0000      30.079130       818.4947 
 339   0.0000      30.148458       820.3813 
 340   0.0000      30.278031       823.9071 
 341   0.0000      36.522253       993.8210 
 342   0.0000      36.599557       995.9246 
 343   0.0000      36.612507       996.2770 
 344   0.0000      36.623063       996.5642 
 345   0.0000      36.640711       997.0444 
 346   0.0000      36.642813       997.1016 
 347   0.0000      36.671996       997.8957 
 348   0.0000      36.691133       998.4165 
 349   0.0000      36.709741       998.9228 
 350   0.0000      36.722839       999.2792 
 351   0.0000      36.738387       999.7023 
 352   0.0000      36.783083      1000.9186 
 353   0.0000      36.811076      1001.6803 
 354   0.0000      36.855665      1002.8936 
 355   0.0000      36.888516      1003.7876 
 356   0.0000      36.893763      1003.9303 
 357   0.0000      36.926548      1004.8224 
 358   0.0000      36.948141      1005.4100 
 359   0.0000      41.182015      1120.6196 
 360   0.0000      41.234324      1122.0430 
 361   0.0000      41.267269      1122.9395 
 362   0.0000      53.621265      1459.1088 
 363   0.0000      53.641776      1459.6669 

                    ********************************
                    * MULLIKEN POPULATION ANALYSIS *
                    ********************************

--------------------------------------------
MULLIKEN ATOMIC CHARGES AND SPIN POPULATIONS
--------------------------------------------
   0 N :   -0.115601    0.000006
   1 C :   -0.127694    0.000871
   2 C :    0.088918   -0.000344
   3 O :   -0.334158    0.000032
   4 C :   -0.281347   -0.001428
   5 C :   -0.261098    0.011261
   6 C :   -0.242237   -0.027174
   7 C :   -0.256441    0.818623
   8 N :   -0.399743    0.162846
   9 H :    0.146267   -0.024626
  10 H :    0.227734   -0.001265
  11 H :    0.225624    0.001936
  12 H :    0.252808    0.000000
  13 C :    0.170348   -0.000220
  14 N :   -0.092134   -0.000011
  15 H :    0.230449    0.000006
  16 O :   -0.329049    0.000013
  17 C :   -0.554375    0.000073
  18 H :    0.184976    0.000005
  19 H :    0.185616   -0.000002
  20 H :    0.149131    0.000000
  21 C :   -0.459248    0.000010
  22 H :    0.163360   -0.000000
  23 H :    0.161809    0.000000
  24 H :    0.200627    0.000002
  25 H :    0.164386    0.000006
  26 H :    0.126409    0.000185
  27 H :    0.178510    0.000180
  28 H :    0.149058   -0.000408
  29 H :    0.167257   -0.000515
  30 H :    0.138327    0.048182
  31 H :    0.141513    0.011756
Sum of atomic charges         :    0.0000000
Sum of atomic spin populations:    1.0000000

-----------------------------------------------------
MULLIKEN REDUCED ORBITAL CHARGES AND SPIN POPULATIONS
-----------------------------------------------------
CHARGE
  0 N s       :     3.366189  s :     3.366189
      pz      :     1.117794  p :     3.715646
      px      :     1.519566
      py      :     1.078287
      dz2     :     0.010233  d :     0.033766
      dxz     :     0.003102
      dyz     :     0.009560
      dx2y2   :     0.005331
      dxy     :     0.005539
  1 C s       :     3.176563  s :     3.176563
      pz      :     1.000656  p :     2.846883
      px      :     0.981396
      py      :     0.864831
      dz2     :     0.012308  d :     0.104248
      dxz     :     0.027452
      dyz     :     0.023621
      dx2y2   :     0.024825
      dxy     :     0.016041
  2 C s       :     3.096527  s :     3.096527
      pz      :     0.868377  p :     2.621567
      px      :     0.805449
      py      :     0.947741
      dz2     :     0.036674  d :     0.192988
      dxz     :     0.042770
      dyz     :     0.082721
      dx2y2   :     0.012673
      dxy     :     0.018150
  3 O s       :     3.897723  s :     3.897723
      pz      :     1.211576  p :     4.418156
      px      :     1.442275
      py      :     1.764305
      dz2     :     0.009046  d :     0.018279
      dxz     :     0.005226
[...]
     CP-SCF ITERATION   1:   9.3426e-04 (   0.5 sec   3/  3 done)
                    *** THE CP-SCF HAS CONVERGED ***

Forming final perturbed densities           ... done
Transforming perturbed density to AO basis  ... done

 Raw HFC matrix (all values in MHz): 
 -----------------------------------
                 1.4830               3.7551               0.0459
                 3.7549              -1.4213              -0.1420
                 0.0462              -0.1424              -3.9674

 A(FC)          -1.3029              -1.3029              -1.3029
 A(SD)          -2.5349               5.3575              -2.8225
 A(ORB+DIA)      0.0005               0.0025               0.0000    A(PC) =   0.0010
 A(ORB)          0.0002               0.0021              -0.0004    A(PC) =   0.0006
 A(DIA)          0.0002               0.0005               0.0005    A(PC) =   0.0004
             ----------           ----------           ----------
 A(Tot)         -3.8374               4.0571              -4.1254    A(iso)=   -1.3019
 Orientation: 
  X           0.3834167           -0.8247624            0.4156425
  Y          -0.5523071           -0.5654546           -0.6125503
  Z           0.7402354            0.0052997           -0.6723269

Notes:  (1) The A matrix conforms to the "SAI" spin Hamiltonian convention.
        (2) Tensor is right-handed.

 -----------------------------------------------------------
 Nucleus  29H : A:ISTP=    1 I=  0.5 P=533.5514 MHz/au**3
                Q:ISTP=    2 I=  1.0 Q=  0.0029 barn     
 -----------------------------------------------------------
 Solving for nuclear perturbation:
Forming RHS of the CP-SCF equations         ... 
Calc. nucleus orbit integrals (SHARK)       ... done

------------------------------------------------------------------------------
                           ORCA CP-SCF CALCULATION
------------------------------------------------------------------------------

Input orbitals are from        ... epr_info.gbw
Input Perturbation             ... epr_info.pin.tmp
Wavefunction output            ... epr_info.pout.tmp
Perturbation mode              ... Imaginary perturbation
Solver                         ... POPLE
Max. number of iterations      ... 64
Convergence tolerance          ... 1.000e-03
Integral handling              ... Direct
DFT GridXC                     ... 1
COSX GridX                     ... 1
COSX IntAccX                   ... 3.067
COSX Algorithm                 ... Auto
Number of perturbations        ... 3
Number of operators            ... 2
Orbital ranges used for CP-SCF:
 Operator 0:  Orbitals   0... 54  to  55...363
 Operator 1:  Orbitals   0... 53  to  54...363
Variables per perturbation     ... 33735
DFT calculation                         ... on
XC functional terms                     ... off
Hybrid DFT                              ... on
   Exchange mixing (SCF)                ...  0.200
   Exchange mixing (CP-SCF)             ...  0.200
   GGA exch. scaling(SCF)               ...  0.720
   GGA exch. scaling (CP-SCF)           ...  0.720
   GGA corr. scaling (SCF)              ...  0.810
   GGA corr. scaling (CP-SCF)           ...  0.810

CP-SCF GRID
-----------

General Integration Accuracy     IntAcc      ... 3.467
Radial Grid Type                 RadialGrid  ... OptM3 with GC (2021)
Angular Grid (max. ang.)         AngularGrid ... 1 (Lebedev-50)
Angular grid pruning method      GridPruning ... 4 (adaptive)
Weight generation scheme         WeightScheme... Becke
Basis function cutoff            BFCut       ... 1.0000e-10
Integration weight cutoff        WCut        ... 1.0000e-14
Angular grids for H and He will be reduced by one unit
Partially contracted basis set               ... off
Rotationally invariant grid construction     ... off

Total number of grid points                  ...    19981
Total number of batches                      ...      327
Average number of points per batch           ...       61
Average number of grid points per atom       ...      624

CP-SCF GRIDX
------------

General Integration Accuracy     IntAcc      ... 3.067
Radial Grid Type                 RadialGrid  ... OptM3 with GC (2021)
Angular Grid (max. ang.)         AngularGrid ... 1 (Lebedev-50)
Angular grid pruning method      GridPruning ... 4 (adaptive)
Weight generation scheme         WeightScheme... Becke
Basis function cutoff            BFCut       ... 1.0000e-10
Integration weight cutoff        WCut        ... 1.0000e-14
Angular grids for H and He will be reduced by one unit
Partially contracted basis set               ... on
Rotationally invariant grid construction     ... off

Total number of grid points                  ...     9433
Total number of batches                      ...      169
Average number of points per batch           ...       55
Average number of grid points per atom       ...      295

Memory available               ... 923.6 MB
Memory needed per perturbation ...   8.0 MB
Perturbations treated per batch... 3
Number of batches              ... 1
     CP-SCF ITERATION   0:   3.9213e-02 (   0.5 sec   0/  3 done)
     CP-SCF ITERATION   1:   9.1568e-04 (   0.5 sec   3/  3 done)
                    *** THE CP-SCF HAS CONVERGED ***

Forming final perturbed densities           ... done
Transforming perturbed density to AO basis  ... done

 Raw HFC matrix (all values in MHz): 
 -----------------------------------
                 5.2059              -0.1280               0.2423
                -0.1264              -4.9770              -0.6026
                 0.2411              -0.6028              -4.0953

 A(FC)          -1.2892              -1.2892              -1.2892
 A(SD)          -2.5085               6.5020              -3.9935
 A(ORB+DIA)     -0.0001               0.0014              -0.0002    A(PC) =   0.0004
 A(ORB)         -0.0002               0.0010              -0.0004    A(PC) =   0.0001
 A(DIA)          0.0001               0.0004               0.0002    A(PC) =   0.0002
             ----------           ----------           ----------
 A(Tot)         -3.7977               5.2142              -5.2829    A(iso)=   -1.2888
 Orientation: 
  X          -0.0304210           -0.9995371           -0.0003545
  Y          -0.4522344            0.0140801           -0.8917880
  Z           0.8913801           -0.0269688           -0.4524534

Notes:  (1) The A matrix conforms to the "SAI" spin Hamiltonian convention.
        (2) Tensor is right-handed.

 -----------------------------------------------------------
 Nucleus  30H : A:ISTP=    1 I=  0.5 P=533.5514 MHz/au**3
                Q:ISTP=    2 I=  1.0 Q=  0.0029 barn     
 -----------------------------------------------------------
 Solving for nuclear perturbation:
Forming RHS of the CP-SCF equations         ... 
Calc. nucleus orbit integrals (SHARK)       ... done

------------------------------------------------------------------------------
                           ORCA CP-SCF CALCULATION
------------------------------------------------------------------------------

Input orbitals are from        ... epr_info.gbw
Input Perturbation             ... epr_info.pin.tmp
Wavefunction output            ... epr_info.pout.tmp
Perturbation mode              ... Imaginary perturbation
Solver                         ... POPLE
Max. number of iterations      ... 64
Convergence tolerance          ... 1.000e-03
Integral handling              ... Direct
DFT GridXC                     ... 1
COSX GridX                     ... 1
COSX IntAccX                   ... 3.067
COSX Algorithm                 ... Auto
Number of perturbations        ... 3
Number of operators            ... 2
Orbital ranges used for CP-SCF:
 Operator 0:  Orbitals   0... 54  to  55...363
 Operator 1:  Orbitals   0... 53  to  54...363
Variables per perturbation     ... 33735
DFT calculation                         ... on
XC functional terms                     ... off
Hybrid DFT                              ... on
   Exchange mixing (SCF)                ...  0.200
   Exchange mixing (CP-SCF)             ...  0.200
   GGA exch. scaling(SCF)               ...  0.720
   GGA exch. scaling (CP-SCF)           ...  0.720
   GGA corr. scaling (SCF)              ...  0.810
   GGA corr. scaling (CP-SCF)           ...  0.810

CP-SCF GRID
-----------

General Integration Accuracy     IntAcc      ... 3.467
Radial Grid Type                 RadialGrid  ... OptM3 with GC (2021)
Angular Grid (max. ang.)         AngularGrid ... 1 (Lebedev-50)
Angular grid pruning method      GridPruning ... 4 (adaptive)
Weight generation scheme         WeightScheme... Becke
Basis function cutoff            BFCut       ... 1.0000e-10
Integration weight cutoff        WCut        ... 1.0000e-14
Angular grids for H and He will be reduced by one unit
Partially contracted basis set               ... off
Rotationally invariant grid construction     ... off

Total number of grid points                  ...    19981
Total number of batches                      ...      327
Average number of points per batch           ...       61
Average number of grid points per atom       ...      624

CP-SCF GRIDX
------------

General Integration Accuracy     IntAcc      ... 3.067
Radial Grid Type                 RadialGrid  ... OptM3 with GC (2021)
Angular Grid (max. ang.)         AngularGrid ... 1 (Lebedev-50)
Angular grid pruning method      GridPruning ... 4 (adaptive)
Weight generation scheme         WeightScheme... Becke
Basis function cutoff            BFCut       ... 1.0000e-10
Integration weight cutoff        WCut        ... 1.0000e-14
Angular grids for H and He will be reduced by one unit
Partially contracted basis set               ... on
Rotationally invariant grid construction     ... off

Total number of grid points                  ...     9433
Total number of batches                      ...      169
Average number of points per batch           ...       55
Average number of grid points per atom       ...      295

Memory available               ... 923.2 MB
Memory needed per perturbation ...   8.0 MB
Perturbations treated per batch... 3
Number of batches              ... 1
     CP-SCF ITERATION   0:   4.0144e-02 (   0.5 sec   0/  3 done)
     CP-SCF ITERATION   1:   1.2009e-03 (   0.5 sec   1/  3 done)
     CP-SCF ITERATION   2:   1.1022e-04 (   0.4 sec   3/  3 done)
                    *** THE CP-SCF HAS CONVERGED ***

Forming final perturbed densities           ... done
Transforming perturbed density to AO basis  ... done

 Raw HFC matrix (all values in MHz): 
 -----------------------------------
                99.1872               1.1420              -4.2669
                 1.1403              96.4021              -2.9083
                -4.2649              -2.9115             103.3477

 A(FC)          99.6444              99.6444              99.6444
 A(SD)          -4.3827              -2.8841               7.2668
 A(ORB+DIA)      0.0004               0.0003               0.0031    A(PC) =   0.0012
 A(ORB)         -0.0003              -0.0005               0.0024    A(PC) =   0.0005
 A(DIA)          0.0006               0.0008               0.0007    A(PC) =   0.0007
             ----------           ----------           ----------
 A(Tot)         95.2621              96.7606             106.9143    A(iso)=   99.6456
 Orientation: 
  X          -0.2070152           -0.8436406            0.4953940
  Y          -0.8806793            0.3812251            0.2811963
  Z          -0.4260853           -0.3780714           -0.8218962

Notes:  (1) The A matrix conforms to the "SAI" spin Hamiltonian convention.
        (2) Tensor is right-handed.

 -----------------------------------------------------------
 Nucleus  31H : A:ISTP=    1 I=  0.5 P=533.5514 MHz/au**3
                Q:ISTP=    2 I=  1.0 Q=  0.0029 barn     
 -----------------------------------------------------------
 Solving for nuclear perturbation:
Forming RHS of the CP-SCF equations         ... 
Calc. nucleus orbit integrals (SHARK)       ... done

------------------------------------------------------------------------------
                           ORCA CP-SCF CALCULATION
------------------------------------------------------------------------------

Input orbitals are from        ... epr_info.gbw
Input Perturbation             ... epr_info.pin.tmp
Wavefunction output            ... epr_info.pout.tmp
Perturbation mode              ... Imaginary perturbation
Solver                         ... POPLE
Max. number of iterations      ... 64
Convergence tolerance          ... 1.000e-03
Integral handling              ... Direct
DFT GridXC                     ... 1
COSX GridX                     ... 1
COSX IntAccX                   ... 3.067
COSX Algorithm                 ... Auto
Number of perturbations        ... 3
Number of operators            ... 2
Orbital ranges used for CP-SCF:
 Operator 0:  Orbitals   0... 54  to  55...363
 Operator 1:  Orbitals   0... 53  to  54...363
Variables per perturbation     ... 33735
DFT calculation                         ... on
XC functional terms                     ... off
Hybrid DFT                              ... on
   Exchange mixing (SCF)                ...  0.200
   Exchange mixing (CP-SCF)             ...  0.200
   GGA exch. scaling(SCF)               ...  0.720
   GGA exch. scaling (CP-SCF)           ...  0.720
   GGA corr. scaling (SCF)              ...  0.810
   GGA corr. scaling (CP-SCF)           ...  0.810

CP-SCF GRID
-----------

General Integration Accuracy     IntAcc      ... 3.467
Radial Grid Type                 RadialGrid  ... OptM3 with GC (2021)
Angular Grid (max. ang.)         AngularGrid ... 1 (Lebedev-50)
Angular grid pruning method      GridPruning ... 4 (adaptive)
Weight generation scheme         WeightScheme... Becke
Basis function cutoff            BFCut       ... 1.0000e-10
Integration weight cutoff        WCut        ... 1.0000e-14
Angular grids for H and He will be reduced by one unit
Partially contracted basis set               ... off
Rotationally invariant grid construction     ... off

Total number of grid points                  ...    19981
Total number of batches                      ...      327
Average number of points per batch           ...       61
Average number of grid points per atom       ...      624

CP-SCF GRIDX
------------

General Integration Accuracy     IntAcc      ... 3.067
Radial Grid Type                 RadialGrid  ... OptM3 with GC (2021)
Angular Grid (max. ang.)         AngularGrid ... 1 (Lebedev-50)
Angular grid pruning method      GridPruning ... 4 (adaptive)
Weight generation scheme         WeightScheme... Becke
Basis function cutoff            BFCut       ... 1.0000e-10
Integration weight cutoff        WCut        ... 1.0000e-14
Angular grids for H and He will be reduced by one unit
Partially contracted basis set               ... on
Rotationally invariant grid construction     ... off

Total number of grid points                  ...     9433
Total number of batches                      ...      169
Average number of points per batch           ...       55
Average number of grid points per atom       ...      295

Memory available               ... 922.8 MB
Memory needed per perturbation ...   8.0 MB
Perturbations treated per batch... 3
Number of batches              ... 1
     CP-SCF ITERATION   0:   4.0271e-02 (   0.5 sec   0/  3 done)
     CP-SCF ITERATION   1:   1.1825e-03 (   0.5 sec   2/  3 done)
     CP-SCF ITERATION   2:   9.6883e-05 (   0.3 sec   3/  3 done)
                    *** THE CP-SCF HAS CONVERGED ***

Forming final perturbed densities           ... done
Transforming perturbed density to AO basis  ... done

 Raw HFC matrix (all values in MHz): 
 -----------------------------------
                30.2562              -2.7182              -5.4895
                -2.7207              27.3793               3.4424
                -5.4923               3.4427              35.1167

 A(FC)          30.9147              30.9147              30.9147
 A(SD)          -5.1806              -4.0816               9.2622
 A(ORB+DIA)      0.0020              -0.0001               0.0062    A(PC) =   0.0027
 A(ORB)          0.0011              -0.0007               0.0053    A(PC) =   0.0019
 A(DIA)          0.0008               0.0005               0.0010    A(PC) =   0.0008
             ----------           ----------           ----------
 A(Tot)         25.7361              26.8330              40.1832    A(iso)=   30.9174
 Orientation: 
  X           0.4734860           -0.7077897           -0.5242563
  Y           0.8796131            0.3490623            0.3231660
  Z          -0.0457354           -0.6141573            0.7878573

Notes:  (1) The A matrix conforms to the "SAI" spin Hamiltonian convention.
        (2) Tensor is right-handed.


--------------------------------------------------------------------------------
----------------------------------------------------------------------------
                           ORCA EULER ANGLE PROGRAM
----------------------------------------------------------------------------

Only g-tensor available        -->  using g-tensor as reference tensor

Reference tensor               ...  g

g-tensor ordering              ...  |g_min> --> |gx>
                                    |g_mid> --> |gy>
                                    |g_max> --> |gz>

A- and EFG-tensor ordering     ...  the axes |Ax>, |Qx>, |Ay>, etc. are assigned
                                    such that the Euler rotation is minimal. You
                                    can find the respective eigenvalues as Ax,
                                    EFGx, Ay, etc. in the tables below.
                                    The relation of |Ax>, |Ay>,  etc. to Amin, Amid, etc.
                                    (as printed in the ORCA EPR/NMR CALCULATION Output)
                                    is obtained in the detailed printout.

Euler rotation around          ...  z - y - z
   First rotation              -->  by alpha around z
   Second rotation             -->  by beta around y'
   Third rotation              -->  by gamma around z''
   Positive / Negative angle   -->  clockwise / counterclockwise rotation

Plot EFG-tensors                    (-)
Plot HFC-tensors                    (-)
Detailed Printout                   (-)

-------------------------------------------------------------------------
          Euler rotation of hyperfine tensor to g-tensor
-------------------------------------------------------------------------

-------------------------------------------------------------------
 Atom  |   Alpha    Beta    Gamma   |   Ax       Ay       Az 
       |          [degrees]         |           [MHz]         
-------------------------------------------------------------------
  8N       51.1      7.1    -35.2     415.83    24.34    20.77
  9H       58.3     27.6    -52.7     -28.23   -58.14     8.62
 10H      -74.1     43.1    100.8       5.10    -0.96    28.98
 11H       91.9     37.4    -70.4      12.33     6.30    35.99
 28H       12.0     15.1     -0.4      -3.84     4.06    -4.13
 29H       30.3     41.1    -44.6      -3.80     5.21    -5.28
 30H     -101.9     42.0    138.5      96.76    95.26   106.91
 31H      -54.0     11.9     89.0      26.83    25.74    40.18
-------------------------------------------------------------------


Maximum memory used throughout the entire EPRNMR-calculation: 134.2 MB

Timings for individual modules:

Sum of individual times         ...      262.546 sec (=   4.376 min)
GTO integral calculation        ...        3.554 sec (=   0.059 min)   1.4 %
Spin-Orbit-Coupling Matrices    ...        4.781 sec (=   0.080 min)   1.8 %
SCF iterations                  ...       22.364 sec (=   0.373 min)   8.5 %
EPR/NMR calculation             ...      231.847 sec (=   3.864 min)  88.3 %
                             ****ORCA TERMINATED NORMALLY****
TOTAL RUN TIME: 0 days 0 hours 4 minutes 25 seconds 208 msec
