
                                 *****************
                                 * O   R   C   A *
                                 *****************

                                            #,                                       
                                            ###                                      
                                            ####                                     
                                            #####                                    
                                            ######                                   
                                           ########,                                 
                                     ,,################,,,,,                         
                               ,,#################################,,                 
                          ,,##########################################,,             
                       ,#########################################, ''#####,          
                    ,#############################################,,   '####,        
                  ,##################################################,,,,####,       
                ,###########''''           ''''###############################       
              ,#####''   ,,,,##########,,,,          '''####'''          '####       
            ,##' ,,,,###########################,,,                        '##       
           ' ,,###''''                  '''############,,,                           
         ,,##''                                '''############,,,,        ,,,,,,###''
      ,#''                                            '''#######################'''  
     '                                                          ''''####''''         
             ,#######,   #######,   ,#######,      ##                                
            ,#'     '#,  ##    ##  ,#'     '#,    #''#        ######   ,####,        
            ##       ##  ##   ,#'  ##            #'  '#       #        #'  '#        
            ##       ##  #######   ##           ,######,      #####,   #    #        
            '#,     ,#'  ##    ##  '#,     ,#' ,#      #,         ##   #,  ,#        
             '#######'   ##     ##  '#######'  #'      '#     #####' # '####'        



                  #######################################################
                  #                        -***-                        #
                  #          Department of theory and spectroscopy      #
                  #    Directorship and core code : Frank Neese         #
                  #        Max Planck Institute fuer Kohlenforschung    #
                  #                Kaiser Wilhelm Platz 1               #
                  #                 D-45470 Muelheim/Ruhr               #
                  #                      Germany                        #
                  #                                                     #
                  #                  All rights reserved                #
                  #                        -***-                        #
                  #######################################################


                         Program Version 5.0.4 -  RELEASE  -


 With contributions from (in alphabetic order):
   Daniel Aravena         : Magnetic Suceptibility
   Michael Atanasov       : Ab Initio Ligand Field Theory (pilot matlab implementation)
   Alexander A. Auer      : GIAO ZORA, VPT2 properties, NMR spectrum
   Ute Becker             : Parallelization
   Giovanni Bistoni       : ED, misc. LED, open-shell LED, HFLD
   Martin Brehm           : Molecular dynamics
   Dmytro Bykov           : SCF Hessian
   Vijay G. Chilkuri      : MRCI spin determinant printing, contributions to CSF-ICE
   Dipayan Datta          : RHF DLPNO-CCSD density
   Achintya Kumar Dutta   : EOM-CC, STEOM-CC
   Dmitry Ganyushin       : Spin-Orbit,Spin-Spin,Magnetic field MRCI
   Miquel Garcia          : C-PCM and meta-GGA Hessian, CC/C-PCM, Gaussian charge scheme
   Yang Guo               : DLPNO-NEVPT2, F12-NEVPT2, CIM, IAO-localization
   Andreas Hansen         : Spin unrestricted coupled pair/coupled cluster methods
   Benjamin Helmich-Paris : MC-RPA, TRAH-SCF, COSX integrals
   Lee Huntington         : MR-EOM, pCC
   Robert Izsak           : Overlap fitted RIJCOSX, COSX-SCS-MP3, EOM
   Marcus Kettner         : VPT2
   Christian Kollmar      : KDIIS, OOCD, Brueckner-CCSD(T), CCSD density, CASPT2, CASPT2-K
   Simone Kossmann        : Meta GGA functionals, TD-DFT gradient, OOMP2, MP2 Hessian
   Martin Krupicka        : Initial AUTO-CI
   Lucas Lang             : DCDCAS
   Marvin Lechner         : AUTO-CI (C++ implementation), FIC-MRCC
   Dagmar Lenk            : GEPOL surface, SMD
   Dimitrios Liakos       : Extrapolation schemes; Compound Job, initial MDCI parallelization
   Dimitrios Manganas     : Further ROCIS development; embedding schemes
   Dimitrios Pantazis     : SARC Basis sets
   Anastasios Papadopoulos: AUTO-CI, single reference methods and gradients
   Taras Petrenko         : DFT Hessian,TD-DFT gradient, ASA, ECA, R-Raman, ABS, FL, XAS/XES, NRVS
   Peter Pinski           : DLPNO-MP2, DLPNO-MP2 Gradient
   Christoph Reimann      : Effective Core Potentials
   Marius Retegan         : Local ZFS, SOC
   Christoph Riplinger    : Optimizer, TS searches, QM/MM, DLPNO-CCSD(T), (RO)-DLPNO pert. Triples
   Tobias Risthaus        : Range-separated hybrids, TD-DFT gradient, RPA, STAB
   Michael Roemelt        : Original ROCIS implementation
   Masaaki Saitow         : Open-shell DLPNO-CCSD energy and density
   Barbara Sandhoefer     : DKH picture change effects
   Avijit Sen             : IP-ROCIS
   Kantharuban Sivalingam : CASSCF convergence, NEVPT2, FIC-MRCI
   Bernardo de Souza      : ESD, SOC TD-DFT
   Georgi Stoychev        : AutoAux, RI-MP2 NMR, DLPNO-MP2 response
   Willem Van den Heuvel  : Paramagnetic NMR
   Boris Wezisla          : Elementary symmetry handling
   Frank Wennmohs         : Technical directorship


 We gratefully acknowledge several colleagues who have allowed us to
 interface, adapt or use parts of their codes:
   Stefan Grimme, W. Hujo, H. Kruse, P. Pracht,  : VdW corrections, initial TS optimization,
                  C. Bannwarth, S. Ehlert          DFT functionals, gCP, sTDA/sTD-DF
   Ed Valeev, F. Pavosevic, A. Kumar             : LibInt (2-el integral package), F12 methods
   Garnet Chan, S. Sharma, J. Yang, R. Olivares  : DMRG
   Ulf Ekstrom                                   : XCFun DFT Library
   Mihaly Kallay                                 : mrcc  (arbitrary order and MRCC methods)
   Jiri Pittner, Ondrej Demel                    : Mk-CCSD
   Frank Weinhold                                : gennbo (NPA and NBO analysis)
   Christopher J. Cramer and Donald G. Truhlar   : smd solvation model
   Lars Goerigk                                  : TD-DFT with DH, B97 family of functionals
   V. Asgeirsson, H. Jonsson                     : NEB implementation
   FAccTs GmbH                                   : IRC, NEB, NEB-TS, DLPNO-Multilevel, CI-OPT
                                                   MM, QMMM, 2- and 3-layer-ONIOM, Crystal-QMMM,
                                                   LR-CPCM, SF, NACMEs, symmetry and pop. for TD-DFT,
                                                   nearIR, NL-DFT gradient (VV10), updates on ESD,
                                                   ML-optimized integration grids
   S Lehtola, MJT Oliveira, MAL Marques          : LibXC Library
   Liviu Ungur et al                             : ANISO software


 Your calculation uses the libint2 library for the computation of 2-el integrals
 For citations please refer to: http://libint.valeyev.net

 Your ORCA version has been built with support for libXC version: 5.1.0
 For citations please refer to: https://tddft.org/programs/libxc/

 This ORCA versions uses:
   CBLAS   interface :  Fast vector & matrix operations
   LAPACKE interface :  Fast linear algebra routines
   SCALAPACK package :  Parallel linear algebra routines
   Shared memory     :  Shared parallel matrices
   BLAS/LAPACK       :  OpenBLAS 0.3.15  USE64BITINT DYNAMIC_ARCH NO_AFFINITY Zen SINGLE_THREADED
        Core in use  :  Zen
   Copyright (c) 2011-2014, The OpenBLAS Project




***************************************
The coordinates will be read from file: opt.xyz
***************************************


XCFun DFT library Copyright 2009-2010 Ulf Ekstrom and contributors.
See http://admol.org/xcfun for more information.
This is free software; see the source code for copying conditions.
There is ABSOLUTELY NO WARRANTY; not even for MERCHANTABILITY or FITNESS FOR A PARTICULAR PURPOSE.
For details see the documentation.
Scientific users of this library should cite U. Ekstrom, L. Visscher, R. Bast, A. J. Thorvaldsen and K. Ruud;
J.Chem.Theor.Comp. 2010, DOI: 10.1021/ct100117s
XCFun Version 0.99 

================================================================================

----- Orbital basis set information -----
Your calculation utilizes the basis: def2-TZVP
   F. Weigend and R. Ahlrichs, Phys. Chem. Chem. Phys. 7, 3297 (2005).

----- AuxJ basis set information -----
Your calculation utilizes the auxiliary basis: def2/J
   F. Weigend, Phys. Chem. Chem. Phys. 8, 1057 (2006).

================================================================================
                                        WARNINGS
                       Please study these warnings very carefully!
================================================================================


WARNING: your system is open-shell and RHF/RKS was chosen
  ===> : WILL SWITCH to UHF/UKS


WARNING: Geometry Optimization
  ===> : Switching off AutoStart
         For restart on a previous wavefunction, please use MOREAD

WARNING: Minnesota functionals are quite sensitive to the integration grid.
         see SE Wheeler, KN Houk, JCTC 2010, 6, 395,
             N Mardirossian, M Head-Gordon, JCTC 2016, 12, 4303.
         DEFGRID3 seems to be a minimum grid for reliable results with these functionals!
  ===> : Please increase the integration grid!


INFO   : the flag for use of the SHARK integral package has been found!

================================================================================
                                       INPUT FILE
================================================================================
NAME = freq.inp
|  1> ! M062X def2-TZVP OPT FREQ
|  2> %pal nprocs 16 end
|  3> *XYZFile 0 2 opt.xyz
|  4> 
|  5>                          ****END OF INPUT****
================================================================================

                       *****************************
                       * Geometry Optimization Run *
                       *****************************

Geometry optimization settings:
Update method            Update   .... BFGS
Choice of coordinates    CoordSys .... Z-matrix Internals
Initial Hessian          InHess   .... Almoef's Model

Convergence Tolerances:
Energy Change            TolE     ....  5.0000e-06 Eh
Max. Gradient            TolMAXG  ....  3.0000e-04 Eh/bohr
RMS Gradient             TolRMSG  ....  1.0000e-04 Eh/bohr
Max. Displacement        TolMAXD  ....  4.0000e-03 bohr
RMS Displacement         TolRMSD  ....  2.0000e-03 bohr
Strict Convergence                ....  False
------------------------------------------------------------------------------
                        ORCA OPTIMIZATION COORDINATE SETUP
------------------------------------------------------------------------------

The optimization will be done in new redundant internal coordinates
Making redundant internal coordinates   ...  (new redundants) done
Evaluating the initial hessian          ...  (Almloef) done
Evaluating the coordinates              ...  done
Calculating the B-matrix                .... done
Calculating the G-matrix                .... done
Diagonalizing the G-matrix              .... done
Small eigenvalue found = 6.460e-03
Small eigenvalue found = 6.746e-03
Small eigenvalue found = 9.819e-03
Small eigenvalue found = 2.273e-02
Small eigenvalue found = 2.980e-02
The first mode is                       ....   64
The number of degrees of freedom        ....   90

    -----------------------------------------------------------------
                    Redundant Internal Coordinates


    -----------------------------------------------------------------
         Definition                    Initial Value    Approx d2E/dq
    -----------------------------------------------------------------
      1. B(C   1,N   0)                  1.4536         0.442962   
      2. B(C   2,C   1)                  1.5433         0.355816   
      3. B(O   3,C   2)                  1.2328         0.996876   
      4. B(C   4,C   1)                  1.5534         0.342775   
      5. B(C   5,C   4)                  1.5373         0.363744   
      6. B(C   6,C   5)                  1.5406         0.359321   
      7. B(C   7,C   6)                  1.5052         0.409148   
      8. B(N   8,C   7)                  1.4136         0.513169   
      9. B(H   9,C   7)                  1.0892         0.361225   
     10. B(H  10,N   8)                  1.0131         0.427869   
     11. B(H  11,N   8)                  1.0143         0.425862   
     12. B(H  12,N   0)                  1.0122         0.429302   
     13. B(C  13,N   0)                  1.3662         0.610691   
     14. B(N  14,C   2)                  1.3646         0.614382   
     15. B(H  15,N  14)                  1.0087         0.434838   
     16. B(O  16,C  13)                  1.2325         0.998140   
     17. B(C  17,C  13)                  1.5260         0.379059   
     18. B(H  18,C  17)                  1.0933         0.355774   
     19. B(H  19,C  17)                  1.0935         0.355450   
     20. B(H  20,C  17)                  1.0932         0.355826   
     21. B(C  21,N  14)                  1.4589         0.434536   
     22. B(H  22,C  21)                  1.0952         0.353272   
     23. B(H  23,C  21)                  1.0951         0.353427   
     24. B(H  24,C  21)                  1.0900         0.360088   
     25. B(H  25,C   1)                  1.0973         0.350514   
     26. B(H  26,C   4)                  1.0984         0.349181   
     27. B(H  27,C   4)                  1.0953         0.353211   
     28. B(H  28,C   5)                  1.0981         0.349562   
     29. B(H  29,C   5)                  1.0954         0.353044   
     30. B(H  30,C   6)                  1.1063         0.339191   
     31. B(H  31,C   6)                  1.1011         0.345710   
     32. A(H  12,N   0,C  13)          121.5178         0.357267   
     33. A(C   1,N   0,H  12)          115.2017         0.338461   
     34. A(C   1,N   0,C  13)          122.3550         0.402464   
     35. A(C   2,C   1,H  25)          109.1297         0.320322   
     36. A(C   2,C   1,C   4)          112.1016         0.355111   
     37. A(N   0,C   1,C   2)          106.9115         0.368691   
     38. A(C   4,C   1,H  25)          107.6097         0.318375   
     39. A(N   0,C   1,H  25)          108.1593         0.330081   
     40. A(N   0,C   1,C   4)          112.8263         0.366337   
     41. A(C   1,C   2,O   3)          121.7278         0.425055   
     42. A(O   3,C   2,N  14)          123.3874         0.466149   
     43. A(C   1,C   2,N  14)          114.8783         0.390186   
     44. A(C   1,C   4,H  27)          106.5380         0.318774   
     45. A(C   1,C   4,C   5)          114.7574         0.356441   
     46. A(C   5,C   4,H  26)          109.7673         0.321278   
     47. A(C   1,C   4,H  26)          108.7564         0.318178   
     48. A(C   5,C   4,H  27)          110.1014         0.321882   
     49. A(H  26,C   4,H  27)          106.5663         0.288563   
     50. A(C   6,C   5,H  29)          109.1466         0.321214   
     51. A(C   4,C   5,H  29)          109.5131         0.321857   
     52. A(C   6,C   5,H  28)          109.0843         0.320693   
     53. A(C   4,C   5,C   6)          112.3257         0.359310   
     54. A(C   4,C   5,H  28)          110.0649         0.321336   
     55. A(H  28,C   5,H  29)          106.5335         0.288591   
     56. A(C   5,C   6,C   7)          112.8528         0.366603   
     57. A(C   5,C   6,H  30)          109.0668         0.319119   
     58. A(C   7,C   6,H  30)          110.3725         0.325983   
     59. A(C   7,C   6,H  31)          109.4967         0.327006   
     60. A(C   5,C   6,H  31)          109.1480         0.320113   
     61. A(H  30,C   6,H  31)          105.6441         0.286296   
     62. A(N   8,C   7,H   9)          114.2242         0.339948   
     63. A(C   6,C   7,H   9)          118.1069         0.329383   
     64. A(C   6,C   7,N   8)          117.4489         0.387447   
     65. A(H  10,N   8,H  11)          109.7184         0.301942   
     66. A(C   7,N   8,H  11)          113.1870         0.346438   
     67. A(C   7,N   8,H  10)          113.3972         0.346713   
     68. A(O  16,C  13,C  17)          121.8316         0.430001   
     69. A(N   0,C  13,C  17)          115.6844         0.394114   
     70. A(N   0,C  13,O  16)          122.4834         0.465743   
     71. A(H  15,N  14,C  21)          118.6515         0.338100   
     72. A(C   2,N  14,C  21)          123.2609         0.401530   
     73. A(C   2,N  14,H  15)          118.0574         0.358413   
     74. A(H  19,C  17,H  20)          109.3030         0.289703   
     75. A(H  18,C  17,H  20)          109.2821         0.289745   
     76. A(C  13,C  17,H  20)          113.5019         0.324459   
     77. A(H  18,C  17,H  19)          107.6030         0.289697   
     78. A(C  13,C  17,H  19)          108.4531         0.324403   
     79. A(C  13,C  17,H  18)          108.5295         0.324451   
     80. A(N  14,C  21,H  22)          110.9618         0.329461   
     81. A(H  23,C  21,H  24)          109.0997         0.289985   
     82. A(H  22,C  21,H  24)          108.9852         0.289965   
     83. A(N  14,C  21,H  24)          107.7049         0.330504   
     84. A(H  22,C  21,H  23)          109.0651         0.289118   
     85. A(N  14,C  21,H  23)          110.9773         0.329485   
     86. D(H  25,C   1,N   0,H  12)    130.9709         0.016733   
     87. D(C   4,C   1,N   0,C  13)     80.7499         0.016733   
     88. D(H  25,C   1,N   0,C  13)    -38.1641         0.016733   
     89. D(C   2,C   1,N   0,C  13)   -155.5640         0.016733   
     90. D(C   4,C   1,N   0,H  12)   -110.1150         0.016733   
     91. D(C   2,C   1,N   0,H  12)     13.5710         0.016733   
     92. D(N  14,C   2,C   1,C   4)    -69.3490         0.009539   
     93. D(N  14,C   2,C   1,N   0)    166.5191         0.009539   
     94. D(O   3,C   2,C   1,N   0)    -14.3845         0.009539   
     95. D(N  14,C   2,C   1,H  25)     49.7596         0.009539   
     96. D(O   3,C   2,C   1,C   4)    109.7475         0.009539   
     97. D(O   3,C   2,C   1,H  25)   -131.1439         0.009539   
     98. D(C   5,C   4,C   1,C   2)    -59.0325         0.009500   
     99. D(C   5,C   4,C   1,N   0)     61.7357         0.009500   
    100. D(H  27,C   4,C   1,C   2)    178.8446         0.009500   
    101. D(C   5,C   4,C   1,H  25)   -179.0313         0.009500   
    102. D(H  26,C   4,C   1,H  25)    -55.6698         0.009500   
    103. D(H  26,C   4,C   1,C   2)     64.3290         0.009500   
    104. D(H  26,C   4,C   1,N   0)   -174.9028         0.009500   
    105. D(H  27,C   4,C   1,H  25)     58.8459         0.009500   
    106. D(H  27,C   4,C   1,N   0)    -60.3871         0.009500   
    107. D(H  29,C   5,C   4,H  27)     64.6793         0.010600   
    108. D(H  29,C   5,C   4,H  26)   -178.3103         0.010600   
    109. D(H  29,C   5,C   4,C   1)    -55.4909         0.010600   
    110. D(H  28,C   5,C   4,H  27)   -178.5217         0.010600   
    111. D(H  28,C   5,C   4,H  26)    -61.5112         0.010600   
    112. D(H  28,C   5,C   4,C   1)     61.3082         0.010600   
    113. D(C   6,C   5,C   4,H  27)    -56.7669         0.010600   
    114. D(C   6,C   5,C   4,H  26)     60.2436         0.010600   
    115. D(C   6,C   5,C   4,C   1)   -176.9370         0.010600   
    116. D(C   7,C   6,C   5,C   4)   -179.7258         0.010361   
    117. D(H  31,C   6,C   5,H  28)   -179.4007         0.010361   
    118. D(H  31,C   6,C   5,C   4)     58.2872         0.010361   
    119. D(H  30,C   6,C   5,H  29)   -178.3314         0.010361   
    120. D(H  30,C   6,C   5,H  28)     65.6362         0.010361   
    121. D(H  30,C   6,C   5,C   4)    -56.6759         0.010361   
    122. D(C   7,C   6,C   5,H  29)     58.6188         0.010361   
    123. D(H  31,C   6,C   5,H  29)    -63.3683         0.010361   
    124. D(C   7,C   6,C   5,H  28)    -57.4137         0.010361   
    125. D(H   9,C   7,C   6,H  31)    167.4052         0.012400   
    126. D(H   9,C   7,C   6,H  30)    -76.7057         0.012400   
    127. D(H   9,C   7,C   6,C   5)     45.6147         0.012400   
    128. D(N   8,C   7,C   6,H  31)    -49.3108         0.012400   
    129. D(N   8,C   7,C   6,H  30)     66.5782         0.012400   
    130. D(N   8,C   7,C   6,C   5)   -171.1014         0.012400   
    131. D(H  11,N   8,C   7,H   9)   -168.8276         0.020857   
    132. D(H  11,N   8,C   7,C   6)     46.5009         0.020857   
    133. D(H  10,N   8,C   7,H   9)    -43.0061         0.020857   
    134. D(H  10,N   8,C   7,C   6)    172.3224         0.020857   
    135. D(C  17,C  13,N   0,H  12)      7.4318         0.030129   
    136. D(C  17,C  13,N   0,C   1)    175.8909         0.030129   
    137. D(O  16,C  13,N   0,H  12)   -172.8505         0.030129   
    138. D(O  16,C  13,N   0,C   1)     -4.3914         0.030129   
    139. D(C  21,N  14,C   2,O   3)      0.0152         0.030522   
    140. D(C  21,N  14,C   2,C   1)    179.0948         0.030522   
    141. D(H  15,N  14,C   2,O   3)    177.9859         0.030522   
    142. D(H  15,N  14,C   2,C   1)     -2.9346         0.030522   
    143. D(H  20,C  17,C  13,N   0)      1.0993         0.010725   
    144. D(H  19,C  17,C  13,O  16)     59.7041         0.010725   
    145. D(H  19,C  17,C  13,N   0)   -120.5763         0.010725   
    146. D(H  18,C  17,C  13,O  16)    -56.9167         0.010725   
    147. D(H  20,C  17,C  13,O  16)   -178.6204         0.010725   
    148. D(H  18,C  17,C  13,N   0)    122.8029         0.010725   
    149. D(H  24,C  21,N  14,H  15)   -179.4249         0.016099   
    150. D(H  24,C  21,N  14,C   2)     -1.4656         0.016099   
    151. D(H  23,C  21,N  14,H  15)     61.2174         0.016099   
    152. D(H  23,C  21,N  14,C   2)   -120.8234         0.016099   
    153. D(H  22,C  21,N  14,H  15)    -60.2157         0.016099   
    154. D(H  22,C  21,N  14,C   2)    117.7435         0.016099   
    -----------------------------------------------------------------

Number of atoms                         .... 32
Number of degrees of freedom            .... 154

         *************************************************************
         *                GEOMETRY OPTIMIZATION CYCLE   1            *
         *************************************************************
---------------------------------
CARTESIAN COORDINATES (ANGSTROEM)
---------------------------------
  N      1.596233   -0.802325    0.380239
  C      1.093065    0.224062   -0.517746
  C      1.163026    1.562899    0.246626
  O      1.332755    1.604603    1.466997
  C     -0.339554   -0.078626   -1.036496
  C     -1.416718   -0.158896    0.057323
  C     -2.799088   -0.535189   -0.509134
  C     -3.864598   -0.610713    0.551400
  N     -5.122776   -1.133630    0.174909
  H     -3.915912    0.192393    1.285318
  H     -5.751476   -1.271656    0.957200
  H     -5.054199   -1.990053   -0.364279
  H      1.682364   -0.522745    1.349190
  C      2.130897   -1.974181   -0.075211
  N      1.004062    2.675092   -0.527857
  H      0.901362    2.549278   -1.523359
  O      2.150056   -2.272414   -1.270908
  C      2.701003   -2.901005    0.994720
  H      2.196582   -3.868187    0.921230
  H      3.761251   -3.063994    0.782275
  H      2.591529   -2.513043    2.010937
  C      1.018658    4.031929    0.007896
  H      1.848554    4.610126   -0.412159
  H      0.077506    4.548663   -0.207610
  H      1.147128    3.960495    1.087948
  H      1.758368    0.272244   -1.389077
  H     -0.616496    0.685605   -1.775209
  H     -0.280887   -1.029132   -1.577500
  H     -1.493324    0.802729    0.581918
  H     -1.121829   -0.900608    0.807506
  H     -3.082187    0.197691   -1.287982
  H     -2.725848   -1.504583   -1.026180

----------------------------
CARTESIAN COORDINATES (A.U.)
----------------------------
  NO LB      ZA    FRAG     MASS         X           Y           Z
   0 N     7.0000    0    14.007    3.016443   -1.516175    0.718547
   1 C     6.0000    0    12.011    2.065594    0.423416   -0.978399
   2 C     6.0000    0    12.011    2.197800    2.953451    0.466056
   3 O     8.0000    0    15.999    2.518543    3.032260    2.772223
   4 C     6.0000    0    12.011   -0.641664   -0.148581   -1.958694
   5 C     6.0000    0    12.011   -2.677210   -0.300270    0.108325
   6 C     6.0000    0    12.011   -5.289509   -1.011361   -0.962124
   7 C     6.0000    0    12.011   -7.303032   -1.154080    1.041994
   8 N     7.0000    0    14.007   -9.680644   -2.142249    0.330530
   9 H     1.0000    0     1.008   -7.400002    0.363571    2.428899
  10 H     1.0000    0     1.008  -10.868714   -2.403082    1.808845
  11 H     1.0000    0     1.008   -9.551052   -3.760655   -0.688388
  12 H     1.0000    0     1.008    3.179207   -0.987844    2.549600
  13 C     6.0000    0    12.011    4.026812   -3.730661   -0.142128
  14 N     7.0000    0    14.007    1.897402    5.055191   -0.997504
  15 H     1.0000    0     1.008    1.703328    4.817437   -2.878731
  16 O     8.0000    0    15.999    4.063017   -4.294241   -2.401668
  17 C     6.0000    0    12.011    5.104156   -5.482105    1.879749
  18 H     1.0000    0     1.008    4.150938   -7.309814    1.740873
  19 H     1.0000    0     1.008    7.107734   -5.790110    1.478286
  20 H     1.0000    0     1.008    4.897281   -4.748964    3.800120
  21 C     6.0000    0    12.011    1.924985    7.619241    0.014922
  22 H     1.0000    0     1.008    3.493262    8.711876   -0.778868
  23 H     1.0000    0     1.008    0.146464    8.595727   -0.392327
  24 H     1.0000    0     1.008    2.167759    7.484251    2.055924
  25 H     1.0000    0     1.008    3.322834    0.514467   -2.624974
  26 H     1.0000    0     1.008   -1.165009    1.295606   -3.354658
  27 H     1.0000    0     1.008   -0.530800   -1.944778   -2.981043
  28 H     1.0000    0     1.008   -2.821974    1.516938    1.099666
  29 H     1.0000    0     1.008   -2.119950   -1.701902    1.525966
  30 H     1.0000    0     1.008   -5.824488    0.373581   -2.433934
  31 H     1.0000    0     1.008   -5.151106   -2.843249   -1.939200

--------------------------------
INTERNAL COORDINATES (ANGSTROEM)
--------------------------------
 N      0   0   0     0.000000000000     0.00000000     0.00000000
 C      1   0   0     1.453624675425     0.00000000     0.00000000
 C      2   1   0     1.543257642510   106.91149969     0.00000000
 O      3   2   1     1.232823088370   121.72775472   345.61554258
 C      2   1   3     1.553421781493   112.82633810   236.31390612
 C      5   2   1     1.537259554023   114.75739935    61.73566641
 C      6   5   2     1.540589165070   112.32568529   183.06301889
 C      7   6   5     1.505240312694   112.85279255   180.27422605
 N      8   7   6     1.413576538773   117.44893175   188.89863167
 H      8   7   6     1.089150681926   118.10691244    45.61471188
 H      9   8   7     1.013061474613   113.39718761   172.32242631
 H      9   8   7     1.014341244395   113.18704393    46.50087373
 H      1   2   3     1.012151248308   115.20173377    13.57104479
 C      1   2   3     1.366215752103   122.35500224   204.43602477
 N      3   2   1     1.364575585076   114.87825572   166.51907662
 H     15   3   2     1.008663159430   118.05736508   357.06544760
 O     14   1   2     1.232478153173   122.48339772   355.60855486
 C     14   1   2     1.526032938610   115.68439526   175.89091646
 H     18  14   1     1.093289695286   108.52953393   122.80293553
 H     18  14   1     1.093537743211   108.45309363   239.42373245
 H     18  14   1     1.093249996849   113.50190451     1.09926809
 C     15   3   2     1.458852343389   123.26092924   179.09481232
 H     22  15   3     1.095210897950   110.96175685   117.74350225
 H     22  15   3     1.095091506949   110.97725420   239.17664247
 H     22  15   3     1.090009040295   107.70494310   358.53435047
 H      2   1   3     1.097344737755   108.15927661   117.39987831
 H      5   2   1     1.098381385479   108.75641122   185.09716449
 H      5   2   1     1.095257713196   106.53802620   299.61285849
 H      6   5   2     1.098084980665   110.06486385    61.30818957
 H      6   5   2     1.095386448893   109.51310252   304.50914120
 H      7   6   5     1.106283019000   109.06681972   303.32410308
 H      7   6   5     1.101101506615   109.14797900    58.28716068

---------------------------
INTERNAL COORDINATES (A.U.)
---------------------------
 N      0   0   0     0.000000000000     0.00000000     0.00000000
 C      1   0   0     2.746952538064     0.00000000     0.00000000
 C      2   1   0     2.916334298424   106.91149969     0.00000000
 O      3   2   1     2.329698008594   121.72775472   345.61554258
 C      2   1   3     2.935541737489   112.82633810   236.31390612
 C      5   2   1     2.904999553857   114.75739935    61.73566641
 C      6   5   2     2.911291606869   112.32568529   183.06301889
 C      7   6   5     2.844491956730   112.85279255   180.27422605
 N      8   7   6     2.671272527617   117.44893175   188.89863167
 H      8   7   6     2.058196507415   118.10691244    45.61471188
 H      9   8   7     1.914408743844   113.39718761   172.32242631
 H      9   8   7     1.916827158248   113.18704393    46.50087373
 H      1   2   3     1.912688665409   115.20173377    13.57104479
 C      1   2   3     2.581773611324   122.35500224   204.43602477
 N      3   2   1     2.578674144830   114.87825572   166.51907662
 H     15   3   2     1.906097132699   118.05736508   357.06544760
 O     14   1   2     2.329046175538   122.48339772   355.60855486
 C     14   1   2     2.883784325316   115.68439526   175.89091646
 H     18  14   1     2.066018109128   108.52953393   122.80293553
 H     18  14   1     2.066486851776   108.45309363   239.42373245
 H     18  14   1     2.065943089956   113.50190451     1.09926809
 C     15   3   2     2.756831398835   123.26092924   179.09481232
 H     22  15   3     2.069648656011   110.96175685   117.74350225
 H     22  15   3     2.069423039717   110.97725420   239.17664247
 H     22  15   3     2.059818569655   107.70494310   358.53435047
 H      2   1   3     2.073681028857   108.15927661   117.39987831
 H      5   2   1     2.075640009151   108.75641122   185.09716449
 H      5   2   1     2.069737124005   106.53802620   299.61285849
 H      6   5   2     2.075079885229   110.06486385    61.30818957
 H      6   5   2     2.069980399217   109.51310252   304.50914120
 H      7   6   5     2.090571932518   109.06681972   303.32410308
 H      7   6   5     2.080780293151   109.14797900    58.28716068

---------------------
BASIS SET INFORMATION
---------------------
There are 4 groups of distinct atoms

 Group   1 Type N   : 11s6p2d1f contracted to 5s3p2d1f pattern {62111/411/11/1}
 Group   2 Type C   : 11s6p2d1f contracted to 5s3p2d1f pattern {62111/411/11/1}
 Group   3 Type O   : 11s6p2d1f contracted to 5s3p2d1f pattern {62111/411/11/1}
 Group   4 Type H   : 5s1p contracted to 3s1p pattern {311/1}

Atom   0N    basis set group =>   1
Atom   1C    basis set group =>   2
Atom   2C    basis set group =>   2
Atom   3O    basis set group =>   3
Atom   4C    basis set group =>   2
Atom   5C    basis set group =>   2
Atom   6C    basis set group =>   2
Atom   7C    basis set group =>   2
Atom   8N    basis set group =>   1
Atom   9H    basis set group =>   4
Atom  10H    basis set group =>   4
Atom  11H    basis set group =>   4
Atom  12H    basis set group =>   4
Atom  13C    basis set group =>   2
Atom  14N    basis set group =>   1
Atom  15H    basis set group =>   4
Atom  16O    basis set group =>   3
Atom  17C    basis set group =>   2
Atom  18H    basis set group =>   4
Atom  19H    basis set group =>   4
Atom  20H    basis set group =>   4
Atom  21C    basis set group =>   2
Atom  22H    basis set group =>   4
Atom  23H    basis set group =>   4
Atom  24H    basis set group =>   4
Atom  25H    basis set group =>   4
Atom  26H    basis set group =>   4
Atom  27H    basis set group =>   4
Atom  28H    basis set group =>   4
Atom  29H    basis set group =>   4
Atom  30H    basis set group =>   4
Atom  31H    basis set group =>   4
---------------------------------
AUXILIARY/J BASIS SET INFORMATION
---------------------------------
There are 4 groups of distinct atoms

 Group   1 Type N   : 12s5p4d2f1g contracted to 6s4p3d1f1g pattern {711111/2111/211/2/1}
 Group   2 Type C   : 12s5p4d2f1g contracted to 6s4p3d1f1g pattern {711111/2111/211/2/1}
 Group   3 Type O   : 12s5p4d2f1g contracted to 6s4p3d1f1g pattern {711111/2111/211/2/1}
 Group   4 Type H   : 5s2p1d contracted to 3s1p1d pattern {311/2/1}

Atom   0N    basis set group =>   1
Atom   1C    basis set group =>   2
Atom   2C    basis set group =>   2
Atom   3O    basis set group =>   3
Atom   4C    basis set group =>   2
Atom   5C    basis set group =>   2
Atom   6C    basis set group =>   2
Atom   7C    basis set group =>   2
Atom   8N    basis set group =>   1
Atom   9H    basis set group =>   4
Atom  10H    basis set group =>   4
Atom  11H    basis set group =>   4
Atom  12H    basis set group =>   4
Atom  13C    basis set group =>   2
Atom  14N    basis set group =>   1
Atom  15H    basis set group =>   4
Atom  16O    basis set group =>   3
Atom  17C    basis set group =>   2
Atom  18H    basis set group =>   4
Atom  19H    basis set group =>   4
Atom  20H    basis set group =>   4
Atom  21C    basis set group =>   2
Atom  22H    basis set group =>   4
Atom  23H    basis set group =>   4
Atom  24H    basis set group =>   4
Atom  25H    basis set group =>   4
Atom  26H    basis set group =>   4
Atom  27H    basis set group =>   4
Atom  28H    basis set group =>   4
Atom  29H    basis set group =>   4
Atom  30H    basis set group =>   4
Atom  31H    basis set group =>   4


           ************************************************************
           *        Program running with 16 parallel MPI-processes    *
           *              working on a common directory               *
           ************************************************************
------------------------------------------------------------------------------
                           ORCA GTO INTEGRAL CALCULATION
                           -- RI-GTO INTEGRALS CHOSEN --
------------------------------------------------------------------------------
------------------------------------------------------------------------------
                   ___                                                        
                  /   \      - P O W E R E D   B Y -                         
                 /     \                                                     
                 |  |  |   _    _      __       _____    __    __             
                 |  |  |  | |  | |    /  \     |  _  \  |  |  /  |          
                  \  \/   | |  | |   /    \    | | | |  |  | /  /          
                 / \  \   | |__| |  /  /\  \   | |_| |  |  |/  /          
                |  |  |   |  __  | /  /__\  \  |    /   |      \           
                |  |  |   | |  | | |   __   |  |    \   |  |\   \          
                \     /   | |  | | |  |  |  |  | |\  \  |  | \   \       
                 \___/    |_|  |_| |__|  |__|  |_| \__\ |__|  \__/        
                                                                              
                      - O R C A' S   B I G   F R I E N D -                    
                                      &                                       
                       - I N T E G R A L  F E E D E R -                       
                                                                              
 v1 FN, 2020, v2 2021                                                         
------------------------------------------------------------------------------


Reading SHARK input file freq.SHARKINP.tmp ... ok
----------------------
SHARK INTEGRAL PACKAGE
----------------------

Number of atoms                             ...     32
Number of basis functions                   ...    542
Number of shells                            ...    226
Maximum angular momentum                    ...      3
Integral batch strategy                     ... SHARK/LIBINT Hybrid
RI-J (if used) integral strategy            ... SPLIT-RIJ (Revised 2003 algorithm where possible)
Printlevel                                  ...      1
Contraction scheme used                     ... SEGMENTED contraction
Coulomb Range Separation                    ... NOT USED
Exchange Range Separation                   ... NOT USED
Finite Nucleus Model                        ... NOT USED
Auxiliary Coulomb fitting basis             ... AVAILABLE
   # of basis functions in Aux-J            ...    884
   # of shells in Aux-J                     ...    300
   Maximum angular momentum in Aux-J        ...      4
Auxiliary J/K fitting basis                 ... NOT available
Auxiliary Correlation fitting basis         ... NOT available
Auxiliary 'external' fitting basis          ... NOT available
Integral threshold                          ...     2.500000e-11
Primitive cut-off                           ...     2.500000e-12
Primitive pair pre-selection threshold      ...     2.500000e-12

Calculating pre-screening integrals         ... done (  0.0 sec) Dimension = 226
Organizing shell pair data                  ... done (  0.1 sec)
Shell pair information
Total number of shell pairs                 ...     25651
Shell pairs after pre-screening             ...     19288
Total number of primitive shell pairs       ...     75828
Primitive shell pairs kept                  ...     39696
          la=0 lb=0:   5761 shell pairs
          la=1 lb=0:   5720 shell pairs
          la=1 lb=1:   1460 shell pairs
          la=2 lb=0:   2565 shell pairs
          la=2 lb=1:   1291 shell pairs
          la=2 lb=2:    307 shell pairs
          la=3 lb=0:   1217 shell pairs
          la=3 lb=1:    620 shell pairs
          la=3 lb=2:    276 shell pairs
          la=3 lb=3:     71 shell pairs

Calculating one electron integrals          ... done (  0.0 sec)
Calculating RI/J V-Matrix + Cholesky decomp.... done (  0.0 sec)
Calculating Nuclear repulsion               ... done (  0.0 sec) ENN=    915.812054614673 Eh

SHARK setup successfully completed in   0.4 seconds

Maximum memory used throughout the entire GTOINT-calculation: 31.0 MB


           ************************************************************
           *        Program running with 16 parallel MPI-processes    *
           *              working on a common directory               *
           ************************************************************
-------------------------------------------------------------------------------
                                 ORCA SCF
-------------------------------------------------------------------------------

------------
SCF SETTINGS
------------
Hamiltonian:
 Density Functional     Method          .... DFT(GTOs)
 Exchange Functional    Exchange        .... M062X
 Correlation Functional Correlation     .... M062X
 Gradients option       PostSCFGGA      .... off
 Hybrid DFT is turned on
   Fraction HF Exchange ScalHFX         ....  0.540000
   Scaling of DF-GGA-X  ScalDFX         ....  0.460000
   Scaling of DF-GGA-C  ScalDFC         ....  1.000000
   Scaling of DF-LDA-C  ScalLDAC        ....  1.000000
   Perturbative correction              ....  0.000000
   Density functional embedding theory  .... OFF
 RI-approximation to the Coulomb term is turned on
   Number of AuxJ basis functions       .... 884
   RIJ-COSX (HFX calculated with COS-X)).... on


General Settings:
 Integral files         IntName         .... freq
 Hartree-Fock type      HFTyp           .... UHF
 Total Charge           Charge          ....    0
 Multiplicity           Mult            ....    2
 Number of Electrons    NEL             ....  109
 Basis Dimension        Dim             ....  542
 Nuclear Repulsion      ENuc            ....    915.8120546147 Eh

Convergence Acceleration:
 DIIS                   CNVDIIS         .... on
   Start iteration      DIISMaxIt       ....    12
   Startup error        DIISStart       ....  0.200000
   # of expansion vecs  DIISMaxEq       ....     5
   Bias factor          DIISBfac        ....   1.050
   Max. coefficient     DIISMaxC        ....  10.000
 Trust-Rad. Augm. Hess. CNVTRAH         .... auto
   Auto Start mean grad. ratio tolernc. ....  1.125000
   Auto Start start iteration           ....    20
   Auto Start num. interpolation iter.  ....    10
   Max. Number of Micro iterations      ....    16
   Max. Number of Macro iterations      .... Maxiter - #DIIS iter
   Number of Davidson start vectors     ....     2
   Converg. threshold I  (grad. norm)   ....   1.000e-05
   Converg. threshold II (energy diff.) ....   1.000e-08
   Grad. Scal. Fac. for Micro threshold ....   0.100
   Minimum threshold for Micro iter.    ....   0.010
   NR start threshold (gradient norm)   ....   0.001
   Initial trust radius                 ....   0.400
   Minimum AH scaling param. (alpha)    ....   1.000
   Maximum AH scaling param. (alpha)    .... 1000.000
   Orbital update algorithm             .... Taylor
   White noise on init. David. guess    .... on
   Maximum white noise                  ....   0.010
   Quad. conv. algorithm                .... NR
 SOSCF                  CNVSOSCF        .... off
 Level Shifting         CNVShift        .... on
   Level shift para.    LevelShift      ....    0.2500
   Turn off err/grad.   ShiftErr        ....    0.0010
 Zerner damping         CNVZerner       .... off
 Static damping         CNVDamp         .... on
   Fraction old density DampFac         ....    0.7000
   Max. Damping (<1)    DampMax         ....    0.9800
   Min. Damping (>=0)   DampMin         ....    0.0000
   Turn off err/grad.   DampErr         ....    0.1000
 Fernandez-Rico         CNVRico         .... off

SCF Procedure:
 Maximum # iterations   MaxIter         ....   125
 SCF integral mode      SCFMode         .... Direct
   Integral package                     .... SHARK and LIBINT hybrid scheme
 Reset frequency        DirectResetFreq ....    20
 Integral Threshold     Thresh          ....  2.500e-11 Eh
 Primitive CutOff       TCut            ....  2.500e-12 Eh

Convergence Tolerance:
 Convergence Check Mode ConvCheckMode   .... Total+1el-Energy
 Convergence forced     ConvForced      .... 0
 Energy Change          TolE            ....  1.000e-08 Eh
 1-El. energy change                    ....  1.000e-05 Eh
 DIIS Error             TolErr          ....  5.000e-07


Diagonalization of the overlap matrix:
Smallest eigenvalue                        ... 6.333e-05
Time for diagonalization                   ...    0.035 sec
Threshold for overlap eigenvalues          ... 1.000e-08
Number of eigenvalues below threshold      ... 0
Time for construction of square roots      ...    0.023 sec
Total time needed                          ...    0.060 sec

Time for model grid setup =    0.116 sec

------------------------------
INITIAL GUESS: MODEL POTENTIAL
------------------------------
Loading Hartree-Fock densities                     ... done
Calculating cut-offs                               ... done
Initializing the effective Hamiltonian             ... done
Setting up the integral package (SHARK)            ... done
Starting the Coulomb interaction                   ... done (   0.1 sec)
Reading the grid                                   ... done
Mapping shells                                     ... done
Starting the XC term evaluation                    ... done (   0.1 sec)
  promolecular density results
     # of electrons  =    108.992009841
     EX              =    -87.240874286
     EC              =     -3.612965849
     EX+EC           =    -90.853840134
Transforming the Hamiltonian                       ... done (   0.0 sec)
Diagonalizing the Hamiltonian                      ... done (   0.0 sec)
Back transforming the eigenvectors                 ... done (   0.0 sec)
Now organizing SCF variables                       ... done
                      ------------------
                      INITIAL GUESS DONE (   0.4 sec)
                      ------------------
-------------------
DFT GRID GENERATION
-------------------

General Integration Accuracy     IntAcc      ... 4.388
Radial Grid Type                 RadialGrid  ... OptM3 with GC (2021)
Angular Grid (max. ang.)         AngularGrid ... 4 (Lebedev-302)
Angular grid pruning method      GridPruning ... 4 (adaptive)
Weight generation scheme         WeightScheme... Becke
Basis function cutoff            BFCut       ... 1.0000e-11
Integration weight cutoff        WCut        ... 1.0000e-14
Angular grids for H and He will be reduced by one unit
Partially contracted basis set               ... off
Rotationally invariant grid construction     ... off

Total number of grid points                  ...   141684
Total number of batches                      ...     2230
Average number of points per batch           ...       63
Average number of grid points per atom       ...     4428
Time for grid setup =    0.588 sec

--------------------
COSX GRID GENERATION
--------------------

GRIDX 1
-------
General Integration Accuracy     IntAcc      ... 3.816
Radial Grid Type                 RadialGrid  ... OptM3 with GC (2021)
Angular Grid (max. ang.)         AngularGrid ... 1 (Lebedev-50)
Angular grid pruning method      GridPruning ... 4 (adaptive)
Weight generation scheme         WeightScheme... Becke
Basis function cutoff            BFCut       ... 1.0000e-11
Integration weight cutoff        WCut        ... 1.0000e-14
Angular grids for H and He will be reduced by one unit
Partially contracted basis set               ... on
Rotationally invariant grid construction     ... off

Total number of grid points                  ...    18084
Total number of batches                      ...      302
Average number of points per batch           ...       59
Average number of grid points per atom       ...      565
UseSFitting                                  ... on

GRIDX 2
-------
General Integration Accuracy     IntAcc      ... 4.020
Radial Grid Type                 RadialGrid  ... OptM3 with GC (2021)
Angular Grid (max. ang.)         AngularGrid ... 2 (Lebedev-110)
Angular grid pruning method      GridPruning ... 4 (adaptive)
Weight generation scheme         WeightScheme... Becke
Basis function cutoff            BFCut       ... 1.0000e-11
Integration weight cutoff        WCut        ... 1.0000e-14
Angular grids for H and He will be reduced by one unit
Partially contracted basis set               ... on
Rotationally invariant grid construction     ... off

Total number of grid points                  ...    38337
Total number of batches                      ...      616
Average number of points per batch           ...       62
Average number of grid points per atom       ...     1198
UseSFitting                                  ... on

GRIDX 3
-------
General Integration Accuracy     IntAcc      ... 4.338
Radial Grid Type                 RadialGrid  ... OptM3 with GC (2021)
Angular Grid (max. ang.)         AngularGrid ... 3 (Lebedev-194)
Angular grid pruning method      GridPruning ... 4 (adaptive)
Weight generation scheme         WeightScheme... Becke
Basis function cutoff            BFCut       ... 1.0000e-11
Integration weight cutoff        WCut        ... 1.0000e-14
Angular grids for H and He will be reduced by one unit
Partially contracted basis set               ... on
Rotationally invariant grid construction     ... off

Total number of grid points                  ...    83561
Total number of batches                      ...     1323
Average number of points per batch           ...       63
Average number of grid points per atom       ...     2611
UseSFitting                                  ... on

Time for X-Grid setup             =    0.803 sec

--------------
SCF ITERATIONS
--------------
ITER       Energy         Delta-E        Max-DP      RMS-DP      [F,P]     Damp
               ***  Starting incremental Fock matrix formation  ***
  0   -667.9313533248   0.000000000000 0.05161857  0.00044135  0.1507569 0.7000
  1   -668.1600463233  -0.228692998580 0.04598938  0.00035860  0.0716558 0.7000
                               ***Turning on DIIS***
  2   -668.2618408204  -0.101794497081 0.07123822  0.00069484  0.0272005 0.0000
  3   -668.4217690200  -0.159928199573 0.03442202  0.00025317  0.0360704 0.0000
  4   -668.4526562745  -0.030887254496 0.00721991  0.00008076  0.0059129 0.0000
  5   -668.4537489696  -0.001092695062 0.00580423  0.00003942  0.0038616 0.0000
  6   -668.4539754058  -0.000226436246 0.00392824  0.00002138  0.0011439 0.0000
  7   -668.4540242738  -0.000048868007 0.00389427  0.00002147  0.0006813 0.0000
               *** Restarting incremental Fock matrix formation ***
                                   *** Resetting DIIS ***
  8   -668.4540095874   0.000014686401 0.00057995  0.00000674  0.0003446 0.0000
  9   -668.4540134952  -0.000003907756 0.00018101  0.00000204  0.0002520 0.0000
 10   -668.4540151392  -0.000001644021 0.00031626  0.00000293  0.0001383 0.0000
 11   -668.4540161118  -0.000000972584 0.00009361  0.00000096  0.0000814 0.0000
 12   -668.4540162360  -0.000000124278 0.00004404  0.00000040  0.0000463 0.0000
 13   -668.4540162652  -0.000000029151 0.00000924  0.00000008  0.0000077 0.0000
 14   -668.4540162755  -0.000000010341 0.00000664  0.00000005  0.0000036 0.0000
 15   -668.4540162707   0.000000004795 0.00000349  0.00000002  0.0000012 0.0000
                            ***DIIS convergence achieved***

               *****************************************************
               *                     SUCCESS                       *
               *           SCF CONVERGED AFTER  16 CYCLES          *
               *****************************************************

Old exchange energy                            =    -48.247024945 Eh
New exchange energy                            =    -48.247023157 Eh
Exchange energy change after final integration =      0.000001788 Eh
Total energy after final integration           =   -668.454014499 Eh
Final COS-X integration done in                =     4.695 sec

----------------
TOTAL SCF ENERGY
----------------

Total Energy       :         -668.45401450 Eh          -18189.55847 eV

Components:
Nuclear Repulsion  :          915.81205461 Eh           24920.51294 eV
Electronic Energy  :        -1584.26606911 Eh          -43110.07141 eV
One Electron Energy:        -2725.42762754 Eh          -74162.65610 eV
Two Electron Energy:         1141.16155843 Eh           31052.58469 eV
Max COSX asymmetry :            0.00000151 Eh               0.00004 eV

Virial components:
Potential Energy   :        -1333.23942882 Eh          -36279.28926 eV
Kinetic Energy     :          664.78541432 Eh           18089.73079 eV
Virial Ratio       :            2.00551847


DFT components:
N(Alpha)           :       54.999995687037 electrons
N(Beta)            :       53.999999503022 electrons
N(Total)           :      108.999995190058 electrons
E(XC)              :      -45.006947206357 Eh       
DFET-embed. en.    :        0.000000000000 Eh       

---------------
SCF CONVERGENCE
---------------

  Last Energy change         ...   -1.6655e-08  Tolerance :   1.0000e-08
  Last MAX-Density change    ...    0.0000e+00  Tolerance :   1.0000e-07
  Last RMS-Density change    ...    0.0000e+00  Tolerance :   5.0000e-09
  Last DIIS Error            ...    6.4219e-07  Tolerance :   5.0000e-07

             **** THE GBW FILE WAS UPDATED (freq.gbw) ****
             **** DENSITY freq.scfp WAS UPDATED ****
             **** ENERGY FILE WAS UPDATED (freq.en.tmp) ****
----------------------
UHF SPIN CONTAMINATION
----------------------

Warning: in a DFT calculation there is little theoretical justification to 
         calculate <S**2> as in Hartree-Fock theory. We will do it anyways
         but you should keep in mind that the values have only limited relevance

Expectation value of <S**2>     :     0.754501
Ideal value S*(S+1) for S=0.5   :     0.750000
Deviation                       :     0.004501

             **** THE GBW FILE WAS UPDATED (freq.gbw) ****
             **** DENSITY freq.scfp WAS UPDATED ****
----------------
ORBITAL ENERGIES
----------------
                 SPIN UP ORBITALS
  NO   OCC          E(Eh)            E(eV) 
   0   1.0000     -19.607241      -533.5401 
   1   1.0000     -19.584320      -532.9164 
   2   1.0000     -14.788755      -402.4225 
   3   1.0000     -14.767182      -401.8354 
   4   1.0000     -14.750426      -401.3795 
   5   1.0000     -10.657915      -290.0166 
   6   1.0000     -10.641369      -289.5664 
   7   1.0000     -10.593753      -288.2707 
   8   1.0000     -10.579828      -287.8918 
   9   1.0000     -10.553692      -287.1806 
  10   1.0000     -10.543549      -286.9046 
  11   1.0000     -10.538752      -286.7740 
  12   1.0000     -10.535716      -286.6914 
  13   1.0000     -10.533285      -286.6253 
  14   1.0000      -1.170120       -31.8406 
  15   1.0000      -1.146420       -31.1957 
  16   1.0000      -1.042745       -28.3745 
  17   1.0000      -1.028510       -27.9872 
  18   1.0000      -1.008408       -27.4402 
  19   1.0000      -0.903022       -24.5725 
  20   1.0000      -0.860827       -23.4243 
  21   1.0000      -0.823722       -22.4146 
  22   1.0000      -0.806560       -21.9476 
  23   1.0000      -0.757926       -20.6242 
  24   1.0000      -0.702109       -19.1054 
  25   1.0000      -0.681259       -18.5380 
  26   1.0000      -0.668264       -18.1844 
  27   1.0000      -0.646446       -17.5907 
  28   1.0000      -0.617084       -16.7917 
  29   1.0000      -0.582979       -15.8637 
  30   1.0000      -0.561588       -15.2816 
  31   1.0000      -0.548791       -14.9333 
  32   1.0000      -0.546644       -14.8749 
  33   1.0000      -0.541362       -14.7312 
  34   1.0000      -0.528721       -14.3872 
  35   1.0000      -0.523582       -14.2474 
  36   1.0000      -0.517184       -14.0733 
  37   1.0000      -0.499642       -13.5959 
  38   1.0000      -0.485943       -13.2232 
  39   1.0000      -0.474265       -12.9054 
  40   1.0000      -0.468711       -12.7543 
  41   1.0000      -0.465336       -12.6624 
  42   1.0000      -0.453642       -12.3442 
  43   1.0000      -0.449682       -12.2365 
  44   1.0000      -0.434392       -11.8204 
  45   1.0000      -0.428857       -11.6698 
  46   1.0000      -0.410108       -11.1596 
  47   1.0000      -0.401655       -10.9296 
  48   1.0000      -0.393446       -10.7062 
  49   1.0000      -0.384783       -10.4705 
  50   1.0000      -0.346668        -9.4333 
  51   1.0000      -0.336656        -9.1609 
  52   1.0000      -0.325919        -8.8687 
  53   1.0000      -0.314165        -8.5489 
  54   1.0000      -0.204459        -5.5636 
  55   0.0000       0.040849         1.1115 
  56   0.0000       0.050753         1.3810 
  57   0.0000       0.065723         1.7884 
  58   0.0000       0.067410         1.8343 
  59   0.0000       0.070016         1.9052 
  60   0.0000       0.084917         2.3107 
  61   0.0000       0.091487         2.4895 
  62   0.0000       0.098582         2.6825 
  63   0.0000       0.113570         3.0904 
  64   0.0000       0.118318         3.2196 
  65   0.0000       0.127874         3.4796 
  66   0.0000       0.132388         3.6024 
  67   0.0000       0.136735         3.7208 
  68   0.0000       0.146429         3.9845 
  69   0.0000       0.148963         4.0535 
  70   0.0000       0.155186         4.2228 
  71   0.0000       0.162106         4.4111 
  72   0.0000       0.162901         4.4328 
  73   0.0000       0.168591         4.5876 
  74   0.0000       0.172976         4.7069 
  75   0.0000       0.185671         5.0524 
  76   0.0000       0.191759         5.2180 
  77   0.0000       0.198787         5.4093 
  78   0.0000       0.205891         5.6026 
  79   0.0000       0.214838         5.8460 
  80   0.0000       0.220601         6.0029 
  81   0.0000       0.225008         6.1228 
  82   0.0000       0.233598         6.3565 
  83   0.0000       0.244550         6.6545 
  84   0.0000       0.247979         6.7478 
  85   0.0000       0.256385         6.9766 
  86   0.0000       0.261203         7.1077 
  87   0.0000       0.266285         7.2460 
  88   0.0000       0.273221         7.4347 
  89   0.0000       0.278008         7.5650 
  90   0.0000       0.286038         7.7835 
  91   0.0000       0.291988         7.9454 
  92   0.0000       0.305882         8.3235 
  93   0.0000       0.308911         8.4059 
  94   0.0000       0.317268         8.6333 
  95   0.0000       0.328665         8.9434 
  96   0.0000       0.338045         9.1987 
  97   0.0000       0.339890         9.2489 
  98   0.0000       0.350791         9.5455 
  99   0.0000       0.360086         9.7984 
 100   0.0000       0.370489        10.0815 
 101   0.0000       0.379927        10.3383 
 102   0.0000       0.381085        10.3699 
 103   0.0000       0.393635        10.7114 
 104   0.0000       0.401680        10.9303 
 105   0.0000       0.408181        11.1072 
 106   0.0000       0.413271        11.2457 
 107   0.0000       0.421757        11.4766 
 108   0.0000       0.426830        11.6146 
 109   0.0000       0.430560        11.7161 
 110   0.0000       0.439083        11.9481 
 111   0.0000       0.443012        12.0550 
 112   0.0000       0.449709        12.2372 
 113   0.0000       0.451165        12.2768 
 114   0.0000       0.455624        12.3982 
 115   0.0000       0.460159        12.5216 
 116   0.0000       0.467920        12.7327 
 117   0.0000       0.472941        12.8694 
 118   0.0000       0.475886        12.9495 
 119   0.0000       0.482518        13.1300 
 120   0.0000       0.483196        13.1484 
 121   0.0000       0.485289        13.2054 
 122   0.0000       0.494310        13.4508 
 123   0.0000       0.499407        13.5895 
 124   0.0000       0.501380        13.6433 
 125   0.0000       0.509522        13.8648 
 126   0.0000       0.516329        14.0500 
 127   0.0000       0.521469        14.1899 
 128   0.0000       0.523065        14.2333 
 129   0.0000       0.532429        14.4881 
 130   0.0000       0.539827        14.6894 
 131   0.0000       0.546884        14.8815 
 132   0.0000       0.551455        15.0058 
 133   0.0000       0.553607        15.0644 
 134   0.0000       0.568501        15.4697 
 135   0.0000       0.578058        15.7298 
 136   0.0000       0.584573        15.9070 
 137   0.0000       0.586636        15.9632 
 138   0.0000       0.596816        16.2402 
 139   0.0000       0.600563        16.3421 
 140   0.0000       0.611794        16.6478 
 141   0.0000       0.613897        16.7050 
 142   0.0000       0.619894        16.8682 
 143   0.0000       0.622214        16.9313 
 144   0.0000       0.626093        17.0368 
 145   0.0000       0.640874        17.4391 
 146   0.0000       0.648505        17.6467 
 147   0.0000       0.651201        17.7201 
 148   0.0000       0.666283        18.1305 
 149   0.0000       0.679775        18.4976 
 150   0.0000       0.683444        18.5975 
 151   0.0000       0.700038        19.0490 
 152   0.0000       0.719130        19.5685 
 153   0.0000       0.734210        19.9789 
 154   0.0000       0.749883        20.4054 
 155   0.0000       0.762094        20.7376 
 156   0.0000       0.777890        21.1675 
 157   0.0000       0.788216        21.4485 
 158   0.0000       0.798267        21.7220 
 159   0.0000       0.804874        21.9017 
 160   0.0000       0.822576        22.3834 
 161   0.0000       0.834578        22.7100 
 162   0.0000       0.844503        22.9801 
 163   0.0000       0.856123        23.2963 
 164   0.0000       0.867012        23.5926 
 165   0.0000       0.873355        23.7652 
 166   0.0000       0.879996        23.9459 
 167   0.0000       0.898205        24.4414 
 168   0.0000       0.901794        24.5391 
 169   0.0000       0.909951        24.7610 
 170   0.0000       0.919667        25.0254 
 171   0.0000       0.931138        25.3376 
 172   0.0000       0.947144        25.7731 
 173   0.0000       0.965151        26.2631 
 174   0.0000       0.972466        26.4621 
 175   0.0000       0.981167        26.6989 
 176   0.0000       0.999794        27.2058 
 177   0.0000       1.012211        27.5437 
 178   0.0000       1.022800        27.8318 
 179   0.0000       1.029340        28.0098 
 180   0.0000       1.038755        28.2659 
 181   0.0000       1.050907        28.5966 
 182   0.0000       1.060178        28.8489 
 183   0.0000       1.078830        29.3565 
 184   0.0000       1.083295        29.4780 
 185   0.0000       1.099220        29.9113 
 186   0.0000       1.106673        30.1141 
 187   0.0000       1.124517        30.5997 
 188   0.0000       1.132302        30.8115 
 189   0.0000       1.137257        30.9463 
 190   0.0000       1.154494        31.4154 
 191   0.0000       1.166339        31.7377 
 192   0.0000       1.189398        32.3652 
 193   0.0000       1.199184        32.6315 
 194   0.0000       1.211018        32.9535 
 195   0.0000       1.224170        33.3114 
 196   0.0000       1.236603        33.6497 
 197   0.0000       1.243125        33.8272 
 198   0.0000       1.259107        34.2620 
 199   0.0000       1.269766        34.5521 
 200   0.0000       1.308639        35.6099 
 201   0.0000       1.318032        35.8655 
 202   0.0000       1.331242        36.2249 
 203   0.0000       1.338370        36.4189 
 204   0.0000       1.364459        37.1288 
 205   0.0000       1.376114        37.4460 
 206   0.0000       1.378230        37.5035 
 207   0.0000       1.390688        37.8425 
 208   0.0000       1.392945        37.9040 
 209   0.0000       1.405618        38.2488 
 210   0.0000       1.418998        38.6129 
 211   0.0000       1.424901        38.7735 
 212   0.0000       1.442846        39.2618 
 213   0.0000       1.461571        39.7714 
 214   0.0000       1.473957        40.1084 
 215   0.0000       1.478886        40.2425 
 216   0.0000       1.499654        40.8077 
 217   0.0000       1.511917        41.1413 
 218   0.0000       1.526793        41.5462 
 219   0.0000       1.537252        41.8308 
 220   0.0000       1.547063        42.0977 
 221   0.0000       1.552082        42.2343 
 222   0.0000       1.558633        42.4126 
 223   0.0000       1.559814        42.4447 
 224   0.0000       1.561902        42.5015 
 225   0.0000       1.567006        42.6404 
 226   0.0000       1.581895        43.0455 
 227   0.0000       1.584583        43.1187 
 228   0.0000       1.594242        43.3815 
 229   0.0000       1.598074        43.4858 
 230   0.0000       1.603628        43.6369 
 231   0.0000       1.625530        44.2329 
 232   0.0000       1.630440        44.3665 
 233   0.0000       1.642504        44.6948 
 234   0.0000       1.650812        44.9209 
 235   0.0000       1.656974        45.0885 
 236   0.0000       1.674888        45.5760 
 237   0.0000       1.681682        45.7609 
 238   0.0000       1.687459        45.9181 
 239   0.0000       1.694393        46.1068 
 240   0.0000       1.723098        46.8879 
 241   0.0000       1.729401        47.0594 
 242   0.0000       1.735330        47.2207 
 243   0.0000       1.760039        47.8931 
 244   0.0000       1.765927        48.0533 
 245   0.0000       1.775970        48.3266 
 246   0.0000       1.783592        48.5340 
 247   0.0000       1.797260        48.9059 
 248   0.0000       1.822297        49.5872 
 249   0.0000       1.827807        49.7371 
 250   0.0000       1.845400        50.2159 
 251   0.0000       1.853947        50.4485 
 252   0.0000       1.860124        50.6165 
 253   0.0000       1.878009        51.1032 
 254   0.0000       1.895596        51.5818 
 255   0.0000       1.901143        51.7327 
 256   0.0000       1.908450        51.9316 
 257   0.0000       1.916337        52.1462 
 258   0.0000       1.918953        52.2174 
 259   0.0000       1.921200        52.2785 
 260   0.0000       1.946641        52.9708 
 261   0.0000       1.959830        53.3297 
 262   0.0000       1.971416        53.6450 
 263   0.0000       1.973508        53.7019 
 264   0.0000       1.981212        53.9115 
 265   0.0000       1.987824        54.0914 
 266   0.0000       1.997444        54.3532 
 267   0.0000       2.001706        54.4692 
 268   0.0000       2.017406        54.8964 
 269   0.0000       2.033551        55.3357 
 270   0.0000       2.039746        55.5043 
 271   0.0000       2.045938        55.6728 
 272   0.0000       2.056282        55.9543 
 273   0.0000       2.075778        56.4848 
 274   0.0000       2.084373        56.7187 
 275   0.0000       2.093131        56.9570 
 276   0.0000       2.118585        57.6496 
 277   0.0000       2.135151        58.1004 
 278   0.0000       2.155370        58.6506 
 279   0.0000       2.161832        58.8264 
 280   0.0000       2.181479        59.3611 
 281   0.0000       2.193209        59.6803 
 282   0.0000       2.202578        59.9352 
 283   0.0000       2.226872        60.5963 
 284   0.0000       2.231778        60.7298 
 285   0.0000       2.238508        60.9129 
 286   0.0000       2.252480        61.2931 
 287   0.0000       2.268188        61.7205 
 288   0.0000       2.287408        62.2435 
 289   0.0000       2.296103        62.4801 
 290   0.0000       2.302900        62.6651 
 291   0.0000       2.313831        62.9625 
 292   0.0000       2.317241        63.0553 
 293   0.0000       2.326080        63.2958 
 294   0.0000       2.346356        63.8476 
 295   0.0000       2.353326        64.0372 
 296   0.0000       2.355208        64.0885 
 297   0.0000       2.375851        64.6502 
 298   0.0000       2.380939        64.7886 
 299   0.0000       2.387488        64.9669 
 300   0.0000       2.401241        65.3411 
 301   0.0000       2.406961        65.4967 
 302   0.0000       2.413844        65.6840 
 303   0.0000       2.444645        66.5222 
 304   0.0000       2.454919        66.8017 
 305   0.0000       2.465240        67.0826 
 306   0.0000       2.472443        67.2786 
 307   0.0000       2.484318        67.6017 
 308   0.0000       2.508286        68.2539 
 309   0.0000       2.513336        68.3914 
 310   0.0000       2.514296        68.4175 
 311   0.0000       2.530605        68.8613 
 312   0.0000       2.537631        69.0525 
 313   0.0000       2.548629        69.3517 
 314   0.0000       2.554420        69.5093 
 315   0.0000       2.564005        69.7701 
 316   0.0000       2.576157        70.1008 
 317   0.0000       2.580400        70.2163 
 318   0.0000       2.586471        70.3814 
 319   0.0000       2.589174        70.4550 
 320   0.0000       2.613862        71.1268 
 321   0.0000       2.624463        71.4153 
 322   0.0000       2.636807        71.7512 
 323   0.0000       2.643154        71.9239 
 324   0.0000       2.646907        72.0260 
 325   0.0000       2.662913        72.4615 
 326   0.0000       2.664804        72.5130 
 327   0.0000       2.685204        73.0681 
 328   0.0000       2.691713        73.2452 
 329   0.0000       2.708920        73.7135 
 330   0.0000       2.710904        73.7674 
 331   0.0000       2.726279        74.1858 
 332   0.0000       2.741197        74.5918 
 333   0.0000       2.751788        74.8800 
 334   0.0000       2.760421        75.1149 
 335   0.0000       2.766977        75.2933 
 336   0.0000       2.773199        75.4626 
 337   0.0000       2.783848        75.7524 
 338   0.0000       2.794379        76.0389 
 339   0.0000       2.817672        76.6728 
 340   0.0000       2.830166        77.0127 
 341   0.0000       2.845735        77.4364 
 342   0.0000       2.859774        77.8184 
 343   0.0000       2.881077        78.3981 
 344   0.0000       2.888911        78.6113 
 345   0.0000       2.900460        78.9255 
 346   0.0000       2.939103        79.9771 
 347   0.0000       2.940979        80.0281 
 348   0.0000       2.956007        80.4370 
 349   0.0000       2.964028        80.6553 
 350   0.0000       2.988215        81.3135 
 351   0.0000       2.998267        81.5870 
 352   0.0000       3.009881        81.9030 
 353   0.0000       3.011254        81.9404 
 354   0.0000       3.015136        82.0460 
 355   0.0000       3.024040        82.2883 
 356   0.0000       3.032743        82.5251 
 357   0.0000       3.051597        83.0382 
 358   0.0000       3.063796        83.3701 
 359   0.0000       3.066094        83.4327 
 360   0.0000       3.090272        84.0906 
 361   0.0000       3.091955        84.1364 
 362   0.0000       3.105791        84.5129 
 363   0.0000       3.122719        84.9735 
 364   0.0000       3.127523        85.1042 
 365   0.0000       3.145335        85.5889 
 366   0.0000       3.145961        85.6060 
 367   0.0000       3.158723        85.9532 
 368   0.0000       3.167715        86.1979 
 369   0.0000       3.170717        86.2796 
 370   0.0000       3.190401        86.8152 
 371   0.0000       3.196559        86.9828 
 372   0.0000       3.199200        87.0547 
 373   0.0000       3.215274        87.4920 
 374   0.0000       3.226087        87.7863 
 375   0.0000       3.236945        88.0818 
 376   0.0000       3.246956        88.3542 
 377   0.0000       3.253857        88.5420 
 378   0.0000       3.264413        88.8292 
 379   0.0000       3.274361        89.0999 
 380   0.0000       3.284327        89.3711 
 381   0.0000       3.296797        89.7104 
 382   0.0000       3.300096        89.8002 
 383   0.0000       3.308125        90.0187 
 384   0.0000       3.320779        90.3630 
 385   0.0000       3.324195        90.4559 
 386   0.0000       3.339973        90.8853 
 387   0.0000       3.345561        91.0374 
 388   0.0000       3.350109        91.1611 
 389   0.0000       3.359877        91.4269 
 390   0.0000       3.374999        91.8384 
 391   0.0000       3.377530        91.9073 
 392   0.0000       3.389748        92.2397 
 393   0.0000       3.396660        92.4278 
 394   0.0000       3.403477        92.6133 
 395   0.0000       3.409692        92.7824 
 396   0.0000       3.427756        93.2740 
 397   0.0000       3.432903        93.4140 
 398   0.0000       3.448980        93.8515 
 399   0.0000       3.455997        94.0425 
 400   0.0000       3.470564        94.4388 
 401   0.0000       3.478033        94.6421 
 402   0.0000       3.483536        94.7918 
 403   0.0000       3.498660        95.2034 
 404   0.0000       3.507715        95.4498 
 405   0.0000       3.517734        95.7224 
 406   0.0000       3.518903        95.7542 
 407   0.0000       3.544290        96.4450 
 408   0.0000       3.555673        96.7548 
 409   0.0000       3.563804        96.9760 
 410   0.0000       3.580627        97.4338 
 411   0.0000       3.593179        97.7754 
 412   0.0000       3.603542        98.0574 
 413   0.0000       3.631163        98.8090 
 414   0.0000       3.648047        99.2684 
 415   0.0000       3.650077        99.3236 
 416   0.0000       3.708431       100.9115 
 417   0.0000       3.720364       101.2362 
 418   0.0000       3.731865       101.5492 
 419   0.0000       3.759077       102.2897 
 420   0.0000       3.772258       102.6484 
 421   0.0000       3.787246       103.0562 
 422   0.0000       3.802788       103.4791 
 423   0.0000       3.814238       103.7907 
 424   0.0000       3.830953       104.2455 
 425   0.0000       3.842796       104.5678 
 426   0.0000       3.863304       105.1258 
 427   0.0000       3.874121       105.4202 
 428   0.0000       3.876138       105.4751 
 429   0.0000       3.899250       106.1040 
 430   0.0000       3.909580       106.3851 
 431   0.0000       3.938019       107.1589 
 432   0.0000       3.960297       107.7652 
 433   0.0000       3.988637       108.5363 
 434   0.0000       3.997616       108.7807 
 435   0.0000       4.009766       109.1113 
 436   0.0000       4.041561       109.9765 
 437   0.0000       4.048966       110.1780 
 438   0.0000       4.076657       110.9315 
 439   0.0000       4.101598       111.6102 
 440   0.0000       4.124598       112.2360 
 441   0.0000       4.127300       112.3095 
 442   0.0000       4.140191       112.6603 
 443   0.0000       4.166569       113.3781 
 444   0.0000       4.186709       113.9261 
 445   0.0000       4.224341       114.9502 
 446   0.0000       4.257361       115.8487 
 447   0.0000       4.290104       116.7397 
 448   0.0000       4.316869       117.4680 
 449   0.0000       4.326413       117.7277 
 450   0.0000       4.355837       118.5284 
 451   0.0000       4.370598       118.9300 
 452   0.0000       4.380525       119.2001 
 453   0.0000       4.398789       119.6971 
 454   0.0000       4.413510       120.0977 
 455   0.0000       4.428199       120.4974 
 456   0.0000       4.449010       121.0637 
 457   0.0000       4.480668       121.9252 
 458   0.0000       4.496273       122.3498 
 459   0.0000       4.504972       122.5865 
 460   0.0000       4.528522       123.2274 
 461   0.0000       4.543637       123.6386 
 462   0.0000       4.562700       124.1574 
 463   0.0000       4.565917       124.2449 
 464   0.0000       4.618719       125.6817 
 465   0.0000       4.637768       126.2001 
 466   0.0000       4.663699       126.9057 
 467   0.0000       4.687860       127.5632 
 468   0.0000       4.708979       128.1378 
 469   0.0000       4.717704       128.3752 
 470   0.0000       4.743164       129.0681 
 471   0.0000       4.760538       129.5408 
 472   0.0000       4.769304       129.7794 
 473   0.0000       4.789926       130.3405 
 474   0.0000       4.806324       130.7867 
 475   0.0000       4.832634       131.5026 
 476   0.0000       4.873704       132.6202 
 477   0.0000       4.962781       135.0441 
 478   0.0000       4.979042       135.4866 
 479   0.0000       4.997552       135.9903 
 480   0.0000       5.014567       136.4533 
 481   0.0000       5.024407       136.7211 
 482   0.0000       5.029325       136.8549 
 483   0.0000       5.046154       137.3128 
 484   0.0000       5.051837       137.4675 
 485   0.0000       5.096865       138.6928 
 486   0.0000       5.104130       138.8904 
 487   0.0000       5.113362       139.1416 
 488   0.0000       5.177044       140.8745 
 489   0.0000       5.195949       141.3890 
 490   0.0000       5.200160       141.5035 
 491   0.0000       5.224032       142.1531 
 492   0.0000       5.236678       142.4972 
 493   0.0000       5.258208       143.0831 
 494   0.0000       5.267359       143.3321 
 495   0.0000       5.273366       143.4956 
 496   0.0000       5.294955       144.0831 
 497   0.0000       5.307925       144.4360 
 498   0.0000       5.355161       145.7214 
 499   0.0000       5.427959       147.7023 
 500   0.0000       5.443496       148.1251 
 501   0.0000       5.480495       149.1319 
 502   0.0000       5.485842       149.2774 
 503   0.0000       5.533703       150.5797 
 504   0.0000       5.587343       152.0393 
 505   0.0000       5.650595       153.7605 
 506   0.0000       5.674288       154.4052 
 507   0.0000       5.723730       155.7506 
 508   0.0000       5.758697       156.7021 
 509   0.0000       5.773611       157.1079 
 510   0.0000       5.889998       160.2750 
 511   0.0000       5.907556       160.7528 
 512   0.0000       6.087028       165.6364 
 513   0.0000       6.110692       166.2804 
 514   0.0000       6.299469       171.4173 
 515   0.0000       6.304481       171.5536 
 516   0.0000       6.416016       174.5887 
 517   0.0000       6.426779       174.8815 
 518   0.0000       6.549800       178.2291 
 519   0.0000       6.561928       178.5591 
 520   0.0000       6.652580       181.0259 
 521   0.0000       6.662896       181.3066 
 522   0.0000       6.827957       185.7982 
 523   0.0000       6.836080       186.0192 
 524   0.0000       7.048406       191.7969 
 525   0.0000       7.070591       192.4006 
 526   0.0000       7.079998       192.6565 
 527   0.0000       7.102163       193.2597 
 528   0.0000      22.404473       609.6567 
 529   0.0000      22.458001       611.1133 
 530   0.0000      22.473963       611.5476 
 531   0.0000      22.525485       612.9496 
 532   0.0000      22.591934       614.7578 
 533   0.0000      22.638691       616.0301 
 534   0.0000      22.793660       620.2470 
 535   0.0000      23.363709       635.7589 
 536   0.0000      23.379292       636.1829 
 537   0.0000      32.012586       871.1067 
 538   0.0000      32.504117       884.4820 
 539   0.0000      32.688597       889.5019 
 540   0.0000      44.068965      1199.1775 
 541   0.0000      44.105429      1200.1697 

                 SPIN DOWN ORBITALS
  NO   OCC          E(Eh)            E(eV) 
   0   1.0000     -19.607241      -533.5402 
   1   1.0000     -19.584320      -532.9164 
   2   1.0000     -14.788755      -402.4225 
   3   1.0000     -14.767180      -401.8354 
   4   1.0000     -14.747775      -401.3074 
   5   1.0000     -10.657915      -290.0166 
   6   1.0000     -10.641369      -289.5664 
   7   1.0000     -10.593758      -288.2708 
   8   1.0000     -10.579828      -287.8918 
   9   1.0000     -10.546848      -286.9943 
  10   1.0000     -10.543551      -286.9046 
  11   1.0000     -10.538752      -286.7740 
  12   1.0000     -10.536123      -286.7025 
  13   1.0000     -10.533145      -286.6214 
  14   1.0000      -1.170120       -31.8406 
  15   1.0000      -1.146420       -31.1957 
  16   1.0000      -1.042745       -28.3745 
  17   1.0000      -1.028503       -27.9870 
  18   1.0000      -0.994963       -27.0743 
  19   1.0000      -0.902004       -24.5448 
  20   1.0000      -0.858333       -23.3564 
  21   1.0000      -0.823533       -22.4095 
  22   1.0000      -0.803090       -21.8532 
  23   1.0000      -0.753146       -20.4941 
  24   1.0000      -0.697045       -18.9676 
  25   1.0000      -0.681257       -18.5380 
  26   1.0000      -0.655070       -17.8254 
  27   1.0000      -0.645575       -17.5670 
  28   1.0000      -0.617037       -16.7904 
  29   1.0000      -0.577521       -15.7152 
  30   1.0000      -0.560997       -15.2655 
  31   1.0000      -0.548589       -14.9279 
  32   1.0000      -0.545658       -14.8481 
  33   1.0000      -0.540440       -14.7061 
  34   1.0000      -0.525874       -14.3098 
  35   1.0000      -0.521445       -14.1892 
  36   1.0000      -0.509354       -13.8602 
  37   1.0000      -0.498771       -13.5722 
  38   1.0000      -0.482917       -13.1408 
  39   1.0000      -0.470504       -12.8031 
  40   1.0000      -0.468469       -12.7477 
  41   1.0000      -0.463575       -12.6145 
[...]
     62       0.001433  -0.000154  -0.000013   0.004394   0.000002  -0.000015
     63       0.000196   0.025374  -0.000003   0.000017   0.000327  -0.000008
     64      -0.000099  -0.025280  -0.000010  -0.000096  -0.001364   0.000019
     65       0.000322   0.085123   0.000002  -0.000048   0.000149  -0.000007
     66       0.000563   0.203239   0.000037   0.000120   0.000481  -0.000023
     67       0.000683   0.235894   0.000048   0.000312   0.002656  -0.000045
     68      -0.000527  -0.198969  -0.000030  -0.000124  -0.000951   0.000008
     69      -0.001313  -0.164873  -0.000023  -0.000257   0.000868  -0.000004
     70       0.000473   0.042472  -0.000003   0.000165  -0.000216   0.000003
     71       0.000106   0.021285   0.000003   0.000084   0.000323  -0.000000
     72      -0.001357  -0.343204  -0.000001   0.000068  -0.003948   0.000053
     73       0.000142   0.029525  -0.000009  -0.000371  -0.002969   0.000044
     74      -0.003442  -0.840614   0.000022   0.000155  -0.011824   0.000143
     75       0.000469  -0.000387   0.000088  -0.003393   0.000155   0.000000
     76       0.000090   0.000047   0.000006  -0.004326   0.000099  -0.000001
     77      -0.000244   0.000436  -0.000030   0.006314  -0.001162   0.000035
     78      -0.000352   0.000088   0.000072   0.001036   0.001134  -0.000065
     79       0.000452  -0.000141  -0.000061  -0.000910   0.001802  -0.000013
     80      -0.000450   0.000158   0.000032   0.001053  -0.000366   0.000014
     81      -0.000864   0.000138   0.000024  -0.000880   0.000299  -0.000010
     82       0.000152  -0.000187  -0.000080  -0.000819   0.000442  -0.000145
     83       0.000614  -0.000115  -0.000058  -0.000630   0.000428  -0.000063
     84       0.001709   0.000116   0.000277   0.000441  -0.000409   0.000305
     85       0.014783  -0.000770  -0.000453  -0.001248   0.000417  -0.000092
     86       0.005756  -0.000305  -0.000215  -0.000308   0.000389  -0.000034
     87       0.001075   0.000005  -0.000168  -0.000168  -0.000275   0.000156
     88      -0.001066  -0.000030   0.000069  -0.000367   0.000123  -0.000154
     89       0.000667   0.000040  -0.000135   0.001141   0.000083   0.000296
     90      -0.001304  -0.000025   0.000981   0.000078   0.000113  -0.000273
     91      -0.000748   0.000059  -0.000386   0.000012  -0.000210  -0.000238
     92       0.001589  -0.000087  -0.000346   0.000027   0.000240   0.000034
     93      -0.002517  -0.000016  -0.001133  -0.000111   0.000065  -0.001425
     94       0.031874  -0.000285  -0.004015  -0.000237   0.000073  -0.001970
     95       0.011289  -0.000103  -0.000047  -0.000125   0.000061   0.000418


-----------
IR SPECTRUM
-----------

 Mode   freq       eps      Int      T**2         TX        TY        TZ
       cm**-1   L/(mol*cm) km/mol    a.u.
----------------------------------------------------------------------------
  6:     23.73   0.000295    1.49  0.003878  (-0.061647  0.001011  0.008731)
  7:     49.09   0.000283    1.43  0.001802  ( 0.041836 -0.002993 -0.006508)
  8:     62.70   0.000050    0.25  0.000247  ( 0.008663  0.004709 -0.012253)
  9:     78.70   0.001210    6.11  0.004796  (-0.060438 -0.022816  0.024963)
 10:     89.56   0.001943    9.82  0.006771  (-0.076158 -0.029725 -0.009356)
 11:    100.08   0.000325    1.64  0.001015  (-0.004969 -0.025223 -0.018815)
 12:    103.66   0.000710    3.59  0.002138  ( 0.025715  0.035819 -0.013914)
 13:    111.30   0.000546    2.76  0.001531  ( 0.011600 -0.036824 -0.006321)
 14:    130.94   0.000040    0.20  0.000095  ( 0.002103  0.009516  0.000557)
 15:    138.72   0.001056    5.34  0.002376  (-0.037575  0.031037 -0.000918)
 16:    149.20   0.001388    7.02  0.002904  ( 0.034404 -0.039529 -0.012564)
 17:    167.77   0.000652    3.30  0.001213  ( 0.026290  0.020215 -0.010659)
 18:    212.46   0.000287    1.45  0.000422  (-0.012620 -0.012202  0.010663)
 19:    246.22   0.000772    3.90  0.000979  (-0.012070  0.027163 -0.009745)
 20:    300.80   0.000563    2.84  0.000584  (-0.011101  0.021336 -0.002301)
 21:    319.61   0.005104   25.79  0.004983  ( 0.048552 -0.046507 -0.021523)
 22:    333.65   0.001774    8.96  0.001659  (-0.036807  0.017446 -0.000263)
 23:    353.91   0.001137    5.74  0.001002  (-0.020699 -0.000868  0.023941)
 24:    392.01   0.003956   19.99  0.003149  ( 0.001065  0.056086  0.001549)
 25:    428.49   0.007937   40.11  0.005781  ( 0.075304  0.000827  0.010457)
 26:    473.18   0.010705   54.10  0.007060  (-0.074472 -0.025350  0.029513)
 27:    512.06   0.002732   13.80  0.001665  (-0.022058 -0.027393  0.020684)
 28:    547.71   0.014121   71.36  0.008046  ( 0.089547  0.004622 -0.002377)
 29:    575.05   0.007588   38.35  0.004118  (-0.032062 -0.044720  0.033015)
 30:    607.27   0.008567   43.30  0.004403  (-0.023846  0.005759 -0.061651)
 31:    640.38   0.001841    9.30  0.000897  ( 0.021133 -0.020862 -0.003929)
 32:    665.33   0.001234    6.24  0.000579  (-0.022766 -0.006720  0.003921)
 33:    689.74   0.040244  203.38  0.018208  (-0.113049  0.027275 -0.068438)
 34:    699.16   0.000606    3.06  0.000271  (-0.015258  0.000317 -0.006132)
 35:    755.07   0.001272    6.43  0.000526  (-0.013879  0.017868 -0.003710)
 36:    808.19   0.000509    2.57  0.000196  (-0.008421 -0.009466  0.005990)
 37:    864.52   0.000601    3.04  0.000217  (-0.005090 -0.011928 -0.006994)
 38:    892.34   0.000494    2.49  0.000173  (-0.002678 -0.006157  0.011294)
 39:    943.63   0.000951    4.81  0.000315  ( 0.009726 -0.007068  0.013038)
 40:    989.50   0.000841    4.25  0.000265  (-0.010050 -0.006770  0.010882)
 41:   1015.66   0.002334   11.80  0.000717  (-0.013618  0.021435  0.008506)
 42:   1021.31   0.001692    8.55  0.000517  (-0.013714  0.015003 -0.010193)
 43:   1061.75   0.000103    0.52  0.000030  ( 0.001001  0.004652 -0.002745)
 44:   1062.56   0.001508    7.62  0.000443  ( 0.019527  0.007211 -0.003073)
 45:   1074.45   0.000964    4.87  0.000280  (-0.000385 -0.011844  0.011808)
 46:   1083.46   0.000100    0.51  0.000029  (-0.004709  0.002322 -0.001133)
 47:   1105.42   0.000548    2.77  0.000155  (-0.009689 -0.001063 -0.007722)
 48:   1140.73   0.000767    3.88  0.000210  ( 0.001755  0.013910  0.003647)
 49:   1155.12   0.001690    8.54  0.000457  ( 0.000563  0.019836 -0.007921)
 50:   1178.62   0.003654   18.46  0.000967  ( 0.003748 -0.028625  0.011573)
 51:   1199.18   0.001781    9.00  0.000464  (-0.013233  0.016465 -0.004168)
 52:   1227.56   0.002903   14.67  0.000738  ( 0.021292 -0.016682  0.002513)
 53:   1229.26   0.001371    6.93  0.000348  ( 0.013772  0.012291 -0.002722)
 54:   1245.33   0.006482   32.76  0.001624  ( 0.016516  0.036764 -0.000046)
 55:   1272.69   0.006987   35.31  0.001713  ( 0.008237 -0.040492 -0.002414)
 56:   1284.38   0.006612   33.41  0.001606  ( 0.036456 -0.016113  0.004215)
 57:   1301.04   0.000937    4.73  0.000225  ( 0.007415  0.012399 -0.004003)
 58:   1325.97   0.004333   21.89  0.001020  (-0.012809  0.027940  0.008658)
 59:   1334.39   0.000066    0.34  0.000016  ( 0.003676  0.000124  0.001419)
 60:   1369.24   0.002458   12.42  0.000560  (-0.000058  0.023604 -0.001732)
 61:   1386.09   0.000591    2.99  0.000133  (-0.001915 -0.009901 -0.005601)
 62:   1408.75   0.007796   39.40  0.001727  ( 0.021378 -0.034250  0.009842)
 63:   1415.01   0.001213    6.13  0.000267  (-0.014910  0.001738  0.006493)
 64:   1445.37   0.002956   14.94  0.000638  (-0.008287  0.006684 -0.022909)
 65:   1465.74   0.004263   21.54  0.000908  ( 0.028925  0.006268  0.005623)
 66:   1475.08   0.003041   15.37  0.000643  (-0.008671 -0.022929 -0.006510)
 67:   1484.93   0.000444    2.24  0.000093  (-0.008269 -0.004703  0.001676)
 68:   1489.63   0.007978   40.32  0.001671  (-0.008782  0.034691  0.019764)
 69:   1491.83   0.007289   36.84  0.001525  ( 0.018754 -0.033737 -0.005909)
 70:   1498.86   0.007161   36.19  0.001491  (-0.010721 -0.036942  0.003365)
 71:   1505.29   0.001424    7.20  0.000295  (-0.000959  0.005210  0.016343)
 72:   1512.71   0.005218   26.37  0.001076  (-0.016323  0.028175  0.004021)
 73:   1547.45   0.101238  511.62  0.020416  (-0.063645  0.126831 -0.016710)
 74:   1588.60   0.026909  135.99  0.005286  ( 0.004586  0.067128 -0.027545)
 75:   1642.87   0.012745   64.41  0.002421  ( 0.035199  0.034083 -0.004505)
 76:   1775.86   0.086097  435.10  0.015129  (-0.001321  0.024567  0.120516)
 77:   1789.33   0.017735   89.62  0.003093  ( 0.026937 -0.042866  0.023020)
 78:   2971.53   0.007983   40.34  0.000838  ( 0.000591  0.006330 -0.028248)
 79:   3039.98   0.001695    8.57  0.000174  ( 0.001661  0.013015  0.001370)
 80:   3054.54   0.004330   21.88  0.000442  (-0.000978 -0.018283 -0.010351)
 81:   3063.20   0.003659   18.49  0.000373  ( 0.006199  0.001944  0.018182)
 82:   3075.57   0.010522   53.17  0.001068  (-0.006897  0.031633 -0.004411)
 83:   3078.48   0.002399   12.12  0.000243  (-0.004494 -0.009011  0.011907)
 84:   3088.79   0.000582    2.94  0.000059  ( 0.002119 -0.002310  0.007000)
 85:   3106.62   0.001821    9.20  0.000183  (-0.003763  0.010730 -0.007322)
 86:   3129.13   0.003585   18.12  0.000358  ( 0.000057 -0.018325  0.004661)
 87:   3145.43   0.002875   14.53  0.000285  (-0.014416 -0.006675  0.005732)
 88:   3171.38   0.000593    3.00  0.000058  (-0.004607 -0.000546  0.006066)
 89:   3182.05   0.001195    6.04  0.000117  ( 0.000060 -0.005696 -0.009209)
 90:   3190.52   0.003149   15.91  0.000308  (-0.002374 -0.012967 -0.011584)
 91:   3194.07   0.000016    0.08  0.000002  ( 0.000144 -0.000414  0.001183)
 92:   3552.52   0.002418   12.22  0.000212  ( 0.011670  0.008422 -0.002294)
 93:   3617.40   0.020142  101.79  0.001738  (-0.002572  0.028982  0.029851)
 94:   3660.03   0.007789   39.36  0.000664  (-0.004314  0.005633 -0.024773)
 95:   3660.48   0.003810   19.26  0.000325  (-0.009292  0.006572  0.013975)

* The epsilon (eps) is given for a Dirac delta lineshape.
** The dipole moment derivative (T) already includes vibrational overlap.

The first frequency considered to be a vibration is 6
The total number of vibrations considered is 90


--------------------------
THERMOCHEMISTRY AT 298.15K
--------------------------

Temperature         ... 298.15 K
Pressure            ... 1.00 atm
Total Mass          ... 200.26 AMU

Throughout the following assumptions are being made:
  (1) The electronic state is orbitally nondegenerate
      but the spin degeneracy is treated
  (2) There are no thermally accessible electronically excited states
  (3) Hindered rotations indicated by low frequency modes are not
      treated as such but are treated as vibrations and this may
      cause some error
  (4) All equations used are the standard statistical mechanics
      equations for an ideal gas
  (5) All vibrations are strictly harmonic

freq.      23.73  E(vib)   ...       0.56 
freq.      49.09  E(vib)   ...       0.53 
freq.      62.70  E(vib)   ...       0.51 
freq.      78.70  E(vib)   ...       0.49 
freq.      89.56  E(vib)   ...       0.47 
freq.     100.08  E(vib)   ...       0.46 
freq.     103.66  E(vib)   ...       0.46 
freq.     111.30  E(vib)   ...       0.45 
freq.     130.94  E(vib)   ...       0.42 
freq.     138.72  E(vib)   ...       0.42 
freq.     149.20  E(vib)   ...       0.40 
freq.     167.77  E(vib)   ...       0.38 
freq.     212.46  E(vib)   ...       0.34 
freq.     246.22  E(vib)   ...       0.31 
freq.     300.80  E(vib)   ...       0.26 
freq.     319.61  E(vib)   ...       0.25 
freq.     333.65  E(vib)   ...       0.24 
freq.     353.91  E(vib)   ...       0.22 
freq.     392.01  E(vib)   ...       0.20 
freq.     428.49  E(vib)   ...       0.18 
freq.     473.18  E(vib)   ...       0.15 
freq.     512.06  E(vib)   ...       0.14 
freq.     547.71  E(vib)   ...       0.12 
freq.     575.05  E(vib)   ...       0.11 
freq.     607.27  E(vib)   ...       0.10 
freq.     640.38  E(vib)   ...       0.09 
freq.     665.33  E(vib)   ...       0.08 
freq.     689.74  E(vib)   ...       0.07 
freq.     699.16  E(vib)   ...       0.07 
freq.     755.07  E(vib)   ...       0.06 
freq.     808.19  E(vib)   ...       0.05 
freq.     864.52  E(vib)   ...       0.04 
freq.     892.34  E(vib)   ...       0.03 
freq.     943.63  E(vib)   ...       0.03 
freq.     989.50  E(vib)   ...       0.02 
freq.    1015.66  E(vib)   ...       0.02 
freq.    1021.31  E(vib)   ...       0.02 
freq.    1061.75  E(vib)   ...       0.02 
freq.    1062.56  E(vib)   ...       0.02 
freq.    1074.45  E(vib)   ...       0.02 
freq.    1083.46  E(vib)   ...       0.02 
freq.    1105.42  E(vib)   ...       0.02 
freq.    1140.73  E(vib)   ...       0.01 
freq.    1155.12  E(vib)   ...       0.01 
freq.    1178.62  E(vib)   ...       0.01 
freq.    1199.18  E(vib)   ...       0.01 
freq.    1227.56  E(vib)   ...       0.01 
freq.    1229.26  E(vib)   ...       0.01 
freq.    1245.33  E(vib)   ...       0.01 
freq.    1272.69  E(vib)   ...       0.01 
freq.    1284.38  E(vib)   ...       0.01 
freq.    1301.04  E(vib)   ...       0.01 
freq.    1325.97  E(vib)   ...       0.01 
freq.    1334.39  E(vib)   ...       0.01 
freq.    1369.24  E(vib)   ...       0.01 
freq.    1386.09  E(vib)   ...       0.00 
freq.    1408.75  E(vib)   ...       0.00 
freq.    1415.01  E(vib)   ...       0.00 
freq.    1445.37  E(vib)   ...       0.00 
freq.    1465.74  E(vib)   ...       0.00 
freq.    1475.08  E(vib)   ...       0.00 
freq.    1484.93  E(vib)   ...       0.00 
freq.    1489.63  E(vib)   ...       0.00 
freq.    1491.83  E(vib)   ...       0.00 
freq.    1498.86  E(vib)   ...       0.00 
freq.    1505.29  E(vib)   ...       0.00 
freq.    1512.71  E(vib)   ...       0.00 
freq.    1547.45  E(vib)   ...       0.00 
freq.    1588.60  E(vib)   ...       0.00 
freq.    1642.87  E(vib)   ...       0.00 
freq.    1775.86  E(vib)   ...       0.00 
freq.    1789.33  E(vib)   ...       0.00 
freq.    2971.53  E(vib)   ...       0.00 
freq.    3039.98  E(vib)   ...       0.00 
freq.    3054.54  E(vib)   ...       0.00 
freq.    3063.20  E(vib)   ...       0.00 
freq.    3075.57  E(vib)   ...       0.00 
freq.    3078.48  E(vib)   ...       0.00 
freq.    3088.79  E(vib)   ...       0.00 
freq.    3106.62  E(vib)   ...       0.00 
freq.    3129.13  E(vib)   ...       0.00 
freq.    3145.43  E(vib)   ...       0.00 
freq.    3171.38  E(vib)   ...       0.00 
freq.    3182.05  E(vib)   ...       0.00 
freq.    3190.52  E(vib)   ...       0.00 
freq.    3194.07  E(vib)   ...       0.00 
freq.    3552.52  E(vib)   ...       0.00 
freq.    3617.40  E(vib)   ...       0.00 
freq.    3660.03  E(vib)   ...       0.00 
freq.    3660.48  E(vib)   ...       0.00 

------------
INNER ENERGY
------------

The inner energy is: U= E(el) + E(ZPE) + E(vib) + E(rot) + E(trans)
    E(el)   - is the total energy from the electronic structure calculation
              = E(kin-el) + E(nuc-el) + E(el-el) + E(nuc-nuc)
    E(ZPE)  - the the zero temperature vibrational energy from the frequency calculation
    E(vib)  - the the finite temperature correction to E(ZPE) due to population
              of excited vibrational states
    E(rot)  - is the rotational thermal energy
    E(trans)- is the translational thermal energy

Summary of contributions to the inner energy U:
Electronic energy                ...   -668.45733400 Eh
Zero point energy                ...      0.27804807 Eh     174.48 kcal/mol
Thermal vibrational correction   ...      0.01434556 Eh       9.00 kcal/mol
Thermal rotational correction    ...      0.00141627 Eh       0.89 kcal/mol
Thermal translational correction ...      0.00141627 Eh       0.89 kcal/mol
-----------------------------------------------------------------------
Total thermal energy                   -668.16210782 Eh


Summary of corrections to the electronic energy:
(perhaps to be used in another calculation)
Total thermal correction                  0.01717811 Eh      10.78 kcal/mol
Non-thermal (ZPE) correction              0.27804807 Eh     174.48 kcal/mol
-----------------------------------------------------------------------
Total correction                          0.29522617 Eh     185.26 kcal/mol


--------
ENTHALPY
--------

The enthalpy is H = U + kB*T
                kB is Boltzmann's constant
Total free energy                 ...   -668.16210782 Eh 
Thermal Enthalpy correction       ...      0.00094421 Eh       0.59 kcal/mol
-----------------------------------------------------------------------
Total Enthalpy                    ...   -668.16116362 Eh


Note: Only C1 symmetry has been detected, increase convergence thresholds 
      if your molecule has a higher symmetry. Symmetry factor of 1.0 is   
      used for the rotational entropy correction. 
 

Note: Rotational entropy computed according to Herzberg 
Infrared and Raman Spectra, Chapter V,1, Van Nostrand Reinhold, 1945 
Point Group:  C1, Symmetry Number:   1  
Rotational constants in cm-1:     0.020201     0.013819     0.009329 

Vibrational entropy computed according to the QRRHO of S. Grimme
Chem.Eur.J. 2012 18 9955


-------
ENTROPY
-------

The entropy contributions are T*S = T*(S(el)+S(vib)+S(rot)+S(trans))
     S(el)   - electronic entropy
     S(vib)  - vibrational entropy
     S(rot)  - rotational entropy
     S(trans)- translational entropy
The entropies will be listed as multiplied by the temperature to get
units of energy

Electronic entropy                ...      0.00065446 Eh      0.41 kcal/mol
Vibrational entropy               ...      0.02617371 Eh     16.42 kcal/mol
Rotational entropy                ...      0.01558114 Eh      9.78 kcal/mol
Translational entropy             ...      0.01985478 Eh     12.46 kcal/mol
-----------------------------------------------------------------------
Final entropy term                ...      0.06226409 Eh     39.07 kcal/mol

In case the symmetry of your molecule has not been determined correctly
or in case you have a reason to use a different symmetry number we print 
out the resulting rotational entropy values for sn=1,12 :
 --------------------------------------------------------
|  sn= 1 | S(rot)=       0.01558114 Eh      9.78 kcal/mol|
|  sn= 2 | S(rot)=       0.01492669 Eh      9.37 kcal/mol|
|  sn= 3 | S(rot)=       0.01454385 Eh      9.13 kcal/mol|
|  sn= 4 | S(rot)=       0.01427223 Eh      8.96 kcal/mol|
|  sn= 5 | S(rot)=       0.01406154 Eh      8.82 kcal/mol|
|  sn= 6 | S(rot)=       0.01388940 Eh      8.72 kcal/mol|
|  sn= 7 | S(rot)=       0.01374385 Eh      8.62 kcal/mol|
|  sn= 8 | S(rot)=       0.01361777 Eh      8.55 kcal/mol|
|  sn= 9 | S(rot)=       0.01350657 Eh      8.48 kcal/mol|
|  sn=10 | S(rot)=       0.01340709 Eh      8.41 kcal/mol|
|  sn=11 | S(rot)=       0.01331710 Eh      8.36 kcal/mol|
|  sn=12 | S(rot)=       0.01323494 Eh      8.31 kcal/mol|
 --------------------------------------------------------


-------------------
GIBBS FREE ENERGY
-------------------

The Gibbs free energy is G = H - T*S

Total enthalpy                    ...   -668.16116362 Eh 
Total entropy correction          ...     -0.06226409 Eh    -39.07 kcal/mol
-----------------------------------------------------------------------
Final Gibbs free energy         ...   -668.22342770 Eh

For completeness - the Gibbs free energy minus the electronic energy
G-E(el)                           ...      0.23390630 Eh    146.78 kcal/mol


Timings for individual modules:

Sum of individual times         ...     1722.576 sec (=  28.710 min)
GTO integral calculation        ...       48.090 sec (=   0.801 min)   2.8 %
SCF iterations                  ...      704.777 sec (=  11.746 min)  40.9 %
SCF Gradient evaluation         ...      207.252 sec (=   3.454 min)  12.0 %
Geometry relaxation             ...        0.745 sec (=   0.012 min)   0.0 %
Analytical frequency calculation...      761.712 sec (=  12.695 min)  44.2 %
                             ****ORCA TERMINATED NORMALLY****
TOTAL RUN TIME: 0 days 0 hours 29 minutes 23 seconds 842 msec
