
                                 *****************
                                 * O   R   C   A *
                                 *****************

                                            #,                                       
                                            ###                                      
                                            ####                                     
                                            #####                                    
                                            ######                                   
                                           ########,                                 
                                     ,,################,,,,,                         
                               ,,#################################,,                 
                          ,,##########################################,,             
                       ,#########################################, ''#####,          
                    ,#############################################,,   '####,        
                  ,##################################################,,,,####,       
                ,###########''''           ''''###############################       
              ,#####''   ,,,,##########,,,,          '''####'''          '####       
            ,##' ,,,,###########################,,,                        '##       
           ' ,,###''''                  '''############,,,                           
         ,,##''                                '''############,,,,        ,,,,,,###''
      ,#''                                            '''#######################'''  
     '                                                          ''''####''''         
             ,#######,   #######,   ,#######,      ##                                
            ,#'     '#,  ##    ##  ,#'     '#,    #''#        ######   ,####,        
            ##       ##  ##   ,#'  ##            #'  '#       #        #'  '#        
            ##       ##  #######   ##           ,######,      #####,   #    #        
            '#,     ,#'  ##    ##  '#,     ,#' ,#      #,         ##   #,  ,#        
             '#######'   ##     ##  '#######'  #'      '#     #####' # '####'        



                  #######################################################
                  #                        -***-                        #
                  #          Department of theory and spectroscopy      #
                  #    Directorship and core code : Frank Neese         #
                  #        Max Planck Institute fuer Kohlenforschung    #
                  #                Kaiser Wilhelm Platz 1               #
                  #                 D-45470 Muelheim/Ruhr               #
                  #                      Germany                        #
                  #                                                     #
                  #                  All rights reserved                #
                  #                        -***-                        #
                  #######################################################


                         Program Version 5.0.4 -  RELEASE  -


 With contributions from (in alphabetic order):
   Daniel Aravena         : Magnetic Suceptibility
   Michael Atanasov       : Ab Initio Ligand Field Theory (pilot matlab implementation)
   Alexander A. Auer      : GIAO ZORA, VPT2 properties, NMR spectrum
   Ute Becker             : Parallelization
   Giovanni Bistoni       : ED, misc. LED, open-shell LED, HFLD
   Martin Brehm           : Molecular dynamics
   Dmytro Bykov           : SCF Hessian
   Vijay G. Chilkuri      : MRCI spin determinant printing, contributions to CSF-ICE
   Dipayan Datta          : RHF DLPNO-CCSD density
   Achintya Kumar Dutta   : EOM-CC, STEOM-CC
   Dmitry Ganyushin       : Spin-Orbit,Spin-Spin,Magnetic field MRCI
   Miquel Garcia          : C-PCM and meta-GGA Hessian, CC/C-PCM, Gaussian charge scheme
   Yang Guo               : DLPNO-NEVPT2, F12-NEVPT2, CIM, IAO-localization
   Andreas Hansen         : Spin unrestricted coupled pair/coupled cluster methods
   Benjamin Helmich-Paris : MC-RPA, TRAH-SCF, COSX integrals
   Lee Huntington         : MR-EOM, pCC
   Robert Izsak           : Overlap fitted RIJCOSX, COSX-SCS-MP3, EOM
   Marcus Kettner         : VPT2
   Christian Kollmar      : KDIIS, OOCD, Brueckner-CCSD(T), CCSD density, CASPT2, CASPT2-K
   Simone Kossmann        : Meta GGA functionals, TD-DFT gradient, OOMP2, MP2 Hessian
   Martin Krupicka        : Initial AUTO-CI
   Lucas Lang             : DCDCAS
   Marvin Lechner         : AUTO-CI (C++ implementation), FIC-MRCC
   Dagmar Lenk            : GEPOL surface, SMD
   Dimitrios Liakos       : Extrapolation schemes; Compound Job, initial MDCI parallelization
   Dimitrios Manganas     : Further ROCIS development; embedding schemes
   Dimitrios Pantazis     : SARC Basis sets
   Anastasios Papadopoulos: AUTO-CI, single reference methods and gradients
   Taras Petrenko         : DFT Hessian,TD-DFT gradient, ASA, ECA, R-Raman, ABS, FL, XAS/XES, NRVS
   Peter Pinski           : DLPNO-MP2, DLPNO-MP2 Gradient
   Christoph Reimann      : Effective Core Potentials
   Marius Retegan         : Local ZFS, SOC
   Christoph Riplinger    : Optimizer, TS searches, QM/MM, DLPNO-CCSD(T), (RO)-DLPNO pert. Triples
   Tobias Risthaus        : Range-separated hybrids, TD-DFT gradient, RPA, STAB
   Michael Roemelt        : Original ROCIS implementation
   Masaaki Saitow         : Open-shell DLPNO-CCSD energy and density
   Barbara Sandhoefer     : DKH picture change effects
   Avijit Sen             : IP-ROCIS
   Kantharuban Sivalingam : CASSCF convergence, NEVPT2, FIC-MRCI
   Bernardo de Souza      : ESD, SOC TD-DFT
   Georgi Stoychev        : AutoAux, RI-MP2 NMR, DLPNO-MP2 response
   Willem Van den Heuvel  : Paramagnetic NMR
   Boris Wezisla          : Elementary symmetry handling
   Frank Wennmohs         : Technical directorship


 We gratefully acknowledge several colleagues who have allowed us to
 interface, adapt or use parts of their codes:
   Stefan Grimme, W. Hujo, H. Kruse, P. Pracht,  : VdW corrections, initial TS optimization,
                  C. Bannwarth, S. Ehlert          DFT functionals, gCP, sTDA/sTD-DF
   Ed Valeev, F. Pavosevic, A. Kumar             : LibInt (2-el integral package), F12 methods
   Garnet Chan, S. Sharma, J. Yang, R. Olivares  : DMRG
   Ulf Ekstrom                                   : XCFun DFT Library
   Mihaly Kallay                                 : mrcc  (arbitrary order and MRCC methods)
   Jiri Pittner, Ondrej Demel                    : Mk-CCSD
   Frank Weinhold                                : gennbo (NPA and NBO analysis)
   Christopher J. Cramer and Donald G. Truhlar   : smd solvation model
   Lars Goerigk                                  : TD-DFT with DH, B97 family of functionals
   V. Asgeirsson, H. Jonsson                     : NEB implementation
   FAccTs GmbH                                   : IRC, NEB, NEB-TS, DLPNO-Multilevel, CI-OPT
                                                   MM, QMMM, 2- and 3-layer-ONIOM, Crystal-QMMM,
                                                   LR-CPCM, SF, NACMEs, symmetry and pop. for TD-DFT,
                                                   nearIR, NL-DFT gradient (VV10), updates on ESD,
                                                   ML-optimized integration grids
   S Lehtola, MJT Oliveira, MAL Marques          : LibXC Library
   Liviu Ungur et al                             : ANISO software


 Your calculation uses the libint2 library for the computation of 2-el integrals
 For citations please refer to: http://libint.valeyev.net

 Your ORCA version has been built with support for libXC version: 5.1.0
 For citations please refer to: https://tddft.org/programs/libxc/

 This ORCA versions uses:
   CBLAS   interface :  Fast vector & matrix operations
   LAPACKE interface :  Fast linear algebra routines
   SCALAPACK package :  Parallel linear algebra routines
   Shared memory     :  Shared parallel matrices
   BLAS/LAPACK       :  OpenBLAS 0.3.15  USE64BITINT DYNAMIC_ARCH NO_AFFINITY Zen SINGLE_THREADED
        Core in use  :  Zen
   Copyright (c) 2011-2014, The OpenBLAS Project




***************************************
The coordinates will be read from file: model.xyz
***************************************


================================================================================

----- Orbital basis set information -----
Your calculation utilizes the basis: EPR-II
   V. Barone, in Recent Advances in Density Functional Methods, Part 1 (ed. D. P. Chong), World Scientific, Singapore, 1995, p. 287.

----- AuxJ basis set information -----
Your calculation utilizes the auxiliary basis: def2/J
   F. Weigend, Phys. Chem. Chem. Phys. 8, 1057 (2006).

================================================================================
                                        WARNINGS
                       Please study these warnings very carefully!
================================================================================


WARNING: your system is open-shell and RHF/RKS was chosen
  ===> : WILL SWITCH to UHF/UKS


WARNING: Geometry Optimization
  ===> : Switching off AutoStart
         For restart on a previous wavefunction, please use MOREAD

INFO   : the flag for use of the SHARK integral package has been found!

================================================================================
                                       INPUT FILE
================================================================================
NAME = opt.inp
|  1> ! B3LYP EPR-II OPT
|  2> %pal nprocs 16 end
|  3> *XYZFile 0 2 model.xyz
|  4> 
|  5>                          ****END OF INPUT****
================================================================================

                       *****************************
                       * Geometry Optimization Run *
                       *****************************

Geometry optimization settings:
Update method            Update   .... BFGS
Choice of coordinates    CoordSys .... Z-matrix Internals
Initial Hessian          InHess   .... Almoef's Model

Convergence Tolerances:
Energy Change            TolE     ....  5.0000e-06 Eh
Max. Gradient            TolMAXG  ....  3.0000e-04 Eh/bohr
RMS Gradient             TolRMSG  ....  1.0000e-04 Eh/bohr
Max. Displacement        TolMAXD  ....  4.0000e-03 bohr
RMS Displacement         TolRMSD  ....  2.0000e-03 bohr
Strict Convergence                ....  False
------------------------------------------------------------------------------
                        ORCA OPTIMIZATION COORDINATE SETUP
------------------------------------------------------------------------------

The optimization will be done in new redundant internal coordinates
Making redundant internal coordinates   ...  (new redundants) done
Evaluating the initial hessian          ...  (Almloef) done
Evaluating the coordinates              ...  done
Calculating the B-matrix                .... done
Calculating the G-matrix                .... done
Diagonalizing the G-matrix              .... done
Small eigenvalue found = 6.084e-03
Small eigenvalue found = 7.093e-03
Small eigenvalue found = 9.833e-03
Small eigenvalue found = 2.381e-02
Small eigenvalue found = 2.882e-02
The first mode is                       ....   64
The number of degrees of freedom        ....   90

    -----------------------------------------------------------------
                    Redundant Internal Coordinates


    -----------------------------------------------------------------
         Definition                    Initial Value    Approx d2E/dq
    -----------------------------------------------------------------
      1. B(C   1,N   0)                  1.4433         0.460040   
      2. B(C   2,C   1)                  1.5386         0.361970   
      3. B(O   3,C   2)                  1.2171         1.056304   
      4. B(C   4,C   1)                  1.5508         0.346105   
      5. B(C   5,C   4)                  1.5355         0.366062   
      6. B(C   6,C   5)                  1.5383         0.362360   
      7. B(C   7,C   6)                  1.4986         0.419298   
      8. B(N   8,C   7)                  1.3908         0.558012   
      9. B(H   9,C   7)                  1.0873         0.363648   
     10. B(H  10,N   8)                  1.0089         0.434528   
     11. B(H  11,N   8)                  1.0117         0.430067   
     12. B(H  12,N   0)                  1.0110         0.431165   
     13. B(C  13,N   0)                  1.3562         0.633558   
     14. B(N  14,C   2)                  1.3516         0.644408   
     15. B(H  15,N  14)                  1.0075         0.436663   
     16. B(O  16,C  13)                  1.2173         1.055518   
     17. B(C  17,C  13)                  1.5227         0.383673   
     18. B(H  18,C  17)                  1.0949         0.353685   
     19. B(H  19,C  17)                  1.0970         0.351002   
     20. B(H  20,C  17)                  1.0950         0.353525   
     21. B(C  21,N  14)                  1.4507         0.447779   
     22. B(H  22,C  21)                  1.0984         0.349159   
     23. B(H  23,C  21)                  1.0943         0.354476   
     24. B(H  24,C  21)                  1.0948         0.353831   
     25. B(H  25,C   1)                  1.0988         0.348614   
     26. B(H  26,C   4)                  1.1001         0.346956   
     27. B(H  27,C   4)                  1.0985         0.348989   
     28. B(H  28,C   5)                  1.0993         0.347955   
     29. B(H  29,C   5)                  1.0994         0.347875   
     30. B(H  30,C   6)                  1.1041         0.341970   
     31. B(H  31,C   6)                  1.1094         0.335323   
     32. A(H  12,N   0,C  13)          121.5991         0.359773   
     33. A(C   1,N   0,H  12)          115.9080         0.340853   
     34. A(C   1,N   0,C  13)          121.7892         0.407801   
     35. A(C   2,C   1,H  25)          109.4027         0.320936   
     36. A(C   2,C   1,C   4)          111.4703         0.356730   
     37. A(N   0,C   1,C   2)          107.3736         0.372193   
     38. A(C   4,C   1,H  25)          107.9963         0.318595   
     39. A(N   0,C   1,H  25)          108.2342         0.331855   
     40. A(N   0,C   1,C   4)          112.2944         0.369334   
     41. A(C   1,C   2,O   3)          122.1171         0.430813   
     42. A(O   3,C   2,N  14)          122.6306         0.475273   
     43. A(C   1,C   2,N  14)          115.2289         0.394640   
     44. A(C   1,C   4,H  27)          106.4242         0.318651   
     45. A(C   1,C   4,C   5)          113.8077         0.357412   
     46. A(C   5,C   4,H  26)          109.8769         0.321276   
     47. A(C   1,C   4,H  26)          108.9165         0.318347   
     48. A(C   5,C   4,H  27)          110.5592         0.321583   
     49. A(H  26,C   4,H  27)          106.9839         0.287733   
     50. A(C   6,C   5,H  29)          109.3059         0.320881   
     51. A(C   4,C   5,H  29)          109.2576         0.321415   
     52. A(C   6,C   5,H  28)          108.8806         0.320893   
     53. A(C   4,C   5,C   6)          112.2418         0.360215   
     54. A(C   4,C   5,H  28)          110.1843         0.321427   
     55. A(H  28,C   5,H  29)          106.8187         0.287719   
     56. A(C   5,C   6,C   7)          112.2676         0.368680   
     57. A(C   5,C   6,H  30)          109.1876         0.319984   
     58. A(C   7,C   6,H  30)          109.5373         0.327742   
     59. A(C   7,C   6,H  31)          111.2176         0.326683   
     60. A(C   5,C   6,H  31)          108.6302         0.318960   
     61. A(H  30,C   6,H  31)          105.7772         0.285300   
     62. A(N   8,C   7,H   9)          117.7556         0.345139   
     63. A(C   6,C   7,H   9)          120.9009         0.331086   
     64. A(C   6,C   7,N   8)          118.6568         0.394852   
     65. A(H  10,N   8,H  11)          112.9899         0.303164   
     66. A(C   7,N   8,H  11)          117.5601         0.351951   
     67. A(C   7,N   8,H  10)          117.3472         0.352565   
     68. A(O  16,C  13,C  17)          121.9767         0.435289   
     69. A(N   0,C  13,C  17)          115.7798         0.397507   
     70. A(N   0,C  13,O  16)          122.2419         0.473727   
     71. A(H  15,N  14,C  21)          119.1853         0.340037   
     72. A(C   2,N  14,C  21)          121.6616         0.407078   
     73. A(C   2,N  14,H  15)          118.9507         0.361596   
     74. A(H  19,C  17,H  20)          109.2443         0.288838   
     75. A(H  18,C  17,H  20)          109.8298         0.289183   
     76. A(C  13,C  17,H  20)          113.1008         0.324758   
     77. A(H  18,C  17,H  19)          107.7309         0.288859   
     78. A(C  13,C  17,H  19)          108.2665         0.324377   
     79. A(C  13,C  17,H  18)          108.5180         0.324783   
     80. A(N  14,C  21,H  22)          111.4706         0.330460   
     81. A(H  23,C  21,H  24)          109.4937         0.289324   
     82. A(H  22,C  21,H  24)          108.2401         0.288640   
     83. A(N  14,C  21,H  24)          109.2254         0.331187   
     84. A(H  22,C  21,H  23)          109.2952         0.288722   
     85. A(N  14,C  21,H  23)          109.0915         0.331287   
     86. D(H  25,C   1,N   0,H  12)    131.4302         0.018066   
     87. D(C   4,C   1,N   0,C  13)     80.0217         0.018066   
     88. D(H  25,C   1,N   0,C  13)    -39.0989         0.018066   
     89. D(C   2,C   1,N   0,C  13)   -157.1049         0.018066   
     90. D(C   4,C   1,N   0,H  12)   -109.4492         0.018066   
     91. D(C   2,C   1,N   0,H  12)     13.4242         0.018066   
     92. D(N  14,C   2,C   1,C   4)    -68.2734         0.009844   
     93. D(N  14,C   2,C   1,N   0)    168.3460         0.009844   
     94. D(O   3,C   2,C   1,N   0)    -13.3665         0.009844   
     95. D(N  14,C   2,C   1,H  25)     51.1009         0.009844   
     96. D(O   3,C   2,C   1,C   4)    110.0141         0.009844   
     97. D(O   3,C   2,C   1,H  25)   -130.6117         0.009844   
     98. D(C   5,C   4,C   1,C   2)    -53.5613         0.009669   
     99. D(C   5,C   4,C   1,N   0)     66.9731         0.009669   
    100. D(H  27,C   4,C   1,C   2)   -175.5820         0.009669   
    101. D(C   5,C   4,C   1,H  25)   -173.7670         0.009669   
    102. D(H  26,C   4,C   1,H  25)    -50.8077         0.009669   
    103. D(H  26,C   4,C   1,C   2)     69.3981         0.009669   
    104. D(H  26,C   4,C   1,N   0)   -170.0676         0.009669   
    105. D(H  27,C   4,C   1,H  25)     64.2123         0.009669   
    106. D(H  27,C   4,C   1,N   0)    -55.0476         0.009669   
    107. D(H  29,C   5,C   4,H  27)     66.1276         0.010726   
    108. D(H  29,C   5,C   4,H  26)   -176.0109         0.010726   
    109. D(H  29,C   5,C   4,C   1)    -53.5784         0.010726   
    110. D(H  28,C   5,C   4,H  27)   -176.8087         0.010726   
    111. D(H  28,C   5,C   4,H  26)    -58.9472         0.010726   
    112. D(H  28,C   5,C   4,C   1)     63.4853         0.010726   
    113. D(C   6,C   5,C   4,H  27)    -55.2872         0.010726   
    114. D(C   6,C   5,C   4,H  26)     62.5743         0.010726   
    115. D(C   6,C   5,C   4,C   1)   -174.9932         0.010726   
    116. D(C   7,C   6,C   5,C   4)   -179.3248         0.010525   
    117. D(H  31,C   6,C   5,H  28)    179.5220         0.010525   
    118. D(H  31,C   6,C   5,C   4)     57.2572         0.010525   
    119. D(H  30,C   6,C   5,H  29)   -179.0356         0.010525   
    120. D(H  30,C   6,C   5,H  28)     64.6162         0.010525   
    121. D(H  30,C   6,C   5,C   4)    -57.6486         0.010525   
    122. D(C   7,C   6,C   5,H  29)     59.2881         0.010525   
    123. D(H  31,C   6,C   5,H  29)    -64.1298         0.010525   
    124. D(C   7,C   6,C   5,H  28)    -57.0600         0.010525   
    125. D(H   9,C   7,C   6,H  31)     95.7378         0.013002   
    126. D(H   9,C   7,C   6,H  30)   -147.6947         0.013002   
    127. D(H   9,C   7,C   6,C   5)    -26.2185         0.013002   
    128. D(N   8,C   7,C   6,H  31)    -65.2743         0.013002   
    129. D(N   8,C   7,C   6,H  30)     51.2932         0.013002   
    130. D(N   8,C   7,C   6,C   5)    172.7694         0.013002   
    131. D(H  11,N   8,C   7,H   9)   -143.3878         0.024857   
    132. D(H  11,N   8,C   7,C   6)     18.2222         0.024857   
    133. D(H  10,N   8,C   7,H   9)     -3.3996         0.024857   
    134. D(H  10,N   8,C   7,C   6)    158.2104         0.024857   
    135. D(C  17,C  13,N   0,H  12)      5.3485         0.032616   
    136. D(C  17,C  13,N   0,C   1)    175.3413         0.032616   
    137. D(O  16,C  13,N   0,H  12)   -174.1975         0.032616   
    138. D(O  16,C  13,N   0,C   1)     -4.2048         0.032616   
    139. D(C  21,N  14,C   2,O   3)      0.9689         0.033839   
    140. D(C  21,N  14,C   2,C   1)    179.2465         0.033839   
    141. D(H  15,N  14,C   2,O   3)    175.7561         0.033839   
    142. D(H  15,N  14,C   2,C   1)     -5.9662         0.033839   
    143. D(H  20,C  17,C  13,N   0)      9.7890         0.010972   
    144. D(H  19,C  17,C  13,O  16)     68.1292         0.010972   
    145. D(H  19,C  17,C  13,N   0)   -111.4182         0.010972   
    146. D(H  18,C  17,C  13,O  16)    -48.5359         0.010972   
    147. D(H  20,C  17,C  13,O  16)   -170.6636         0.010972   
    148. D(H  18,C  17,C  13,N   0)    131.9168         0.010972   
    149. D(H  24,C  21,N  14,H  15)    142.1934         0.017103   
    150. D(H  24,C  21,N  14,C   2)    -43.0313         0.017103   
    151. D(H  23,C  21,N  14,H  15)     22.5444         0.017103   
    152. D(H  23,C  21,N  14,C   2)   -162.6803         0.017103   
    153. D(H  22,C  21,N  14,H  15)    -98.2444         0.017103   
    154. D(H  22,C  21,N  14,C   2)     76.5309         0.017103   
    -----------------------------------------------------------------

Number of atoms                         .... 32
Number of degrees of freedom            .... 154

         *************************************************************
         *                GEOMETRY OPTIMIZATION CYCLE   1            *
         *************************************************************
---------------------------------
CARTESIAN COORDINATES (ANGSTROEM)
---------------------------------
  N      1.625440   -0.804944    0.364854
  C      1.107420    0.196194   -0.536573
  C      1.127352    1.541255    0.210204
  O      1.296554    1.610866    1.413434
  C     -0.316295   -0.149864   -1.044737
  C     -1.391398   -0.113552    0.051022
  C     -2.763624   -0.580681   -0.463900
  C     -3.816956   -0.530108    0.600828
  N     -5.138272   -0.777357    0.244122
  H     -3.552477   -0.612139    1.652308
  H     -5.768457   -1.071119    0.975125
  H     -5.305309   -1.249452   -0.634908
  H      1.700057   -0.529815    1.334803
  C      2.162968   -1.964737   -0.088189
  N      0.908059    2.630644   -0.559165
  H      0.839380    2.516586   -1.557853
  O      2.171006   -2.259018   -1.269318
  C      2.767148   -2.873859    0.973507
  H      2.394841   -3.890952    0.813196
  H      3.855010   -2.890363    0.833443
  H      2.539626   -2.551710    1.995033
  C      0.880628    3.967388    0.003717
  H      1.893467    4.333784    0.219104
  H      0.394362    4.644382   -0.705284
  H      0.315142    3.952319    0.941023
  H      1.774523    0.252514   -1.407903
  H     -0.584357    0.544415   -1.854914
  H     -0.252268   -1.152378   -1.489301
  H     -1.489933    0.905244    0.452134
  H     -1.079007   -0.755700    0.886930
  H     -3.067483    0.054438   -1.314339
  H     -2.657635   -1.605450   -0.875476

----------------------------
CARTESIAN COORDINATES (A.U.)
----------------------------
  NO LB      ZA    FRAG     MASS         X           Y           Z
   0 N     7.0000    0    14.007    3.071636   -1.521124    0.689474
   1 C     6.0000    0    12.011    2.092721    0.370754   -1.013976
   2 C     6.0000    0    12.011    2.130387    2.912549    0.397229
   3 O     8.0000    0    15.999    2.450132    3.044096    2.671003
   4 C     6.0000    0    12.011   -0.597710   -0.283201   -1.974266
   5 C     6.0000    0    12.011   -2.629362   -0.214583    0.096417
   6 C     6.0000    0    12.011   -5.222493   -1.097328   -0.876644
   7 C     6.0000    0    12.011   -7.213002   -1.001760    1.135400
   8 N     7.0000    0    14.007   -9.709928   -1.468992    0.461324
   9 H     1.0000    0     1.008   -6.713210   -1.156776    3.122410
  10 H     1.0000    0     1.008  -10.900804   -2.024121    1.842719
  11 H     1.0000    0     1.008  -10.025582   -2.361122   -1.199802
  12 H     1.0000    0     1.008    3.212642   -1.001205    2.522412
  13 C     6.0000    0    12.011    4.087417   -3.712815   -0.166653
  14 N     7.0000    0    14.007    1.715983    4.971196   -1.056670
  15 H     1.0000    0     1.008    1.586199    4.755658   -2.943916
  16 O     8.0000    0    15.999    4.102607   -4.268925   -2.398663
  17 C     6.0000    0    12.011    5.229152   -5.430806    1.839662
  18 H     1.0000    0     1.008    4.525593   -7.352834    1.536717
  19 H     1.0000    0     1.008    7.284913   -5.461995    1.574978
  20 H     1.0000    0     1.008    4.799197   -4.822034    3.770065
  21 C     6.0000    0    12.011    1.664145    7.497276    0.007024
  22 H     1.0000    0     1.008    3.578133    8.189666    0.414046
  23 H     1.0000    0     1.008    0.745236    8.776610   -1.332794
  24 H     1.0000    0     1.008    0.595532    7.468800    1.778276
  25 H     1.0000    0     1.008    3.353362    0.477182   -2.660551
  26 H     1.0000    0     1.008   -1.104275    1.028796   -3.505280
  27 H     1.0000    0     1.008   -0.476718   -2.177679   -2.814371
  28 H     1.0000    0     1.008   -2.815566    1.710663    0.854410
  29 H     1.0000    0     1.008   -2.039028   -1.428067    1.676054
  30 H     1.0000    0     1.008   -5.796703    0.102872   -2.483742
  31 H     1.0000    0     1.008   -5.022202   -3.033860   -1.654410

--------------------------------
INTERNAL COORDINATES (ANGSTROEM)
--------------------------------
 N      0   0   0     0.000000000000     0.00000000     0.00000000
 C      1   0   0     1.443327219159     0.00000000     0.00000000
 C      2   1   0     1.538590190786   107.37364455     0.00000000
 O      3   2   1     1.217060703716   122.11714131   346.63346355
 C      2   1   3     1.550790516355   112.29437019   237.12662016
 C      5   2   1     1.535530287344   113.80772616    66.97306739
 C      6   5   2     1.538296957900   112.24179815   185.00683834
 C      7   6   5     1.498569530878   112.26763475   180.67522472
 N      8   7   6     1.390771941452   118.65675339   172.76941452
 H      8   7   6     1.087331424935   120.90090855   333.78152680
 H      9   8   7     1.008857360773   117.34716066   158.21036605
 H      9   8   7     1.011666424314   117.56012607    18.22216319
 H      1   2   3     1.010972360690   115.90798509    13.42419458
 C      1   2   3     1.356209264831   121.78920510   202.89505044
 N      3   2   1     1.351587223142   115.22894721   168.34604697
 H     15   3   2     1.007523357428   118.95070985   354.03376624
 O     14   1   2     1.217263451483   122.24190808   355.79520332
 C     14   1   2     1.522739103545   115.77977232   175.34127259
 H     18  14   1     1.094893171434   108.51801887   131.91675492
 H     18  14   1     1.096965821402   108.26650219   248.58179900
 H     18  14   1     1.095016316505   113.10077790     9.78903126
 C     15   3   2     1.450680315958   121.66160464   179.24654674
 H     22  15   3     1.098399109799   111.47062523    76.53089061
 H     22  15   3     1.094284520889   109.09153897   197.31973872
 H     22  15   3     1.094780326052   109.22536437   316.96868712
 H      2   1   3     1.098823913868   108.23424538   118.00605136
 H      5   2   1     1.100121967569   108.91649131   189.93240322
 H      5   2   1     1.098531650126   106.42417964   304.95238767
 H      6   5   2     1.099339156843   110.18425620    63.48529384
 H      6   5   2     1.099401756935   109.25758650   306.42161754
 H      7   6   5     1.104061833808   109.18755538   302.35144292
 H      7   6   5     1.109405238357   108.63019659    57.25724213

---------------------------
INTERNAL COORDINATES (A.U.)
---------------------------
 N      0   0   0     0.000000000000     0.00000000     0.00000000
 C      1   0   0     2.727493165845     0.00000000     0.00000000
 C      2   1   0     2.907514092924   107.37364455     0.00000000
 O      3   2   1     2.299911418381   122.11714131   346.63346355
 C      2   1   3     2.930569366993   112.29437019   237.12662016
 C      5   2   1     2.901731713422   113.80772616    66.97306739
 C      6   5   2     2.906959963075   112.24179815   185.00683834
 C      7   6   5     2.831886005999   112.26763475   180.67522472
 N      8   7   6     2.628178084086   118.65675339   172.76941452
 H      8   7   6     2.054758609934   120.90090855   333.78152680
 H      9   8   7     1.906464120051   117.34716066   158.21036605
 H      9   8   7     1.911772480837   117.56012607    18.22216319
 H      1   2   3     1.910460890668   115.90798509    13.42419458
 C      1   2   3     2.562864090818   121.78920510   202.89505044
 N      3   2   1     2.554129697845   115.22894721   168.34604697
 H     15   3   2     1.903943219067   118.95070985   354.03376624
 O     14   1   2     2.300294556135   122.24190808   355.79520332
 C     14   1   2     2.877559879113   115.77977232   175.34127259
 H     18  14   1     2.069048239911   108.51801887   131.91675492
 H     18  14   1     2.072964980722   108.26650219   248.58179900
 H     18  14   1     2.069280950370   113.10077790     9.78903126
 C     15   3   2     2.741388505031   121.66160464   179.24654674
 H     22  15   3     2.075673503264   111.47062523    76.53089061
 H     22  15   3     2.067898057070   109.09153897   197.31973872
 H     22  15   3     2.068834993043   109.22536437   316.96868712
 H      2   1   3     2.076476266615   108.23424538   118.00605136
 H      5   2   1     2.078929232616   108.91649131   189.93240322
 H      5   2   1     2.075923968183   106.42417964   304.95238767
 H      6   5   2     2.077449934730   110.18425620    63.48529384
 H      6   5   2     2.077568231759   109.25758650   306.42161754
 H      7   6   5     2.086374500812   109.18755538   302.35144292
 H      7   6   5     2.096472072032   108.63019659    57.25724213

---------------------
BASIS SET INFORMATION
---------------------
There are 4 groups of distinct atoms

 Group   1 Type N   : 10s5p1d contracted to 6s2p1d pattern {511111/41/1}
 Group   2 Type C   : 10s5p1d contracted to 6s2p1d pattern {511111/41/1}
 Group   3 Type O   : 10s5p1d contracted to 6s2p1d pattern {511111/41/1}
 Group   4 Type H   : 6s1p contracted to 4s1p pattern {3111/1}

Atom   0N    basis set group =>   1
Atom   1C    basis set group =>   2
Atom   2C    basis set group =>   2
Atom   3O    basis set group =>   3
Atom   4C    basis set group =>   2
Atom   5C    basis set group =>   2
Atom   6C    basis set group =>   2
Atom   7C    basis set group =>   2
Atom   8N    basis set group =>   1
Atom   9H    basis set group =>   4
Atom  10H    basis set group =>   4
Atom  11H    basis set group =>   4
Atom  12H    basis set group =>   4
Atom  13C    basis set group =>   2
Atom  14N    basis set group =>   1
Atom  15H    basis set group =>   4
Atom  16O    basis set group =>   3
Atom  17C    basis set group =>   2
Atom  18H    basis set group =>   4
Atom  19H    basis set group =>   4
Atom  20H    basis set group =>   4
Atom  21C    basis set group =>   2
Atom  22H    basis set group =>   4
Atom  23H    basis set group =>   4
Atom  24H    basis set group =>   4
Atom  25H    basis set group =>   4
Atom  26H    basis set group =>   4
Atom  27H    basis set group =>   4
Atom  28H    basis set group =>   4
Atom  29H    basis set group =>   4
Atom  30H    basis set group =>   4
Atom  31H    basis set group =>   4
---------------------------------
AUXILIARY/J BASIS SET INFORMATION
---------------------------------
There are 4 groups of distinct atoms

 Group   1 Type N   : 12s5p4d2f1g contracted to 6s4p3d1f1g pattern {711111/2111/211/2/1}
 Group   2 Type C   : 12s5p4d2f1g contracted to 6s4p3d1f1g pattern {711111/2111/211/2/1}
 Group   3 Type O   : 12s5p4d2f1g contracted to 6s4p3d1f1g pattern {711111/2111/211/2/1}
 Group   4 Type H   : 5s2p1d contracted to 3s1p1d pattern {311/2/1}

Atom   0N    basis set group =>   1
Atom   1C    basis set group =>   2
Atom   2C    basis set group =>   2
Atom   3O    basis set group =>   3
Atom   4C    basis set group =>   2
Atom   5C    basis set group =>   2
Atom   6C    basis set group =>   2
Atom   7C    basis set group =>   2
Atom   8N    basis set group =>   1
Atom   9H    basis set group =>   4
Atom  10H    basis set group =>   4
Atom  11H    basis set group =>   4
Atom  12H    basis set group =>   4
Atom  13C    basis set group =>   2
Atom  14N    basis set group =>   1
Atom  15H    basis set group =>   4
Atom  16O    basis set group =>   3
Atom  17C    basis set group =>   2
Atom  18H    basis set group =>   4
Atom  19H    basis set group =>   4
Atom  20H    basis set group =>   4
Atom  21C    basis set group =>   2
Atom  22H    basis set group =>   4
Atom  23H    basis set group =>   4
Atom  24H    basis set group =>   4
Atom  25H    basis set group =>   4
Atom  26H    basis set group =>   4
Atom  27H    basis set group =>   4
Atom  28H    basis set group =>   4
Atom  29H    basis set group =>   4
Atom  30H    basis set group =>   4
Atom  31H    basis set group =>   4


           ************************************************************
           *        Program running with 16 parallel MPI-processes    *
           *              working on a common directory               *
           ************************************************************
------------------------------------------------------------------------------
                           ORCA GTO INTEGRAL CALCULATION
                           -- RI-GTO INTEGRALS CHOSEN --
------------------------------------------------------------------------------
------------------------------------------------------------------------------
                   ___                                                        
                  /   \      - P O W E R E D   B Y -                         
                 /     \                                                     
                 |  |  |   _    _      __       _____    __    __             
                 |  |  |  | |  | |    /  \     |  _  \  |  |  /  |          
                  \  \/   | |  | |   /    \    | | | |  |  | /  /          
                 / \  \   | |__| |  /  /\  \   | |_| |  |  |/  /          
                |  |  |   |  __  | /  /__\  \  |    /   |      \           
                |  |  |   | |  | | |   __   |  |    \   |  |\   \          
                \     /   | |  | | |  |  |  |  | |\  \  |  | \   \       
                 \___/    |_|  |_| |__|  |__|  |_| \__\ |__|  \__/        
                                                                              
                      - O R C A' S   B I G   F R I E N D -                    
                                      &                                       
                       - I N T E G R A L  F E E D E R -                       
                                                                              
 v1 FN, 2020, v2 2021                                                         
------------------------------------------------------------------------------


Reading SHARK input file opt.SHARKINP.tmp ... ok
----------------------
SHARK INTEGRAL PACKAGE
----------------------

Number of atoms                             ...     32
Number of basis functions                   ...    364
Number of shells                            ...    216
Maximum angular momentum                    ...      2
Integral batch strategy                     ... SHARK/LIBINT Hybrid
RI-J (if used) integral strategy            ... SPLIT-RIJ (Revised 2003 algorithm where possible)
Printlevel                                  ...      1
Contraction scheme used                     ... SEGMENTED contraction
Coulomb Range Separation                    ... NOT USED
Exchange Range Separation                   ... NOT USED
Finite Nucleus Model                        ... NOT USED
Auxiliary Coulomb fitting basis             ... AVAILABLE
   # of basis functions in Aux-J            ...    884
   # of shells in Aux-J                     ...    300
   Maximum angular momentum in Aux-J        ...      4
Auxiliary J/K fitting basis                 ... NOT available
Auxiliary Correlation fitting basis         ... NOT available
Auxiliary 'external' fitting basis          ... NOT available
Integral threshold                          ...     2.500000e-11
Primitive cut-off                           ...     2.500000e-12
Primitive pair pre-selection threshold      ...     2.500000e-12

Calculating pre-screening integrals         ... done (  0.0 sec) Dimension = 216
Organizing shell pair data                  ... done (  0.0 sec)
Shell pair information
Total number of shell pairs                 ...     23436
Shell pairs after pre-screening             ...     15376
Total number of primitive shell pairs       ...     61703
Primitive shell pairs kept                  ...     29432
          la=0 lb=0:   7210 shell pairs
          la=1 lb=0:   5239 shell pairs
          la=1 lb=1:    907 shell pairs
          la=2 lb=0:   1430 shell pairs
          la=2 lb=1:    511 shell pairs
          la=2 lb=2:     79 shell pairs

Calculating one electron integrals          ... done (  0.0 sec)
Calculating RI/J V-Matrix + Cholesky decomp.... done (  0.0 sec)
Calculating Nuclear repulsion               ... done (  0.0 sec) ENN=    922.325497031446 Eh

SHARK setup successfully completed in   0.2 seconds

Maximum memory used throughout the entire GTOINT-calculation: 22.2 MB


           ************************************************************
           *        Program running with 16 parallel MPI-processes    *
           *              working on a common directory               *
           ************************************************************
-------------------------------------------------------------------------------
                                 ORCA SCF
-------------------------------------------------------------------------------

------------
SCF SETTINGS
------------
Hamiltonian:
 Density Functional     Method          .... DFT(GTOs)
 Exchange Functional    Exchange        .... B88
   X-Alpha parameter    XAlpha          ....  0.666667
   Becke's b parameter  XBeta           ....  0.004200
 Correlation Functional Correlation     .... LYP
 LDA part of GGA corr.  LDAOpt          .... VWN-5
 Gradients option       PostSCFGGA      .... off
 Hybrid DFT is turned on
   Fraction HF Exchange ScalHFX         ....  0.200000
   Scaling of DF-GGA-X  ScalDFX         ....  0.720000
   Scaling of DF-GGA-C  ScalDFC         ....  0.810000
   Scaling of DF-LDA-C  ScalLDAC        ....  1.000000
   Perturbative correction              ....  0.000000
   Density functional embedding theory  .... OFF
   NL short-range parameter             ....  4.800000
 RI-approximation to the Coulomb term is turned on
   Number of AuxJ basis functions       .... 884
   RIJ-COSX (HFX calculated with COS-X)).... on


General Settings:
 Integral files         IntName         .... opt
 Hartree-Fock type      HFTyp           .... UHF
 Total Charge           Charge          ....    0
 Multiplicity           Mult            ....    2
 Number of Electrons    NEL             ....  109
 Basis Dimension        Dim             ....  364
 Nuclear Repulsion      ENuc            ....    922.3254970314 Eh

Convergence Acceleration:
 DIIS                   CNVDIIS         .... on
   Start iteration      DIISMaxIt       ....    12
   Startup error        DIISStart       ....  0.200000
   # of expansion vecs  DIISMaxEq       ....     5
   Bias factor          DIISBfac        ....   1.050
   Max. coefficient     DIISMaxC        ....  10.000
 Trust-Rad. Augm. Hess. CNVTRAH         .... auto
   Auto Start mean grad. ratio tolernc. ....  1.125000
   Auto Start start iteration           ....    20
   Auto Start num. interpolation iter.  ....    10
   Max. Number of Micro iterations      ....    16
   Max. Number of Macro iterations      .... Maxiter - #DIIS iter
   Number of Davidson start vectors     ....     2
   Converg. threshold I  (grad. norm)   ....   1.000e-05
   Converg. threshold II (energy diff.) ....   1.000e-08
   Grad. Scal. Fac. for Micro threshold ....   0.100
   Minimum threshold for Micro iter.    ....   0.010
   NR start threshold (gradient norm)   ....   0.001
   Initial trust radius                 ....   0.400
   Minimum AH scaling param. (alpha)    ....   1.000
   Maximum AH scaling param. (alpha)    .... 1000.000
   Orbital update algorithm             .... Taylor
   White noise on init. David. guess    .... on
   Maximum white noise                  ....   0.010
   Quad. conv. algorithm                .... NR
 SOSCF                  CNVSOSCF        .... off
 Level Shifting         CNVShift        .... on
   Level shift para.    LevelShift      ....    0.2500
   Turn off err/grad.   ShiftErr        ....    0.0010
 Zerner damping         CNVZerner       .... off
 Static damping         CNVDamp         .... on
   Fraction old density DampFac         ....    0.7000
   Max. Damping (<1)    DampMax         ....    0.9800
   Min. Damping (>=0)   DampMin         ....    0.0000
   Turn off err/grad.   DampErr         ....    0.1000
 Fernandez-Rico         CNVRico         .... off

SCF Procedure:
 Maximum # iterations   MaxIter         ....   125
 SCF integral mode      SCFMode         .... Direct
   Integral package                     .... SHARK and LIBINT hybrid scheme
 Reset frequency        DirectResetFreq ....    20
 Integral Threshold     Thresh          ....  2.500e-11 Eh
 Primitive CutOff       TCut            ....  2.500e-12 Eh

Convergence Tolerance:
 Convergence Check Mode ConvCheckMode   .... Total+1el-Energy
 Convergence forced     ConvForced      .... 0
 Energy Change          TolE            ....  1.000e-08 Eh
 1-El. energy change                    ....  1.000e-05 Eh
 DIIS Error             TolErr          ....  5.000e-07


Diagonalization of the overlap matrix:
Smallest eigenvalue                        ... 9.154e-04
Time for diagonalization                   ...    0.014 sec
Threshold for overlap eigenvalues          ... 1.000e-08
Number of eigenvalues below threshold      ... 0
Time for construction of square roots      ...    0.010 sec
Total time needed                          ...    0.025 sec

Time for model grid setup =    0.110 sec

------------------------------
INITIAL GUESS: MODEL POTENTIAL
------------------------------
Loading Hartree-Fock densities                     ... done
Calculating cut-offs                               ... done
Initializing the effective Hamiltonian             ... done
Setting up the integral package (SHARK)            ... done
Starting the Coulomb interaction                   ... done (   0.0 sec)
Reading the grid                                   ... done
Mapping shells                                     ... done
Starting the XC term evaluation                    ... done (   0.0 sec)
  promolecular density results
     # of electrons  =    108.990035113
     EX              =    -87.760111797
     EC              =     -3.661506591
     EX+EC           =    -91.421618388
Transforming the Hamiltonian                       ... done (   0.0 sec)
Diagonalizing the Hamiltonian                      ... done (   0.0 sec)
Back transforming the eigenvectors                 ... done (   0.0 sec)
Now organizing SCF variables                       ... done
                      ------------------
                      INITIAL GUESS DONE (   0.3 sec)
                      ------------------
-------------------
DFT GRID GENERATION
-------------------

General Integration Accuracy     IntAcc      ... 4.388
Radial Grid Type                 RadialGrid  ... OptM3 with GC (2021)
Angular Grid (max. ang.)         AngularGrid ... 4 (Lebedev-302)
Angular grid pruning method      GridPruning ... 4 (adaptive)
Weight generation scheme         WeightScheme... Becke
Basis function cutoff            BFCut       ... 1.0000e-11
Integration weight cutoff        WCut        ... 1.0000e-14
Angular grids for H and He will be reduced by one unit
Partially contracted basis set               ... off
Rotationally invariant grid construction     ... off

Total number of grid points                  ...   141608
Total number of batches                      ...     2231
Average number of points per batch           ...       63
Average number of grid points per atom       ...     4425
Time for grid setup =    0.585 sec

--------------------
COSX GRID GENERATION
--------------------

GRIDX 1
-------
General Integration Accuracy     IntAcc      ... 3.816
Radial Grid Type                 RadialGrid  ... OptM3 with GC (2021)
Angular Grid (max. ang.)         AngularGrid ... 1 (Lebedev-50)
Angular grid pruning method      GridPruning ... 4 (adaptive)
Weight generation scheme         WeightScheme... Becke
Basis function cutoff            BFCut       ... 1.0000e-11
Integration weight cutoff        WCut        ... 1.0000e-14
Angular grids for H and He will be reduced by one unit
Partially contracted basis set               ... on
Rotationally invariant grid construction     ... off

Total number of grid points                  ...    18085
Total number of batches                      ...      299
Average number of points per batch           ...       60
Average number of grid points per atom       ...      565
UseSFitting                                  ... on

GRIDX 2
-------
General Integration Accuracy     IntAcc      ... 4.020
Radial Grid Type                 RadialGrid  ... OptM3 with GC (2021)
Angular Grid (max. ang.)         AngularGrid ... 2 (Lebedev-110)
Angular grid pruning method      GridPruning ... 4 (adaptive)
Weight generation scheme         WeightScheme... Becke
Basis function cutoff            BFCut       ... 1.0000e-11
Integration weight cutoff        WCut        ... 1.0000e-14
Angular grids for H and He will be reduced by one unit
Partially contracted basis set               ... on
Rotationally invariant grid construction     ... off

Total number of grid points                  ...    38306
Total number of batches                      ...      616
Average number of points per batch           ...       62
Average number of grid points per atom       ...     1197
UseSFitting                                  ... on

GRIDX 3
-------
General Integration Accuracy     IntAcc      ... 4.338
Radial Grid Type                 RadialGrid  ... OptM3 with GC (2021)
Angular Grid (max. ang.)         AngularGrid ... 3 (Lebedev-194)
Angular grid pruning method      GridPruning ... 4 (adaptive)
Weight generation scheme         WeightScheme... Becke
Basis function cutoff            BFCut       ... 1.0000e-11
Integration weight cutoff        WCut        ... 1.0000e-14
Angular grids for H and He will be reduced by one unit
Partially contracted basis set               ... on
Rotationally invariant grid construction     ... off

Total number of grid points                  ...    83564
Total number of batches                      ...     1323
Average number of points per batch           ...       63
Average number of grid points per atom       ...     2611
UseSFitting                                  ... on

Time for X-Grid setup             =    0.765 sec

--------------
SCF ITERATIONS
--------------
ITER       Energy         Delta-E        Max-DP      RMS-DP      [F,P]     Damp
               ***  Starting incremental Fock matrix formation  ***
  0   -667.6994110168   0.000000000000 0.06165802  0.00097571  0.1297470 0.7000
  1   -667.9501612150  -0.250750198172 0.05270501  0.00069786  0.0516204 0.7000
                               ***Turning on DIIS***
  2   -668.0419092503  -0.091748035345 0.08463758  0.00108284  0.0174743 0.0000
  3   -668.1886465322  -0.146737281844 0.04638281  0.00051352  0.0297669 0.0000
  4   -668.2224493127  -0.033802780588 0.01802158  0.00017855  0.0076076 0.0000
  5   -668.2242567789  -0.001807466175 0.00825664  0.00007210  0.0053616 0.0000
  6   -668.2246499259  -0.000393146982 0.00310245  0.00002649  0.0013039 0.0000
  7   -668.2246701129  -0.000020186966 0.00238469  0.00002086  0.0003980 0.0000
               *** Restarting incremental Fock matrix formation ***
                                   *** Resetting DIIS ***
  8   -668.2246663909   0.000003721942 0.00038131  0.00000800  0.0002170 0.0000
  9   -668.2246658383   0.000000552648 0.00032523  0.00000361  0.0002966 0.0000
 10   -668.2246676031  -0.000001764794 0.00013917  0.00000132  0.0000708 0.0000
 11   -668.2246677021  -0.000000099063 0.00005922  0.00000071  0.0000436 0.0000
 12   -668.2246677362  -0.000000034083 0.00001749  0.00000023  0.0000110 0.0000
 13   -668.2246677417  -0.000000005461 0.00001020  0.00000009  0.0000068 0.0000
 14   -668.2246677396   0.000000002092 0.00000351  0.00000003  0.0000021 0.0000
 15   -668.2246677403  -0.000000000751 0.00000254  0.00000003  0.0000012 0.0000
 16   -668.2246677441  -0.000000003773 0.00000169  0.00000001  0.0000015 0.0000
                            ***DIIS convergence achieved***

               *****************************************************
               *                     SUCCESS                       *
               *           SCF CONVERGED AFTER  17 CYCLES          *
               *****************************************************

Old exchange energy                            =    -17.871518945 Eh
New exchange energy                            =    -17.871531466 Eh
Exchange energy change after final integration =     -0.000012521 Eh
Total energy after final integration           =   -668.224680274 Eh
Final COS-X integration done in                =     2.203 sec

----------------
TOTAL SCF ENERGY
----------------

Total Energy       :         -668.22468027 Eh          -18183.31797 eV

Components:
Nuclear Repulsion  :          922.32549703 Eh           25097.75272 eV
Electronic Energy  :        -1590.55017731 Eh          -43281.07069 eV
One Electron Energy:        -2738.78568634 Eh          -74526.14736 eV
Two Electron Energy:         1148.23550903 Eh           31245.07667 eV
Max COSX asymmetry :            0.00000662 Eh               0.00018 eV

Virial components:
Potential Energy   :        -1332.06403692 Eh          -36247.30522 eV
Kinetic Energy     :          663.83935664 Eh           18063.98725 eV
Virial Ratio       :            2.00660600


DFT components:
N(Alpha)           :       54.999900467140 electrons
N(Beta)            :       53.999925633200 electrons
N(Total)           :      108.999826100340 electrons
E(X)               :      -70.979214724159 Eh       
E(C)               :       -4.318198713842 Eh       
E(XC)              :      -75.297413438001 Eh       
DFET-embed. en.    :        0.000000000000 Eh       

---------------
SCF CONVERGENCE
---------------

  Last Energy change         ...   -8.9981e-09  Tolerance :   1.0000e-08
  Last MAX-Density change    ...    0.0000e+00  Tolerance :   1.0000e-07
  Last RMS-Density change    ...    0.0000e+00  Tolerance :   5.0000e-09
  Last DIIS Error            ...    4.2085e-07  Tolerance :   5.0000e-07

             **** THE GBW FILE WAS UPDATED (opt.gbw) ****
             **** DENSITY opt.scfp WAS UPDATED ****
             **** ENERGY FILE WAS UPDATED (opt.en.tmp) ****
----------------------
UHF SPIN CONTAMINATION
----------------------

Warning: in a DFT calculation there is little theoretical justification to 
         calculate <S**2> as in Hartree-Fock theory. We will do it anyways
         but you should keep in mind that the values have only limited relevance

Expectation value of <S**2>     :     0.753794
Ideal value S*(S+1) for S=0.5   :     0.750000
Deviation                       :     0.003794

             **** THE GBW FILE WAS UPDATED (opt.gbw) ****
             **** DENSITY opt.scfp WAS UPDATED ****
----------------
ORBITAL ENERGIES
----------------
                 SPIN UP ORBITALS
  NO   OCC          E(Eh)            E(eV) 
   0   1.0000     -19.118990      -520.2542 
   1   1.0000     -19.096794      -519.6502 
   2   1.0000     -14.367547      -390.9608 
   3   1.0000     -14.345658      -390.3652 
   4   1.0000     -14.330300      -389.9473 
   5   1.0000     -10.296623      -280.1854 
   6   1.0000     -10.283002      -279.8147 
   7   1.0000     -10.233473      -278.4670 
   8   1.0000     -10.223641      -278.1994 
   9   1.0000     -10.191436      -277.3231 
  10   1.0000     -10.186015      -277.1756 
  11   1.0000     -10.183520      -277.1077 
  12   1.0000     -10.180839      -277.0347 
  13   1.0000     -10.177581      -276.9461 
  14   1.0000      -1.051377       -28.6094 
  15   1.0000      -1.028383       -27.9837 
  16   1.0000      -0.932299       -25.3691 
  17   1.0000      -0.918133       -24.9837 
  18   1.0000      -0.896058       -24.3830 
  19   1.0000      -0.797336       -21.6966 
  20   1.0000      -0.758031       -20.6271 
  21   1.0000      -0.725406       -19.7393 
  22   1.0000      -0.707707       -19.2577 
  23   1.0000      -0.662573       -18.0295 
  24   1.0000      -0.611167       -16.6307 
  25   1.0000      -0.597456       -16.2576 
  26   1.0000      -0.582059       -15.8386 
  27   1.0000      -0.561770       -15.2865 
  28   1.0000      -0.536789       -14.6068 
  29   1.0000      -0.507924       -13.8213 
  30   1.0000      -0.479211       -13.0400 
  31   1.0000      -0.471084       -12.8189 
  32   1.0000      -0.466806       -12.7024 
  33   1.0000      -0.465606       -12.6698 
  34   1.0000      -0.454343       -12.3633 
  35   1.0000      -0.443491       -12.0680 
  36   1.0000      -0.443062       -12.0563 
  37   1.0000      -0.426144       -11.5960 
  38   1.0000      -0.413030       -11.2391 
  39   1.0000      -0.402628       -10.9561 
  40   1.0000      -0.396358       -10.7855 
  41   1.0000      -0.391516       -10.6537 
  42   1.0000      -0.384478       -10.4622 
  43   1.0000      -0.372780       -10.1439 
  44   1.0000      -0.365218        -9.9381 
  45   1.0000      -0.356595        -9.7034 
  46   1.0000      -0.340839        -9.2747 
  47   1.0000      -0.331907        -9.0316 
  48   1.0000      -0.325655        -8.8615 
  49   1.0000      -0.305828        -8.3220 
  50   1.0000      -0.269485        -7.3331 
  51   1.0000      -0.266111        -7.2412 
  52   1.0000      -0.246918        -6.7190 
  53   1.0000      -0.244168        -6.6441 
  54   1.0000      -0.126741        -3.4488 
  55   0.0000       0.009932         0.2703 
  56   0.0000       0.014802         0.4028 
  57   0.0000       0.027058         0.7363 
  58   0.0000       0.031924         0.8687 
  59   0.0000       0.035935         0.9778 
  60   0.0000       0.038706         1.0533 
  61   0.0000       0.049182         1.3383 
  62   0.0000       0.052951         1.4409 
  63   0.0000       0.064807         1.7635 
  64   0.0000       0.080111         2.1799 
  65   0.0000       0.095146         2.5891 
  66   0.0000       0.096917         2.6372 
  67   0.0000       0.116692         3.1753 
  68   0.0000       0.119727         3.2579 
  69   0.0000       0.153969         4.1897 
  70   0.0000       0.160690         4.3726 
  71   0.0000       0.165815         4.5120 
  72   0.0000       0.168131         4.5751 
  73   0.0000       0.174205         4.7404 
  74   0.0000       0.175241         4.7686 
  75   0.0000       0.183776         5.0008 
  76   0.0000       0.187412         5.0997 
  77   0.0000       0.194861         5.3025 
  78   0.0000       0.200431         5.4540 
  79   0.0000       0.207257         5.6398 
  80   0.0000       0.219572         5.9749 
  81   0.0000       0.221282         6.0214 
  82   0.0000       0.226818         6.1720 
  83   0.0000       0.235322         6.4034 
  84   0.0000       0.245521         6.6810 
  85   0.0000       0.249546         6.7905 
  86   0.0000       0.256054         6.9676 
  87   0.0000       0.258461         7.0331 
  88   0.0000       0.261437         7.1141 
  89   0.0000       0.273125         7.4321 
  90   0.0000       0.279336         7.6011 
  91   0.0000       0.283038         7.7019 
  92   0.0000       0.287283         7.8174 
  93   0.0000       0.288758         7.8575 
  94   0.0000       0.292438         7.9577 
  95   0.0000       0.295255         8.0343 
  96   0.0000       0.309654         8.4261 
  97   0.0000       0.317527         8.6403 
  98   0.0000       0.319692         8.6993 
  99   0.0000       0.325801         8.8655 
 100   0.0000       0.333020         9.0619 
 101   0.0000       0.339544         9.2395 
 102   0.0000       0.348325         9.4784 
 103   0.0000       0.358607         9.7582 
 104   0.0000       0.368663        10.0318 
 105   0.0000       0.377524        10.2730 
 106   0.0000       0.383108        10.4249 
 107   0.0000       0.392962        10.6930 
 108   0.0000       0.400333        10.8936 
 109   0.0000       0.407650        11.0927 
 110   0.0000       0.420378        11.4391 
 111   0.0000       0.430067        11.7027 
 112   0.0000       0.436303        11.8724 
 113   0.0000       0.447264        12.1707 
 114   0.0000       0.450154        12.2493 
 115   0.0000       0.455021        12.3818 
 116   0.0000       0.469626        12.7792 
 117   0.0000       0.488772        13.3002 
 118   0.0000       0.497358        13.5338 
 119   0.0000       0.508972        13.8498 
 120   0.0000       0.523867        14.2552 
 121   0.0000       0.535833        14.5808 
 122   0.0000       0.539305        14.6752 
 123   0.0000       0.546095        14.8600 
 124   0.0000       0.563807        15.3420 
 125   0.0000       0.568666        15.4742 
 126   0.0000       0.573954        15.6181 
 127   0.0000       0.601042        16.3552 
 128   0.0000       0.627219        17.0675 
 129   0.0000       0.637254        17.3406 
 130   0.0000       0.654491        17.8096 
 131   0.0000       0.665104        18.0984 
 132   0.0000       0.669112        18.2075 
 133   0.0000       0.690461        18.7884 
 134   0.0000       0.713715        19.4212 
 135   0.0000       0.725632        19.7455 
 136   0.0000       0.755006        20.5448 
 137   0.0000       0.775248        21.0956 
 138   0.0000       0.785226        21.3671 
 139   0.0000       0.800726        21.7889 
 140   0.0000       0.808641        22.0042 
 141   0.0000       0.817101        22.2344 
 142   0.0000       0.828901        22.5555 
 143   0.0000       0.835916        22.7464 
 144   0.0000       0.838620        22.8200 
 145   0.0000       0.848209        23.0809 
 146   0.0000       0.856631        23.3101 
 147   0.0000       0.858887        23.3715 
 148   0.0000       0.865703        23.5570 
 149   0.0000       0.875577        23.8257 
 150   0.0000       0.889513        24.2049 
 151   0.0000       0.900120        24.4935 
 152   0.0000       0.911608        24.8061 
 153   0.0000       0.914423        24.8827 
 154   0.0000       0.920385        25.0449 
 155   0.0000       0.925028        25.1713 
 156   0.0000       0.927053        25.2264 
 157   0.0000       0.938878        25.5482 
 158   0.0000       0.944610        25.7042 
 159   0.0000       0.946411        25.7532 
 160   0.0000       0.953557        25.9476 
 161   0.0000       0.972264        26.4566 
 162   0.0000       0.977890        26.6098 
 163   0.0000       0.985973        26.8297 
 164   0.0000       0.995195        27.0806 
 165   0.0000       1.005344        27.3568 
 166   0.0000       1.025931        27.9170 
 167   0.0000       1.044455        28.4211 
 168   0.0000       1.047757        28.5109 
 169   0.0000       1.058216        28.7955 
 170   0.0000       1.072811        29.1927 
 171   0.0000       1.079182        29.3660 
 172   0.0000       1.111640        30.2493 
 173   0.0000       1.136724        30.9318 
 174   0.0000       1.147664        31.2295 
 175   0.0000       1.154302        31.4102 
 176   0.0000       1.170465        31.8500 
 177   0.0000       1.179094        32.0848 
 178   0.0000       1.188243        32.3337 
 179   0.0000       1.199523        32.6407 
 180   0.0000       1.216799        33.1108 
 181   0.0000       1.221141        33.2289 
 182   0.0000       1.230498        33.4836 
 183   0.0000       1.251691        34.0602 
 184   0.0000       1.269065        34.5330 
 185   0.0000       1.291226        35.1360 
 186   0.0000       1.329092        36.1664 
 187   0.0000       1.331974        36.2449 
 188   0.0000       1.358012        36.9534 
 189   0.0000       1.362748        37.0823 
 190   0.0000       1.379618        37.5413 
 191   0.0000       1.392067        37.8801 
 192   0.0000       1.411084        38.3976 
 193   0.0000       1.414558        38.4921 
 194   0.0000       1.421850        38.6905 
 195   0.0000       1.441327        39.2205 
 196   0.0000       1.460972        39.7551 
 197   0.0000       1.476841        40.1869 
 198   0.0000       1.478080        40.2206 
 199   0.0000       1.495149        40.6851 
 200   0.0000       1.503507        40.9125 
 201   0.0000       1.508842        41.0577 
 202   0.0000       1.531471        41.6734 
 203   0.0000       1.533757        41.7357 
 204   0.0000       1.548120        42.1265 
 205   0.0000       1.563809        42.5534 
 206   0.0000       1.570221        42.7279 
 207   0.0000       1.576906        42.9098 
 208   0.0000       1.581764        43.0420 
 209   0.0000       1.599064        43.5127 
 210   0.0000       1.603358        43.6296 
 211   0.0000       1.623828        44.1866 
 212   0.0000       1.625709        44.2378 
 213   0.0000       1.635731        44.5105 
 214   0.0000       1.653690        44.9992 
 215   0.0000       1.676938        45.6318 
 216   0.0000       1.680003        45.7152 
 217   0.0000       1.684764        45.8448 
 218   0.0000       1.694694        46.1150 
 219   0.0000       1.700135        46.2630 
 220   0.0000       1.724565        46.9278 
 221   0.0000       1.728639        47.0387 
 222   0.0000       1.733420        47.1688 
 223   0.0000       1.737101        47.2689 
 224   0.0000       1.747192        47.5435 
 225   0.0000       1.765058        48.0297 
 226   0.0000       1.778043        48.3830 
 227   0.0000       1.782674        48.5090 
 228   0.0000       1.792707        48.7820 
 229   0.0000       1.808880        49.2221 
 230   0.0000       1.836009        49.9604 
 231   0.0000       1.844658        50.1957 
 232   0.0000       1.867474        50.8166 
 233   0.0000       1.883186        51.2441 
 234   0.0000       1.885126        51.2969 
 235   0.0000       1.900217        51.7075 
 236   0.0000       1.920457        52.2583 
 237   0.0000       1.939920        52.7879 
 238   0.0000       1.962500        53.4024 
 239   0.0000       1.980915        53.9034 
 240   0.0000       2.004317        54.5403 
 241   0.0000       2.031185        55.2714 
 242   0.0000       2.037131        55.4331 
 243   0.0000       2.054927        55.9174 
 244   0.0000       2.074230        56.4427 
 245   0.0000       2.085016        56.7362 
 246   0.0000       2.101809        57.1931 
 247   0.0000       2.121595        57.7315 
 248   0.0000       2.140744        58.2526 
 249   0.0000       2.148799        58.4718 
 250   0.0000       2.163859        58.8816 
 251   0.0000       2.167016        58.9675 
 252   0.0000       2.192471        59.6602 
 253   0.0000       2.205866        60.0247 
 254   0.0000       2.222558        60.4789 
 255   0.0000       2.239489        60.9396 
 256   0.0000       2.270576        61.7855 
 257   0.0000       2.282047        62.0977 
 258   0.0000       2.300205        62.5918 
 259   0.0000       2.312169        62.9173 
 260   0.0000       2.333585        63.5001 
 261   0.0000       2.351840        63.9968 
 262   0.0000       2.363744        64.3208 
 263   0.0000       2.366032        64.3830 
 264   0.0000       2.394193        65.1493 
 265   0.0000       2.395131        65.1748 
 266   0.0000       2.403625        65.4060 
 267   0.0000       2.426062        66.0165 
 268   0.0000       2.441561        66.4382 
 269   0.0000       2.449182        66.6456 
 270   0.0000       2.459995        66.9399 
 271   0.0000       2.478879        67.4537 
 272   0.0000       2.489101        67.7319 
 273   0.0000       2.491753        67.8040 
 274   0.0000       2.496735        67.9396 
 275   0.0000       2.512277        68.3625 
 276   0.0000       2.546053        69.2816 
 277   0.0000       2.567605        69.8681 
 278   0.0000       2.575214        70.0751 
 279   0.0000       2.608685        70.9859 
 280   0.0000       2.629434        71.5505 
 281   0.0000       2.635262        71.7091 
 282   0.0000       2.654254        72.2259 
 283   0.0000       2.676702        72.8368 
 284   0.0000       2.708713        73.7078 
 285   0.0000       2.728478        74.2457 
 286   0.0000       2.763237        75.1915 
 287   0.0000       2.772489        75.4433 
 288   0.0000       2.783386        75.7398 
 289   0.0000       2.824689        76.8637 
 290   0.0000       2.831162        77.0398 
 291   0.0000       3.001098        81.6640 
 292   0.0000       3.022021        82.2334 
 293   0.0000       3.045922        82.8837 
 294   0.0000       3.109223        84.6063 
 295   0.0000       3.131394        85.2095 
 296   0.0000       3.390166        92.2511 
 297   0.0000       3.442384        93.6720 
 298   0.0000       3.460321        94.1601 
 299   0.0000       3.465357        94.2972 
 300   0.0000       4.915265       133.7512 
 301   0.0000       4.978405       135.4693 
 302   0.0000       4.990086       135.7871 
 303   0.0000       4.995214       135.9267 
 304   0.0000       5.012643       136.4009 
 305   0.0000       5.016561       136.5076 
 306   0.0000       5.032831       136.9503 
 307   0.0000       5.058429       137.6468 
 308   0.0000       5.076183       138.1300 
 309   0.0000       5.099493       138.7642 
 310   0.0000       5.118693       139.2867 
 311   0.0000       5.153492       140.2336 
 312   0.0000       5.187845       141.1684 
 313   0.0000       5.237185       142.5110 
 314   0.0000       5.260131       143.1354 
 315   0.0000       5.262561       143.2016 
 316   0.0000       5.298742       144.1861 
 317   0.0000       5.313244       144.5807 
 318   0.0000       5.349266       145.5609 
 319   0.0000       5.366055       146.0178 
 320   0.0000       5.384174       146.5108 
 321   0.0000       5.436161       147.9255 
 322   0.0000       5.589886       152.1085 
 323   0.0000       5.637769       153.4115 
 324   0.0000       5.716214       155.5461 
 325   0.0000       5.747933       156.4092 
 326   0.0000       5.874792       159.8612 
 327   0.0000       7.292212       198.4312 
 328   0.0000       7.312945       198.9953 
 329   0.0000       7.347251       199.9289 
 330   0.0000       9.096798       247.5365 
 331   0.0000       9.126479       248.3441 
 332   0.0000      29.599542       805.4445 
 333   0.0000      29.640856       806.5687 
 334   0.0000      29.759077       809.7856 
 335   0.0000      29.863393       812.6242 
 336   0.0000      29.927727       814.3748 
 337   0.0000      30.050190       817.7072 
 338   0.0000      30.084445       818.6394 
 339   0.0000      30.157636       820.6310 
 340   0.0000      30.283814       824.0645 
 341   0.0000      36.522726       993.8339 
 342   0.0000      36.605822       996.0951 
 343   0.0000      36.609899       996.2060 
 344   0.0000      36.615358       996.3545 
 345   0.0000      36.631539       996.7949 
 346   0.0000      36.636046       996.9175 
 347   0.0000      36.670134       997.8451 
 348   0.0000      36.704099       998.7693 
 349   0.0000      36.706380       998.8314 
 350   0.0000      36.720727       999.2218 
 351   0.0000      36.736195       999.6427 
 352   0.0000      36.790154      1001.1110 
 353   0.0000      36.811821      1001.7006 
 354   0.0000      36.857606      1002.9465 
 355   0.0000      36.887169      1003.7509 
 356   0.0000      36.892354      1003.8920 
 357   0.0000      36.923576      1004.7416 
 358   0.0000      36.949957      1005.4594 
 359   0.0000      41.231636      1121.9699 
 360   0.0000      41.251884      1122.5208 
 361   0.0000      41.287090      1123.4788 
 362   0.0000      53.634572      1459.4709 
 363   0.0000      53.661791      1460.2116 

                 SPIN DOWN ORBITALS
  NO   OCC          E(Eh)            E(eV) 
   0   1.0000     -19.118990      -520.2542 
   1   1.0000     -19.096794      -519.6502 
   2   1.0000     -14.367547      -390.9608 
   3   1.0000     -14.345658      -390.3652 
   4   1.0000     -14.326128      -389.8338 
   5   1.0000     -10.296621      -280.1853 
   6   1.0000     -10.283003      -279.8147 
   7   1.0000     -10.233478      -278.4671 
   8   1.0000     -10.223641      -278.1994 
   9   1.0000     -10.186023      -277.1758 
  10   1.0000     -10.183520      -277.1077 
  11   1.0000     -10.181702      -277.0582 
  12   1.0000     -10.179100      -276.9874 
  13   1.0000     -10.177461      -276.9428 
  14   1.0000      -1.051377       -28.6094 
  15   1.0000      -1.028383       -27.9837 
  16   1.0000      -0.932298       -25.3691 
  17   1.0000      -0.918130       -24.9836 
  18   1.0000      -0.884200       -24.0603 
  19   1.0000      -0.796653       -21.6780 
  20   1.0000      -0.756015       -20.5722 
  21   1.0000      -0.725304       -19.7365 
  22   1.0000      -0.704739       -19.1769 
  23   1.0000      -0.658061       -17.9068 
  24   1.0000      -0.606322       -16.4989 
  25   1.0000      -0.597454       -16.2575 
  26   1.0000      -0.570704       -15.5297 
  27   1.0000      -0.561163       -15.2700 
  28   1.0000      -0.536761       -14.6060 
  29   1.0000      -0.504183       -13.7195 
  30   1.0000      -0.478898       -13.0315 
  31   1.0000      -0.470828       -12.8119 
  32   1.0000      -0.465830       -12.6759 
  33   1.0000      -0.462600       -12.5880 
  34   1.0000      -0.452336       -12.3087 
  35   1.0000      -0.442573       -12.0430 
  36   1.0000      -0.438923       -11.9437 
  37   1.0000      -0.425818       -11.5871 
  38   1.0000      -0.411142       -11.1877 
  39   1.0000      -0.402493       -10.9524 
  40   1.0000      -0.394026       -10.7220 
  41   1.0000      -0.390807       -10.6344 
  42   1.0000      -0.380976       -10.3669 
  43   1.0000      -0.371577       -10.1111 
  44   1.0000      -0.361595        -9.8395 
  45   1.0000      -0.355772        -9.6811 
  46   1.0000      -0.336960        -9.1692 
  47   1.0000      -0.328566        -8.9407 
  48   1.0000      -0.323599        -8.8056 
  49   1.0000      -0.274585        -7.4718 
  50   1.0000      -0.269480        -7.3329 
  51   1.0000      -0.265959        -7.2371 
  52   1.0000      -0.246828        -6.7165 
  53   1.0000      -0.244165        -6.6441 
  54   0.0000       0.002182         0.0594 
  55   0.0000       0.010302         0.2803 
  56   0.0000       0.014908         0.4057 
  57   0.0000       0.027079         0.7369 
  58   0.0000       0.032261         0.8779 
  59   0.0000       0.036885         1.0037 
  60   0.0000       0.039698         1.0802 
  61   0.0000       0.050684         1.3792 
  62   0.0000       0.053886         1.4663 
  63   0.0000       0.064882         1.7655 
  64   0.0000       0.080586         2.1929 
  65   0.0000       0.095221         2.5911 
  66   0.0000       0.097932         2.6649 
  67   0.0000       0.117647         3.2013 
  68   0.0000       0.119900         3.2626 
  69   0.0000       0.154370         4.2006 
  70   0.0000       0.160943         4.3795 
  71   0.0000       0.167213         4.5501 
  72   0.0000       0.168620         4.5884 
  73   0.0000       0.175545         4.7768 
  74   0.0000       0.178082         4.8459 
  75   0.0000       0.184080         5.0091 
  76   0.0000       0.189376         5.1532 
  77   0.0000       0.195264         5.3134 
  78   0.0000       0.200625         5.4593 
  79   0.0000       0.209153         5.6913 
  80   0.0000       0.220833         6.0092 
  81   0.0000       0.223097         6.0708 
  82   0.0000       0.227697         6.1959 
  83   0.0000       0.237670         6.4673 
  84   0.0000       0.247246         6.7279 
  85   0.0000       0.250172         6.8075 
  86   0.0000       0.256541         6.9808 
  87   0.0000       0.259712         7.0671 
  88   0.0000       0.262596         7.1456 
  89   0.0000       0.275387         7.4937 
  90   0.0000       0.280656         7.6370 
  91   0.0000       0.283467         7.7135 
  92   0.0000       0.288636         7.8542 
  93   0.0000       0.291211         7.9242 
  94   0.0000       0.294972         8.0266 
  95   0.0000       0.299784         8.1575 
  96   0.0000       0.312215         8.4958 
  97   0.0000       0.319280         8.6880 
  98   0.0000       0.321268         8.7422 
  99   0.0000       0.329090         8.9550 
 100   0.0000       0.334466         9.1013 
 101   0.0000       0.349074         9.4988 
 102   0.0000       0.355040         9.6611 
 103   0.0000       0.366341         9.9687 
 104   0.0000       0.369888        10.0652 
 105   0.0000       0.378233        10.2922 
 106   0.0000       0.386856        10.5269 
 107   0.0000       0.393557        10.7092 
 108   0.0000       0.405613        11.0373 
 109   0.0000       0.410042        11.1578 
 110   0.0000       0.422861        11.5066 
 111   0.0000       0.434272        11.8172 
 112   0.0000       0.440478        11.9860 
 113   0.0000       0.449185        12.2229 
 114   0.0000       0.451499        12.2859 
 115   0.0000       0.456180        12.4133 
 116   0.0000       0.470068        12.7912 
 117   0.0000       0.490744        13.3538 
 118   0.0000       0.500805        13.6276 
 119   0.0000       0.510845        13.9008 
 120   0.0000       0.526622        14.3301 
 121   0.0000       0.537363        14.6224 
 122   0.0000       0.542183        14.7536 
 123   0.0000       0.549998        14.9662 
 124   0.0000       0.565199        15.3798 
 125   0.0000       0.573476        15.6051 
 126   0.0000       0.577476        15.7139 
 127   0.0000       0.601524        16.3683 
 128   0.0000       0.628567        17.1042 
 129   0.0000       0.639324        17.3969 
 130   0.0000       0.659930        17.9576 
 131   0.0000       0.666682        18.1413 
 132   0.0000       0.670316        18.2402 
 133   0.0000       0.690729        18.7957 
 134   0.0000       0.714218        19.4349 
 135   0.0000       0.729463        19.8497 
 136   0.0000       0.755758        20.5652 
 137   0.0000       0.776611        21.1327 
 138   0.0000       0.786044        21.3893 
 139   0.0000       0.802512        21.8374 
 140   0.0000       0.809325        22.0229 
 141   0.0000       0.818853        22.2821 
 142   0.0000       0.830574        22.6011 
 143   0.0000       0.837412        22.7871 
 144   0.0000       0.840215        22.8634 
 145   0.0000       0.852157        23.1884 
 146   0.0000       0.859007        23.3748 
 147   0.0000       0.859953        23.4005 
 148   0.0000       0.865937        23.5633 
 149   0.0000       0.878090        23.8940 
 150   0.0000       0.889754        24.2114 
 151   0.0000       0.902408        24.5558 
 152   0.0000       0.914550        24.8862 
 153   0.0000       0.918434        24.9919 
 154   0.0000       0.922685        25.1075 
 155   0.0000       0.925738        25.1906 
 156   0.0000       0.927862        25.2484 
 157   0.0000       0.939395        25.5622 
 158   0.0000       0.946162        25.7464 
 159   0.0000       0.947599        25.7855 
 160   0.0000       0.955278        25.9944 
 161   0.0000       0.973197        26.4820 
 162   0.0000       0.979461        26.6525 
 163   0.0000       0.988111        26.8879 
 164   0.0000       0.996944        27.1282 
 165   0.0000       1.005612        27.3641 
 166   0.0000       1.026383        27.9293 
 167   0.0000       1.045980        28.4626 
 168   0.0000       1.049192        28.5500 
 169   0.0000       1.058534        28.8042 
 170   0.0000       1.078694        29.3527 
 171   0.0000       1.088404        29.6170 
 172   0.0000       1.113757        30.3069 
 173   0.0000       1.138482        30.9797 
 174   0.0000       1.148632        31.2559 
 175   0.0000       1.156363        31.4662 
 176   0.0000       1.170974        31.8638 
 177   0.0000       1.180113        32.1125 
 178   0.0000       1.190310        32.3900 
 179   0.0000       1.202696        32.7270 
 180   0.0000       1.218910        33.1682 
 181   0.0000       1.225341        33.3432 
 182   0.0000       1.233400        33.5625 
 183   0.0000       1.257063        34.2064 
 184   0.0000       1.269368        34.5413 
 185   0.0000       1.296140        35.2698 
 186   0.0000       1.329653        36.1817 
 187   0.0000       1.332522        36.2598 
 188   0.0000       1.359879        37.0042 
 189   0.0000       1.374127        37.3919 
 190   0.0000       1.381064        37.5807 
 191   0.0000       1.392511        37.8922 
 192   0.0000       1.411101        38.3980 
 193   0.0000       1.414577        38.4926 
 194   0.0000       1.421969        38.6937 
 195   0.0000       1.442082        39.2410 
 196   0.0000       1.461574        39.7715 
 197   0.0000       1.480131        40.2764 
 198   0.0000       1.482569        40.3427 
 199   0.0000       1.500058        40.8186 
 200   0.0000       1.504404        40.9369 
 201   0.0000       1.514934        41.2234 
 202   0.0000       1.531998        41.6878 
 203   0.0000       1.535880        41.7934 
 204   0.0000       1.549574        42.1660 
 205   0.0000       1.567858        42.6636 
 206   0.0000       1.578495        42.9530 
 207   0.0000       1.578961        42.9657 
 208   0.0000       1.585462        43.1426 
 209   0.0000       1.599664        43.5291 
 210   0.0000       1.605037        43.6753 
 211   0.0000       1.624298        44.1994 
 212   0.0000       1.628673        44.3184 
 213   0.0000       1.638702        44.5913 
 214   0.0000       1.655967        45.0612 
 215   0.0000       1.680288        45.7230 
 216   0.0000       1.680521        45.7293 
 217   0.0000       1.686249        45.8852 
 218   0.0000       1.696453        46.1628 
 219   0.0000       1.702863        46.3373 
 220   0.0000       1.726828        46.9894 
 221   0.0000       1.729032        47.0494 
 222   0.0000       1.734622        47.2015 
 223   0.0000       1.740011        47.3481 
 224   0.0000       1.748591        47.5816 
 225   0.0000       1.769887        48.1611 
 226   0.0000       1.780229        48.4425 
 227   0.0000       1.784686        48.5638 
 228   0.0000       1.794651        48.8349 
 229   0.0000       1.812402        49.3180 
 230   0.0000       1.838355        50.0242 
 231   0.0000       1.845501        50.2186 
[...]
  6 C s       :     2.875915  s :     2.875915
      pz      :     1.020787  p :     3.040901
      px      :     1.003825
      py      :     1.016290
      dz2     :     0.023830  d :     0.179960
      dxz     :     0.047501
      dyz     :     0.044819
      dx2y2   :     0.040270
      dxy     :     0.023540
  7 C s       :     2.929780  s :     2.929780
      pz      :     1.038287  p :     3.004440
      px      :     0.938848
      py      :     1.027305
      dz2     :     0.026628  d :     0.199726
      dxz     :     0.056773
      dyz     :     0.027557
      dx2y2   :     0.049607
      dxy     :     0.039162
  8 N s       :     3.124939  s :     3.124939
      pz      :     1.278668  p :     3.831663
      px      :     1.229952
      py      :     1.323043
      dz2     :     0.005942  d :     0.059549
      dxz     :     0.018213
      dyz     :     0.008146
      dx2y2   :     0.018004
      dxy     :     0.009244
  9 H s       :     0.877696  s :     0.877696
      pz      :     0.033791  p :     0.089126
      px      :     0.014236
      py      :     0.041099
 10 H s       :     0.798774  s :     0.798774
      pz      :     0.060129  p :     0.139628
      px      :     0.046463
      py      :     0.033035
 11 H s       :     0.796947  s :     0.796947
      pz      :     0.045512  p :     0.139813
      px      :     0.026172
      py      :     0.068129
 12 H s       :     0.755432  s :     0.755432
      pz      :     0.079375  p :     0.154077
      px      :     0.042152
      py      :     0.032550
 13 C s       :     2.842667  s :     2.842667
      pz      :     1.006234  p :     2.773165
      px      :     0.828732
      py      :     0.938199
      dz2     :     0.115059  d :     0.489018
      dxz     :     0.106759
      dyz     :     0.163598
      dx2y2   :     0.053888
      dxy     :     0.049714
 14 N s       :     3.063162  s :     3.063162
      pz      :     1.127005  p :     3.815069
      px      :     1.539414
      py      :     1.148650
      dz2     :     0.021585  d :     0.080499
      dxz     :     0.003239
      dyz     :     0.027505
      dx2y2   :     0.015458
      dxy     :     0.012712
 15 H s       :     0.774893  s :     0.774893
      pz      :     0.076183  p :     0.145832
      px      :     0.048133
      py      :     0.021517
 16 O s       :     3.585362  s :     3.585362
      pz      :     1.439805  p :     4.583067
      px      :     1.492351
      py      :     1.650911
      dz2     :     0.016573  d :     0.031855
      dxz     :     0.006036
      dyz     :     0.008348
      dx2y2   :     0.000465
      dxy     :     0.000433
 17 C s       :     2.872043  s :     2.872043
      pz      :     1.002618  p :     3.065345
      px      :     1.037724
      py      :     1.025004
      dz2     :     0.029050  d :     0.105744
      dxz     :     0.012710
      dyz     :     0.026736
      dx2y2   :     0.020155
      dxy     :     0.017093
 18 H s       :     0.864825  s :     0.864825
      pz      :     0.015820  p :     0.081546
      px      :     0.023787
      py      :     0.041939
 19 H s       :     0.864339  s :     0.864339
      pz      :     0.017051  p :     0.081564
      px      :     0.046151
      py      :     0.018361
 20 H s       :     0.884985  s :     0.884985
      pz      :     0.044099  p :     0.081426
      px      :     0.017411
      py      :     0.019916
 21 C s       :     2.856561  s :     2.856561
      pz      :     1.043780  p :     2.973315
      px      :     1.043959
      py      :     0.885576
      dz2     :     0.030974  d :     0.159219
      dxz     :     0.008720
      dyz     :     0.029255
      dx2y2   :     0.034738
      dxy     :     0.055532
 22 H s       :     0.889115  s :     0.889115
      pz      :     0.021321  p :     0.079246
      px      :     0.035767
      py      :     0.022158
 23 H s       :     0.889393  s :     0.889393
      pz      :     0.018381  p :     0.079258
      px      :     0.040643
      py      :     0.020235
 24 H s       :     0.860312  s :     0.860312
      pz      :     0.052909  p :     0.084585
      px      :     0.017405
      py      :     0.014271
 25 H s       :     0.850237  s :     0.850237
      pz      :     0.037581  p :     0.082892
      px      :     0.030255
      py      :     0.015056
 26 H s       :     0.878347  s :     0.878347
      pz      :     0.030726  p :     0.080165
      px      :     0.018797
      py      :     0.030642
 27 H s       :     0.858872  s :     0.858872
      pz      :     0.024473  p :     0.082646
      px      :     0.016489
      py      :     0.041683
 28 H s       :     0.872483  s :     0.872483
      pz      :     0.024236  p :     0.080243
      px      :     0.016412
      py      :     0.039595
 29 H s       :     0.867730  s :     0.867730
      pz      :     0.031756  p :     0.081578
      px      :     0.018893
      py      :     0.030928
 30 H s       :     0.873234  s :     0.873234
      pz      :     0.032732  p :     0.080274
      px      :     0.017988
      py      :     0.029554
 31 H s       :     0.876651  s :     0.876651
      pz      :     0.022621  p :     0.078250
      px      :     0.016241
      py      :     0.039388

SPIN
  0 N s       :     0.000024  s :     0.000024
      pz      :     0.000013  p :     0.000047
      px      :     0.000018
      py      :     0.000017
      dz2     :     0.000001  d :    -0.000002
      dxz     :    -0.000001
      dyz     :    -0.000000
      dx2y2   :    -0.000001
      dxy     :    -0.000001
  1 C s       :    -0.000027  s :    -0.000027
      pz      :     0.000005  p :    -0.000083
      px      :    -0.000126
      py      :     0.000038
      dz2     :     0.000006  d :     0.000079
      dxz     :     0.000036
      dyz     :     0.000021
      dx2y2   :     0.000001
      dxy     :     0.000016
  2 C s       :     0.000004  s :     0.000004
      pz      :    -0.000000  p :     0.000003
      px      :    -0.000000
      py      :     0.000003
      dz2     :     0.000001  d :    -0.000005
      dxz     :    -0.000002
      dyz     :    -0.000001
      dx2y2   :     0.000001
      dxy     :    -0.000004
  3 O s       :     0.000003  s :     0.000003
      pz      :    -0.000001  p :    -0.000008
      px      :    -0.000011
      py      :     0.000004
      dz2     :     0.000000  d :     0.000000
      dxz     :     0.000000
      dyz     :     0.000000
      dx2y2   :    -0.000000
      dxy     :     0.000000
  4 C s       :    -0.000078  s :    -0.000078
      pz      :     0.000302  p :     0.000932
      px      :     0.000140
      py      :     0.000490
      dz2     :    -0.000012  d :     0.000180
      dxz     :     0.000021
      dyz     :     0.000116
      dx2y2   :    -0.000021
      dxy     :     0.000075
  5 C s       :     0.003511  s :     0.003511
      pz      :     0.001014  p :     0.005347
      px      :     0.002023
      py      :     0.002310
      dz2     :     0.000139  d :    -0.000486
      dxz     :    -0.000368
      dyz     :     0.000117
      dx2y2   :    -0.000178
      dxy     :    -0.000196
  6 C s       :     0.003498  s :     0.003498
      pz      :    -0.006012  p :    -0.016181
      px      :    -0.006259
      py      :    -0.003911
      dz2     :     0.007923  d :     0.029701
      dxz     :     0.001213
      dyz     :     0.015266
      dx2y2   :     0.002623
      dxy     :     0.002678
  7 C s       :     0.048433  s :     0.048433
      pz      :     0.213407  p :     0.664548
      px      :     0.087667
      py      :     0.363474
      dz2     :     0.000573  d :     0.005343
      dxz     :     0.002236
      dyz     :     0.000432
      dx2y2   :    -0.000382
      dxy     :     0.002485
  8 N s       :     0.015134  s :     0.015134
      pz      :     0.056389  p :     0.143895
      px      :     0.032634
      py      :     0.054872
      dz2     :     0.000433  d :     0.010426
      dxz     :     0.003509
      dyz     :     0.000148
      dx2y2   :     0.002546
      dxy     :     0.003790
  9 H s       :    -0.008678  s :    -0.008678
      pz      :     0.009781  p :     0.024045
      px      :     0.002606
      py      :     0.011658
 10 H s       :     0.002596  s :     0.002596
      pz      :     0.001606  p :     0.006100
      px      :     0.001384
      py      :     0.003110
 11 H s       :     0.005797  s :     0.005797
      pz      :     0.002968  p :     0.006822
      px      :     0.000723
      py      :     0.003131
 12 H s       :     0.000001  s :     0.000001
      pz      :     0.000003  p :     0.000005
      px      :     0.000000
      py      :     0.000002
 13 C s       :    -0.000000  s :    -0.000000
      pz      :     0.000000  p :    -0.000012
      px      :    -0.000009
      py      :    -0.000003
      dz2     :    -0.000000  d :     0.000001
      dxz     :    -0.000001
      dyz     :     0.000002
      dx2y2   :    -0.000000
      dxy     :     0.000000
 14 N s       :    -0.000001  s :    -0.000001
      pz      :     0.000005  p :    -0.000005
      px      :    -0.000013
      py      :     0.000004
      dz2     :     0.000000  d :     0.000001
      dxz     :     0.000000
      dyz     :     0.000000
      dx2y2   :     0.000000
      dxy     :     0.000000
 15 H s       :     0.000016  s :     0.000016
      pz      :     0.000002  p :     0.000005
      px      :    -0.000000
      py      :     0.000004
 16 O s       :     0.000002  s :     0.000002
      pz      :     0.000002  p :     0.000001
      px      :    -0.000009
      py      :     0.000008
      dz2     :     0.000000  d :     0.000000
      dxz     :    -0.000000
      dyz     :    -0.000000
      dx2y2   :     0.000000
      dxy     :     0.000000
 17 C s       :     0.000015  s :     0.000015
      pz      :     0.000001  p :     0.000003
      px      :     0.000000
      py      :     0.000002
      dz2     :     0.000000  d :    -0.000001
      dxz     :    -0.000000
      dyz     :    -0.000000
      dx2y2   :    -0.000000
      dxy     :    -0.000000
 18 H s       :    -0.000000  s :    -0.000000
      pz      :     0.000000  p :     0.000000
      px      :    -0.000000
      py      :     0.000000
 19 H s       :    -0.000001  s :    -0.000001
      pz      :     0.000000  p :     0.000000
      px      :     0.000000
      py      :     0.000000
 20 H s       :     0.000000  s :     0.000000
      pz      :     0.000000  p :     0.000000
      px      :    -0.000000
      py      :     0.000000
 21 C s       :     0.000001  s :     0.000001
      pz      :     0.000000  p :     0.000002
      px      :     0.000000
      py      :     0.000002
      dz2     :     0.000000  d :    -0.000001
      dxz     :    -0.000000
      dyz     :     0.000000
      dx2y2   :    -0.000000
      dxy     :    -0.000001
 22 H s       :    -0.000001  s :    -0.000001
      pz      :     0.000000  p :     0.000000
      px      :     0.000000
      py      :     0.000000
 23 H s       :    -0.000001  s :    -0.000001
      pz      :     0.000000  p :     0.000000
      px      :     0.000000
      py      :     0.000000
 24 H s       :     0.000000  s :     0.000000
      pz      :     0.000000  p :     0.000000
      px      :     0.000000
      py      :     0.000000
 25 H s       :     0.000023  s :     0.000023
      pz      :    -0.000000  p :    -0.000007
      px      :    -0.000008
      py      :     0.000001
 26 H s       :     0.000329  s :     0.000329
      pz      :    -0.000009  p :     0.000180
      px      :     0.000184
      py      :     0.000005
 27 H s       :     0.000085  s :     0.000085
      pz      :    -0.000002  p :     0.000001
      px      :     0.000004
      py      :    -0.000001
 28 H s       :    -0.000164  s :    -0.000164
      pz      :     0.000016  p :     0.000215
      px      :     0.000170
      py      :     0.000029
 29 H s       :    -0.000285  s :    -0.000285
      pz      :     0.000502  p :     0.000573
      px      :    -0.000009
      py      :     0.000081
 30 H s       :     0.035483  s :     0.035483
      pz      :     0.000690  p :     0.000554
      px      :     0.000114
      py      :    -0.000250
 31 H s       :     0.012805  s :     0.012805
      pz      :    -0.000406  p :    -0.000745
      px      :    -0.000210
      py      :    -0.000129


                      *****************************
                      * MAYER POPULATION ANALYSIS *
                      *****************************

  NA   - Mulliken gross atomic population
  ZA   - Total nuclear charge
  QA   - Mulliken gross atomic charge
  VA   - Mayer's total valence
  BVA  - Mayer's bonded valence
  FA   - Mayer's free valence

  ATOM       NA         ZA         QA         VA         BVA        FA
  0 N      7.1153     7.0000    -0.1153     3.2779     3.2779    -0.0000
  1 C      6.1265     6.0000    -0.1265     4.0542     4.0542     0.0000
  2 C      5.9115     6.0000     0.0885     4.0300     4.0300     0.0000
  3 O      8.3335     8.0000    -0.3335     2.1112     2.1112     0.0000
  4 C      6.2809     6.0000    -0.2809     3.9289     3.9289     0.0000
  5 C      6.2596     6.0000    -0.2596     3.9658     3.9657     0.0001
  6 C      6.2413     6.0000    -0.2413     3.9598     3.9584     0.0014
  7 C      6.2555     6.0000    -0.2555     3.7516     3.1848     0.5668
  8 N      7.3992     7.0000    -0.3992     3.1359     3.1017     0.0342
  9 H      0.8544     1.0000     0.1456     0.9712     0.9700     0.0012
 10 H      0.7727     1.0000     0.2273     0.9542     0.9542     0.0001
 11 H      0.7748     1.0000     0.2252     0.9560     0.9559     0.0001
 12 H      0.7476     1.0000     0.2524     0.9689     0.9689     0.0000
 13 C      5.8298     6.0000     0.1702     3.9727     3.9727     0.0000
 14 N      7.0918     7.0000    -0.0918     3.1807     3.1807    -0.0000
 15 H      0.7700     1.0000     0.2300     0.9628     0.9628     0.0000
 16 O      8.3289     8.0000    -0.3289     2.1115     2.1115     0.0000
 17 C      6.5533     6.0000    -0.5533     3.8595     3.8595     0.0000
 18 H      0.8154     1.0000     0.1846     0.9593     0.9593     0.0000
 19 H      0.8147     1.0000     0.1853     0.9589     0.9589     0.0000
 20 H      0.8513     1.0000     0.1487     0.9715     0.9715    -0.0000
 21 C      6.4585     6.0000    -0.4585     3.8923     3.8923     0.0000
 22 H      0.8369     1.0000     0.1631     0.9560     0.9560     0.0000
 23 H      0.8385     1.0000     0.1615     0.9568     0.9568     0.0000
 24 H      0.7997     1.0000     0.2003     0.9659     0.9659     0.0000
 25 H      0.8365     1.0000     0.1635     0.9490     0.9490     0.0000
 26 H      0.8740     1.0000     0.1260     0.9730     0.9730     0.0000
 27 H      0.8218     1.0000     0.1782     0.9633     0.9633     0.0000
 28 H      0.8516     1.0000     0.1484     0.9716     0.9716     0.0000
 29 H      0.8333     1.0000     0.1667     0.9673     0.9673     0.0000
 30 H      0.8622     1.0000     0.1378     0.9658     0.9633     0.0025
 31 H      0.8589     1.0000     0.1411     0.9676     0.9674     0.0002

  Mayer bond orders larger than 0.100000
B(  0-N ,  1-C ) :   1.0211 B(  0-N , 12-H ) :   0.8927 B(  0-N , 13-C ) :   1.2105 
B(  1-C ,  2-C ) :   0.8997 B(  1-C ,  4-C ) :   0.9282 B(  1-C , 16-O ) :   0.1431 
B(  1-C , 25-H ) :   0.9727 B(  2-C ,  3-O ) :   1.8708 B(  2-C , 14-N ) :   1.1840 
B(  4-C ,  5-C ) :   0.9613 B(  4-C , 26-H ) :   0.9779 B(  4-C , 27-H ) :   0.9634 
B(  5-C ,  6-C ) :   0.9722 B(  5-C , 28-H ) :   0.9666 B(  5-C , 29-H ) :   0.9680 
B(  6-C ,  7-C ) :   0.9863 B(  6-C , 30-H ) :   0.9610 B(  6-C , 31-H ) :   0.9715 
B(  7-C ,  8-N ) :   1.1762 B(  7-C ,  9-H ) :   0.9720 B(  8-N , 10-H ) :   0.9420 
B(  8-N , 11-H ) :   0.9415 B( 13-C , 16-O ) :   1.8572 B( 13-C , 17-C ) :   0.8942 
B( 14-N , 15-H ) :   0.9300 B( 14-N , 21-C ) :   0.9705 B( 17-C , 18-H ) :   0.9600 
B( 17-C , 19-H ) :   0.9585 B( 17-C , 20-H ) :   0.9760 B( 21-C , 22-H ) :   0.9610 
B( 21-C , 23-H ) :   0.9589 B( 21-C , 24-H ) :   0.9430 

-------
TIMINGS
-------

Total SCF time: 0 days 0 hours 0 min 15 sec 

Total time                  ....      15.427 sec
Sum of individual times     ....      14.595 sec  ( 94.6%)

Fock matrix formation       ....      12.582 sec  ( 81.6%)
  Split-RI-J                ....       1.020 sec  (  8.1% of F)
  Chain of spheres X        ....       8.822 sec  ( 70.1% of F)
  XC integration            ....       2.474 sec  ( 19.7% of F)
    Basis function eval.    ....       0.252 sec  ( 10.2% of XC)
    Density eval.           ....       0.360 sec  ( 14.6% of XC)
    XC-Functional eval.     ....       0.058 sec  (  2.3% of XC)
    XC-Potential eval.      ....       0.221 sec  (  8.9% of XC)
Diagonalization             ....       0.414 sec  (  2.7%)
Density matrix formation    ....       0.019 sec  (  0.1%)
Population analysis         ....       0.075 sec  (  0.5%)
Initial guess               ....       0.058 sec  (  0.4%)
Orbital Transformation      ....       0.000 sec  (  0.0%)
Orbital Orthonormalization  ....       0.041 sec  (  0.3%)
DIIS solution               ....       0.201 sec  (  1.3%)
Grid generation             ....       1.247 sec  (  8.1%)

Maximum memory used throughout the entire SCF-calculation: 83.9 MB

-------------------------   --------------------
FINAL SINGLE POINT ENERGY      -668.229955361421
-------------------------   --------------------

                                *** OPTIMIZATION RUN DONE ***

                            ***************************************
                            *     ORCA property calculations      *
                            ***************************************

                                    ---------------------
                                    Active property flags
                                    ---------------------
   (+) Dipole Moment


------------------------------------------------------------------------------
                       ORCA ELECTRIC PROPERTIES CALCULATION
------------------------------------------------------------------------------

Dipole Moment Calculation                       ... on
Quadrupole Moment Calculation                   ... off
Polarizability Calculation                      ... off
GBWName                                         ... opt.gbw
Electron density                                ... opt.scfp
The origin for moment calculation is the CENTER OF MASS  = ( 0.080056, -0.041975  0.003500)

-------------
DIPOLE MOMENT
-------------
                                X             Y             Z
Electronic contribution:      7.59370      -0.58778      -0.17175
Nuclear contribution   :     -8.25787       1.45412       0.17825
                        -----------------------------------------
Total Dipole Moment    :     -0.66417       0.86634       0.00650
                        -----------------------------------------
Magnitude (a.u.)       :      1.09165
Magnitude (Debye)      :      2.77476



--------------------
Rotational spectrum 
--------------------
 
Rotational constants in cm-1:     0.019564     0.013286     0.008985 
Rotational constants in MHz :   586.499347   398.317486   269.352650 

 Dipole components along the rotational axes: 
x,y,z [a.u.] :    -0.564144     0.934519    -0.011150 
x,y,z [Debye]:    -1.433939     2.375357    -0.028342 

 

Timings for individual modules:

Sum of individual times         ...     1219.538 sec (=  20.326 min)
GTO integral calculation        ...      102.199 sec (=   1.703 min)   8.4 %
SCF iterations                  ...      813.803 sec (=  13.563 min)  66.7 %
SCF Gradient evaluation         ...      301.679 sec (=   5.028 min)  24.7 %
Geometry relaxation             ...        1.856 sec (=   0.031 min)   0.2 %
                             ****ORCA TERMINATED NORMALLY****
TOTAL RUN TIME: 0 days 0 hours 21 minutes 53 seconds 90 msec
