
                                 *****************
                                 * O   R   C   A *
                                 *****************

                                            #,                                       
                                            ###                                      
                                            ####                                     
                                            #####                                    
                                            ######                                   
                                           ########,                                 
                                     ,,################,,,,,                         
                               ,,#################################,,                 
                          ,,##########################################,,             
                       ,#########################################, ''#####,          
                    ,#############################################,,   '####,        
                  ,##################################################,,,,####,       
                ,###########''''           ''''###############################       
              ,#####''   ,,,,##########,,,,          '''####'''          '####       
            ,##' ,,,,###########################,,,                        '##       
           ' ,,###''''                  '''############,,,                           
         ,,##''                                '''############,,,,        ,,,,,,###''
      ,#''                                            '''#######################'''  
     '                                                          ''''####''''         
             ,#######,   #######,   ,#######,      ##                                
            ,#'     '#,  ##    ##  ,#'     '#,    #''#        ######   ,####,        
            ##       ##  ##   ,#'  ##            #'  '#       #        #'  '#        
            ##       ##  #######   ##           ,######,      #####,   #    #        
            '#,     ,#'  ##    ##  '#,     ,#' ,#      #,         ##   #,  ,#        
             '#######'   ##     ##  '#######'  #'      '#     #####' # '####'        



                  #######################################################
                  #                        -***-                        #
                  #          Department of theory and spectroscopy      #
                  #    Directorship and core code : Frank Neese         #
                  #        Max Planck Institute fuer Kohlenforschung    #
                  #                Kaiser Wilhelm Platz 1               #
                  #                 D-45470 Muelheim/Ruhr               #
                  #                      Germany                        #
                  #                                                     #
                  #                  All rights reserved                #
                  #                        -***-                        #
                  #######################################################


                         Program Version 5.0.4 -  RELEASE  -


 With contributions from (in alphabetic order):
   Daniel Aravena         : Magnetic Suceptibility
   Michael Atanasov       : Ab Initio Ligand Field Theory (pilot matlab implementation)
   Alexander A. Auer      : GIAO ZORA, VPT2 properties, NMR spectrum
   Ute Becker             : Parallelization
   Giovanni Bistoni       : ED, misc. LED, open-shell LED, HFLD
   Martin Brehm           : Molecular dynamics
   Dmytro Bykov           : SCF Hessian
   Vijay G. Chilkuri      : MRCI spin determinant printing, contributions to CSF-ICE
   Dipayan Datta          : RHF DLPNO-CCSD density
   Achintya Kumar Dutta   : EOM-CC, STEOM-CC
   Dmitry Ganyushin       : Spin-Orbit,Spin-Spin,Magnetic field MRCI
   Miquel Garcia          : C-PCM and meta-GGA Hessian, CC/C-PCM, Gaussian charge scheme
   Yang Guo               : DLPNO-NEVPT2, F12-NEVPT2, CIM, IAO-localization
   Andreas Hansen         : Spin unrestricted coupled pair/coupled cluster methods
   Benjamin Helmich-Paris : MC-RPA, TRAH-SCF, COSX integrals
   Lee Huntington         : MR-EOM, pCC
   Robert Izsak           : Overlap fitted RIJCOSX, COSX-SCS-MP3, EOM
   Marcus Kettner         : VPT2
   Christian Kollmar      : KDIIS, OOCD, Brueckner-CCSD(T), CCSD density, CASPT2, CASPT2-K
   Simone Kossmann        : Meta GGA functionals, TD-DFT gradient, OOMP2, MP2 Hessian
   Martin Krupicka        : Initial AUTO-CI
   Lucas Lang             : DCDCAS
   Marvin Lechner         : AUTO-CI (C++ implementation), FIC-MRCC
   Dagmar Lenk            : GEPOL surface, SMD
   Dimitrios Liakos       : Extrapolation schemes; Compound Job, initial MDCI parallelization
   Dimitrios Manganas     : Further ROCIS development; embedding schemes
   Dimitrios Pantazis     : SARC Basis sets
   Anastasios Papadopoulos: AUTO-CI, single reference methods and gradients
   Taras Petrenko         : DFT Hessian,TD-DFT gradient, ASA, ECA, R-Raman, ABS, FL, XAS/XES, NRVS
   Peter Pinski           : DLPNO-MP2, DLPNO-MP2 Gradient
   Christoph Reimann      : Effective Core Potentials
   Marius Retegan         : Local ZFS, SOC
   Christoph Riplinger    : Optimizer, TS searches, QM/MM, DLPNO-CCSD(T), (RO)-DLPNO pert. Triples
   Tobias Risthaus        : Range-separated hybrids, TD-DFT gradient, RPA, STAB
   Michael Roemelt        : Original ROCIS implementation
   Masaaki Saitow         : Open-shell DLPNO-CCSD energy and density
   Barbara Sandhoefer     : DKH picture change effects
   Avijit Sen             : IP-ROCIS
   Kantharuban Sivalingam : CASSCF convergence, NEVPT2, FIC-MRCI
   Bernardo de Souza      : ESD, SOC TD-DFT
   Georgi Stoychev        : AutoAux, RI-MP2 NMR, DLPNO-MP2 response
   Willem Van den Heuvel  : Paramagnetic NMR
   Boris Wezisla          : Elementary symmetry handling
   Frank Wennmohs         : Technical directorship


 We gratefully acknowledge several colleagues who have allowed us to
 interface, adapt or use parts of their codes:
   Stefan Grimme, W. Hujo, H. Kruse, P. Pracht,  : VdW corrections, initial TS optimization,
                  C. Bannwarth, S. Ehlert          DFT functionals, gCP, sTDA/sTD-DF
   Ed Valeev, F. Pavosevic, A. Kumar             : LibInt (2-el integral package), F12 methods
   Garnet Chan, S. Sharma, J. Yang, R. Olivares  : DMRG
   Ulf Ekstrom                                   : XCFun DFT Library
   Mihaly Kallay                                 : mrcc  (arbitrary order and MRCC methods)
   Jiri Pittner, Ondrej Demel                    : Mk-CCSD
   Frank Weinhold                                : gennbo (NPA and NBO analysis)
   Christopher J. Cramer and Donald G. Truhlar   : smd solvation model
   Lars Goerigk                                  : TD-DFT with DH, B97 family of functionals
   V. Asgeirsson, H. Jonsson                     : NEB implementation
   FAccTs GmbH                                   : IRC, NEB, NEB-TS, DLPNO-Multilevel, CI-OPT
                                                   MM, QMMM, 2- and 3-layer-ONIOM, Crystal-QMMM,
                                                   LR-CPCM, SF, NACMEs, symmetry and pop. for TD-DFT,
                                                   nearIR, NL-DFT gradient (VV10), updates on ESD,
                                                   ML-optimized integration grids
   S Lehtola, MJT Oliveira, MAL Marques          : LibXC Library
   Liviu Ungur et al                             : ANISO software


 Your calculation uses the libint2 library for the computation of 2-el integrals
 For citations please refer to: http://libint.valeyev.net

 Your ORCA version has been built with support for libXC version: 5.1.0
 For citations please refer to: https://tddft.org/programs/libxc/

 This ORCA versions uses:
   CBLAS   interface :  Fast vector & matrix operations
   LAPACKE interface :  Fast linear algebra routines
   SCALAPACK package :  Parallel linear algebra routines
   Shared memory     :  Shared parallel matrices
   BLAS/LAPACK       :  OpenBLAS 0.3.15  USE64BITINT DYNAMIC_ARCH NO_AFFINITY Zen SINGLE_THREADED
        Core in use  :  Zen
   Copyright (c) 2011-2014, The OpenBLAS Project




***************************************
The coordinates will be read from file: opt.xyz
***************************************


================================================================================

----- Orbital basis set information -----
Your calculation utilizes the basis: EPR-II
   V. Barone, in Recent Advances in Density Functional Methods, Part 1 (ed. D. P. Chong), World Scientific, Singapore, 1995, p. 287.

----- AuxJ basis set information -----
Your calculation utilizes the AutoAux generation procedure.
  G. L. Stoychev, A. A. Auer, F. Neese, J. Chem. Theory Comput. 13, 554 (2017)

----- AuxC basis set information -----
Your calculation utilizes the AutoAux generation procedure.
  G. L. Stoychev, A. A. Auer, F. Neese, J. Chem. Theory Comput. 13, 554 (2017)

----- AuxJK basis set information -----
Your calculation utilizes the AutoAux generation procedure.
  G. L. Stoychev, A. A. Auer, F. Neese, J. Chem. Theory Comput. 13, 554 (2017)

================================================================================
                                        WARNINGS
                       Please study these warnings very carefully!
================================================================================


WARNING: your system is open-shell and RHF/RKS was chosen
  ===> : WILL SWITCH to UHF/UKS


INFO   : the flag for use of the SHARK integral package has been found!

================================================================================
                                       INPUT FILE
================================================================================
NAME = epr_info.inp
|  1> ! B3LYP EPR-II AUTOAUX
|  2> %pal nprocs 16 end
|  3> *XYZFile 1 2 opt.xyz
|  4> %EPRNMR
|  5>         GTENSOR   TRUE
|  6>         NUCLEI    = 1,4,9,10,11,12,13,14,15,16,17,18,20,21,23,32,33 {SHIFT, AISO, ADIP, AORB}
|  7>         ORI       GIAO
|  8> END
|  9> 
| 10>                          ****END OF INPUT****
================================================================================

                       ****************************
                       * Single Point Calculation *
                       ****************************

---------------------------------
CARTESIAN COORDINATES (ANGSTROEM)
---------------------------------
  N     -7.838166    1.499810    0.369687
  C     -6.418375    1.691405    0.704709
  C     -6.003048    0.379748    1.440199
  O     -6.836146   -0.501945    1.645777
  C     -6.165133    2.912765    1.560903
  C     -6.180620    4.302871    0.984545
  C     -5.088001    4.590245   -0.089258
  C     -5.545418    5.587117   -1.162981
  N     -6.412804    4.891450   -2.198798
  H     -6.079899    5.033220    1.792783
  H     -7.173411    4.477148    0.540898
  H     -4.760184    3.666705   -0.581755
  H     -4.198036    5.001355    0.395781
  H     -4.705570    6.037646   -1.696177
  H     -6.149617    6.388343   -0.731385
  H     -6.989888    5.557001   -2.716829
  H     -7.053099    4.147808   -1.765277
  H     -8.234283    0.681440    0.831588
  C     -8.496178    2.101102   -0.633789
  N     -4.702829    0.317235    1.812797
  H     -4.120555    1.123943    1.640651
  O     -7.984807    3.008824   -1.335194
  H     -5.830153    4.403499   -2.882250
  C     -4.126149   -0.822911    2.529744
  H     -4.903137   -1.577690    2.646079
  H     -3.292953   -1.247595    1.963000
  H     -3.772518   -0.516581    3.518558
  C     -9.913818    1.642258   -0.903696
  H    -10.584443    2.502002   -0.819257
  H     -9.970896    1.280002   -1.934200
  H    -10.246752    0.855469   -0.224760
  H     -5.858027    1.754549   -0.237368
  H     -6.303655    2.796443    2.633366

----------------------------
CARTESIAN COORDINATES (A.U.)
----------------------------
  NO LB      ZA    FRAG     MASS         X           Y           Z
   0 N     7.0000    0    14.007  -14.811988    2.834230    0.698608
   1 C     6.0000    0    12.011  -12.128971    3.196293    1.331707
   2 C     6.0000    0    12.011  -11.344116    0.717620    2.721583
   3 O     8.0000    0    15.999  -12.918443   -0.948539    3.110067
   4 C     6.0000    0    12.011  -11.650414    5.504328    2.949679
   5 C     6.0000    0    12.011  -11.679680    8.131249    1.860521
   6 C     6.0000    0    12.011   -9.614928    8.674306   -0.168674
   7 C     6.0000    0    12.011  -10.479321   10.558121   -2.197716
   8 N     7.0000    0    14.007  -12.118444    9.243501   -4.155127
   9 H     1.0000    0     1.008  -11.489343    9.511407    3.387868
  10 H     1.0000    0     1.008  -13.555781    8.460584    1.022150
  11 H     1.0000    0     1.008   -8.995444    6.929068   -1.099358
  12 H     1.0000    0     1.008   -7.933138    9.451191    0.747917
  13 H     1.0000    0     1.008   -8.892239   11.409497   -3.205310
  14 H     1.0000    0     1.008  -11.621093   12.072219   -1.382118
  15 H     1.0000    0     1.008  -13.208974   10.501209   -5.134063
  16 H     1.0000    0     1.008  -13.328426    7.838222   -3.335891
  17 H     1.0000    0     1.008  -15.560539    1.287735    1.571473
  18 C     6.0000    0    12.011  -16.055450    3.970507   -1.197688
  19 N     7.0000    0    14.007   -8.887059    0.599487    3.425690
  20 H     1.0000    0     1.008   -7.786720    2.123945    3.100381
  21 O     8.0000    0    15.999  -15.089099    5.685853   -2.523151
  22 H     1.0000    0     1.008  -11.017393    8.321407   -5.446664
  23 C     6.0000    0    12.011   -7.797293   -1.555077    4.780523
  24 H     1.0000    0     1.008   -9.265586   -2.981403    5.000365
  25 H     1.0000    0     1.008   -6.222779   -2.357612    3.709532
  26 H     1.0000    0     1.008   -7.129027   -0.976197    6.649111
  27 C     6.0000    0    12.011  -18.734401    3.103418   -1.707737
  28 H     1.0000    0     1.008  -20.001698    4.728099   -1.548171
  29 H     1.0000    0     1.008  -18.842263    2.418853   -3.655109
  30 H     1.0000    0     1.008  -19.363556    1.616602   -0.424735
  31 H     1.0000    0     1.008  -11.070066    3.315617   -0.448561
  32 H     1.0000    0     1.008  -11.912181    5.284512    4.976341

--------------------------------
INTERNAL COORDINATES (ANGSTROEM)
--------------------------------
 N      0   0   0     0.000000000000     0.00000000     0.00000000
 C      1   0   0     1.471310593857     0.00000000     0.00000000
 C      2   1   0     1.560092092344   104.75950339     0.00000000
 O      3   2   1     1.230324056567   120.06764283   357.94692309
 C      2   1   3     1.512917677957   113.29796334   238.19123990
 C      5   2   1     1.504933026735   121.81866088   283.74091766
 C      6   5   2     1.558671025739   115.27304337   296.99590864
 C      7   6   5     1.534882581854   113.12712014   147.73667407
 N      8   7   6     1.519614379316   110.46362883   280.17818518
 H      6   5   2     1.093984126937   109.43716361   174.07729436
 H      6   5   2     1.101284399062   108.04309793    59.13998746
 H      7   6   5     1.096787588007   111.32280736    24.89002643
 H      7   6   5     1.093760755789   109.52211352   268.23089266
 H      8   7   6     1.092070308814   112.35246004   160.57958528
 H      8   7   6     1.092380943378   111.39619430    38.72936425
 H      9   8   7     1.021929252478   111.69781182   159.73500354
 H      9   8   7     1.072809942641   112.49198899    37.28022518
 H      1   2   3     1.019798942240   112.09791650    10.60888879
 C      1   2   3     1.342198352303   125.80186955   205.03510585
 N      3   2   1     1.353996385515   115.09978635   178.15481694
 H     20   3   2     1.009681044439   118.03305803     3.35276441
 O     19   1   2     1.255957070348   122.79917038   353.05022592
 H      9   8   7     1.022098339279   110.42356845   278.79037061
 C     20   3   2     1.465095687115   123.26892999   179.14678571
 H     24  20   3     1.089465517711   108.09998047     2.59941529
 H     24  20   3     1.093513551127   110.39676391   122.04445089
 H     24  20   3     1.093913606743   110.58874164   243.16417520
 C     19   1   2     1.514295175631   117.15960183   173.10955149
 H     28  19   1     1.093630365447   108.79004043   122.13578525
 H     28  19   1     1.093813096890   108.48926184   238.82370734
 H     28  19   1     1.091254246569   113.15336784     0.36395601
 H      2   1   3     1.097946824836   107.73418720   115.36742572
 H      5   2   1     1.087610595709   116.76814055    83.66877294

---------------------------
INTERNAL COORDINATES (A.U.)
---------------------------
 N      0   0   0     0.000000000000     0.00000000     0.00000000
 C      1   0   0     2.780374080327     0.00000000     0.00000000
 C      2   1   0     2.948146798225   104.75950339     0.00000000
 O      3   2   1     2.324975522887   120.06764283   357.94692309
 C      2   1   3     2.859000074506   113.29796334   238.19123990
 C      5   2   1     2.843911270422   121.81866088   283.74091766
 C      6   5   2     2.945461371525   115.27304337   296.99590864
 C      7   6   5     2.900507727430   113.12712014   147.73667407
 N      8   7   6     2.871655006075   110.46362883   280.17818518
 H      6   5   2     2.067330394769   109.43716361   174.07729436
 H      6   5   2     2.081125909788   108.04309793    59.13998746
 H      7   6   5     2.072628168417   111.32280736    24.89002643
 H      7   6   5     2.066908284472   109.52211352   268.23089266
 H      8   7   6     2.063713802646   112.35246004   160.57958528
 H      8   7   6     2.064300816900   111.39619430    38.72936425
 H      9   8   7     1.931166415427   111.69781182   159.73500354
 H      9   8   7     2.027316985339   112.49198899    37.28022518
 H      1   2   3     1.927140712497   112.09791650    10.60888879
 C      1   2   3     2.536387303254   125.80186955   205.03510585
 N      3   2   1     2.558682354943   115.09978635   178.15481694
 H     20   3   2     1.908020656601   118.03305803     3.35276441
 O     19   1   2     2.373414898919   122.79917038   353.05022592
 H      9   8   7     1.931485943173   110.42356845   278.79037061
 C     20   3   2     2.768629608637   123.26892999   179.14678571
 H     24  20   3     2.058791460825   108.09998047     2.59941529
 H     24  20   3     2.066441135362   110.39676391   122.04445089
 H     24  20   3     2.067197130914   110.58874164   243.16417520
 C     19   1   2     2.861603167860   117.15960183   173.10955149
 H     28  19   1     2.066661882435   108.79004043   122.13578525
 H     28  19   1     2.067007194818   108.48926184   238.82370734
 H     28  19   1     2.062171668493   113.15336784     0.36395601
 H      2   1   3     2.074818808548   107.73418720   115.36742572
 H      5   2   1     2.055286166240   116.76814055    83.66877294

---------------------
BASIS SET INFORMATION
---------------------
There are 4 groups of distinct atoms

 Group   1 Type N   : 10s5p1d contracted to 6s2p1d pattern {511111/41/1}
 Group   2 Type C   : 10s5p1d contracted to 6s2p1d pattern {511111/41/1}
 Group   3 Type O   : 10s5p1d contracted to 6s2p1d pattern {511111/41/1}
 Group   4 Type H   : 6s1p contracted to 4s1p pattern {3111/1}

Atom   0N    basis set group =>   1
Atom   1C    basis set group =>   2
Atom   2C    basis set group =>   2
Atom   3O    basis set group =>   3
Atom   4C    basis set group =>   2
Atom   5C    basis set group =>   2
Atom   6C    basis set group =>   2
Atom   7C    basis set group =>   2
Atom   8N    basis set group =>   1
Atom   9H    basis set group =>   4
Atom  10H    basis set group =>   4
Atom  11H    basis set group =>   4
Atom  12H    basis set group =>   4
Atom  13H    basis set group =>   4
Atom  14H    basis set group =>   4
Atom  15H    basis set group =>   4
Atom  16H    basis set group =>   4
Atom  17H    basis set group =>   4
Atom  18C    basis set group =>   2
Atom  19N    basis set group =>   1
Atom  20H    basis set group =>   4
Atom  21O    basis set group =>   3
Atom  22H    basis set group =>   4
Atom  23C    basis set group =>   2
Atom  24H    basis set group =>   4
Atom  25H    basis set group =>   4
Atom  26H    basis set group =>   4
Atom  27C    basis set group =>   2
Atom  28H    basis set group =>   4
Atom  29H    basis set group =>   4
Atom  30H    basis set group =>   4
Atom  31H    basis set group =>   4
Atom  32H    basis set group =>   4
---------------------------------
AUXILIARY/J BASIS SET INFORMATION
---------------------------------
There are 4 groups of distinct atoms

 Group   1 Type N   : 17s13p12d2f contracted to 17s13p12d2f pattern {11111111111111111/1111111111111/111111111111/11}
 Group   2 Type C   : 17s13p12d2f contracted to 17s13p12d2f pattern {11111111111111111/1111111111111/111111111111/11}
 Group   3 Type O   : 17s13p12d2f contracted to 17s13p12d2f pattern {11111111111111111/1111111111111/111111111111/11}
 Group   4 Type H   : 15s6p1d contracted to 15s6p1d pattern {111111111111111/111111/1}

Atom   0N    basis set group =>   1
Atom   1C    basis set group =>   2
Atom   2C    basis set group =>   2
Atom   3O    basis set group =>   3
Atom   4C    basis set group =>   2
Atom   5C    basis set group =>   2
Atom   6C    basis set group =>   2
Atom   7C    basis set group =>   2
Atom   8N    basis set group =>   1
Atom   9H    basis set group =>   4
Atom  10H    basis set group =>   4
Atom  11H    basis set group =>   4
Atom  12H    basis set group =>   4
Atom  13H    basis set group =>   4
Atom  14H    basis set group =>   4
Atom  15H    basis set group =>   4
Atom  16H    basis set group =>   4
Atom  17H    basis set group =>   4
Atom  18C    basis set group =>   2
Atom  19N    basis set group =>   1
Atom  20H    basis set group =>   4
Atom  21O    basis set group =>   3
Atom  22H    basis set group =>   4
Atom  23C    basis set group =>   2
Atom  24H    basis set group =>   4
Atom  25H    basis set group =>   4
Atom  26H    basis set group =>   4
Atom  27C    basis set group =>   2
Atom  28H    basis set group =>   4
Atom  29H    basis set group =>   4
Atom  30H    basis set group =>   4
Atom  31H    basis set group =>   4
Atom  32H    basis set group =>   4
---------------------------------
AUXILIARY/C BASIS SET INFORMATION
---------------------------------
There are 4 groups of distinct atoms

 Group   1 Type N   : 17s13p12d2f contracted to 17s13p12d2f pattern {11111111111111111/1111111111111/111111111111/11}
 Group   2 Type C   : 17s13p12d2f contracted to 17s13p12d2f pattern {11111111111111111/1111111111111/111111111111/11}
 Group   3 Type O   : 17s13p12d2f contracted to 17s13p12d2f pattern {11111111111111111/1111111111111/111111111111/11}
 Group   4 Type H   : 15s6p1d contracted to 15s6p1d pattern {111111111111111/111111/1}

Atom   0N    basis set group =>   1
Atom   1C    basis set group =>   2
Atom   2C    basis set group =>   2
Atom   3O    basis set group =>   3
Atom   4C    basis set group =>   2
Atom   5C    basis set group =>   2
Atom   6C    basis set group =>   2
Atom   7C    basis set group =>   2
Atom   8N    basis set group =>   1
Atom   9H    basis set group =>   4
Atom  10H    basis set group =>   4
Atom  11H    basis set group =>   4
Atom  12H    basis set group =>   4
Atom  13H    basis set group =>   4
Atom  14H    basis set group =>   4
Atom  15H    basis set group =>   4
Atom  16H    basis set group =>   4
Atom  17H    basis set group =>   4
Atom  18C    basis set group =>   2
Atom  19N    basis set group =>   1
Atom  20H    basis set group =>   4
Atom  21O    basis set group =>   3
Atom  22H    basis set group =>   4
Atom  23C    basis set group =>   2
Atom  24H    basis set group =>   4
Atom  25H    basis set group =>   4
Atom  26H    basis set group =>   4
Atom  27C    basis set group =>   2
Atom  28H    basis set group =>   4
Atom  29H    basis set group =>   4
Atom  30H    basis set group =>   4
Atom  31H    basis set group =>   4
Atom  32H    basis set group =>   4
----------------------------------
AUXILIARY/JK BASIS SET INFORMATION
----------------------------------
There are 4 groups of distinct atoms

 Group   1 Type N   : 17s13p12d2f contracted to 17s13p12d2f pattern {11111111111111111/1111111111111/111111111111/11}
 Group   2 Type C   : 17s13p12d2f contracted to 17s13p12d2f pattern {11111111111111111/1111111111111/111111111111/11}
 Group   3 Type O   : 17s13p12d2f contracted to 17s13p12d2f pattern {11111111111111111/1111111111111/111111111111/11}
 Group   4 Type H   : 15s6p1d contracted to 15s6p1d pattern {111111111111111/111111/1}

Atom   0N    basis set group =>   1
Atom   1C    basis set group =>   2
Atom   2C    basis set group =>   2
Atom   3O    basis set group =>   3
Atom   4C    basis set group =>   2
Atom   5C    basis set group =>   2
Atom   6C    basis set group =>   2
Atom   7C    basis set group =>   2
Atom   8N    basis set group =>   1
Atom   9H    basis set group =>   4
Atom  10H    basis set group =>   4
Atom  11H    basis set group =>   4
Atom  12H    basis set group =>   4
Atom  13H    basis set group =>   4
Atom  14H    basis set group =>   4
Atom  15H    basis set group =>   4
Atom  16H    basis set group =>   4
Atom  17H    basis set group =>   4
Atom  18C    basis set group =>   2
Atom  19N    basis set group =>   1
Atom  20H    basis set group =>   4
Atom  21O    basis set group =>   3
Atom  22H    basis set group =>   4
Atom  23C    basis set group =>   2
Atom  24H    basis set group =>   4
Atom  25H    basis set group =>   4
Atom  26H    basis set group =>   4
Atom  27C    basis set group =>   2
Atom  28H    basis set group =>   4
Atom  29H    basis set group =>   4
Atom  30H    basis set group =>   4
Atom  31H    basis set group =>   4
Atom  32H    basis set group =>   4


           ************************************************************
           *        Program running with 16 parallel MPI-processes    *
           *              working on a common directory               *
           ************************************************************
------------------------------------------------------------------------------
                           ORCA GTO INTEGRAL CALCULATION
                           -- RI-GTO INTEGRALS CHOSEN --
------------------------------------------------------------------------------
------------------------------------------------------------------------------
                   ___                                                        
                  /   \      - P O W E R E D   B Y -                         
                 /     \                                                     
                 |  |  |   _    _      __       _____    __    __             
                 |  |  |  | |  | |    /  \     |  _  \  |  |  /  |          
                  \  \/   | |  | |   /    \    | | | |  |  | /  /          
                 / \  \   | |__| |  /  /\  \   | |_| |  |  |/  /          
                |  |  |   |  __  | /  /__\  \  |    /   |      \           
                |  |  |   | |  | | |   __   |  |    \   |  |\   \          
                \     /   | |  | | |  |  |  |  | |\  \  |  | \   \       
                 \___/    |_|  |_| |__|  |__|  |_| \__\ |__|  \__/        
                                                                              
                      - O R C A' S   B I G   F R I E N D -                    
                                      &                                       
                       - I N T E G R A L  F E E D E R -                       
                                                                              
 v1 FN, 2020, v2 2021                                                         
------------------------------------------------------------------------------


Reading SHARK input file epr_info.SHARKINP.tmp ... ok
----------------------
SHARK INTEGRAL PACKAGE
----------------------

Number of atoms                             ...     33
Number of basis functions                   ...    371
Number of shells                            ...    221
Maximum angular momentum                    ...      2
Integral batch strategy                     ... SHARK/LIBINT Hybrid
RI-J (if used) integral strategy            ... SPLIT-RIJ (Revised 2003 algorithm where possible)
Printlevel                                  ...      1
Contraction scheme used                     ... SEGMENTED contraction
Coulomb Range Separation                    ... NOT USED
Exchange Range Separation                   ... NOT USED
Finite Nucleus Model                        ... NOT USED
Auxiliary Coulomb fitting basis             ... AVAILABLE
   # of basis functions in Aux-J            ...   2542
   # of shells in Aux-J                     ...   1034
   Maximum angular momentum in Aux-J        ...      3
Auxiliary J/K fitting basis                 ... AVAILABLE
   # of basis functions in Aux-JK           ...   2542
   # of shells in Aux-JK                    ...   1034
   Maximum angular momentum in Aux-JK       ...      3
Auxiliary Correlation fitting basis         ... AVAILABLE
   # of basis functions in Aux-C            ...   2542
   # of shells in Aux-C                     ...   1034
   Maximum angular momentum in Aux-C        ...      3
Auxiliary 'external' fitting basis          ... NOT available
Integral threshold                          ...     1.000000e-10
Primitive cut-off                           ...     1.000000e-11
Primitive pair pre-selection threshold      ...     1.000000e-11

Calculating pre-screening integrals         ... done (  0.0 sec) Dimension = 221
Organizing shell pair data                  ... done (  0.0 sec)
Shell pair information
Total number of shell pairs                 ...     24531
Shell pairs after pre-screening             ...     16144
Total number of primitive shell pairs       ...     64184
Primitive shell pairs kept                  ...     30666
          la=0 lb=0:   7597 shell pairs
          la=1 lb=0:   5514 shell pairs
          la=1 lb=1:    945 shell pairs
          la=2 lb=0:   1471 shell pairs
          la=2 lb=1:    532 shell pairs
          la=2 lb=2:     85 shell pairs

Calculating one electron integrals          ... done (  0.0 sec)
Calculating RI/J V-Matrix + Cholesky decomp.... done (  0.3 sec)
Calculating RI/JK V-Matrix + Cholesky decomp... done (  0.4 sec)
Calculating RI/C V-Matrix + Cholesky decomp.... done (  0.3 sec)
Calculating Nuclear repulsion               ... done (  0.0 sec) ENN=    963.368217136377 Eh

SHARK setup successfully completed in   1.2 seconds

Maximum memory used throughout the entire GTOINT-calculation: 29.2 MB


           ************************************************************
           *        Program running with 16 parallel MPI-processes    *
           *              working on a common directory               *
           ************************************************************
-------------------------------------------------------------------------------
                                 ORCA SCF
-------------------------------------------------------------------------------

------------
SCF SETTINGS
------------
Hamiltonian:
 Density Functional     Method          .... DFT(GTOs)
 Exchange Functional    Exchange        .... B88
   X-Alpha parameter    XAlpha          ....  0.666667
   Becke's b parameter  XBeta           ....  0.004200
 Correlation Functional Correlation     .... LYP
 LDA part of GGA corr.  LDAOpt          .... VWN-5
 Gradients option       PostSCFGGA      .... off
 Hybrid DFT is turned on
   Fraction HF Exchange ScalHFX         ....  0.200000
   Scaling of DF-GGA-X  ScalDFX         ....  0.720000
   Scaling of DF-GGA-C  ScalDFC         ....  0.810000
   Scaling of DF-LDA-C  ScalLDAC        ....  1.000000
   Perturbative correction              ....  0.000000
   Density functional embedding theory  .... OFF
   NL short-range parameter             ....  4.800000
 RI-approximation to the Coulomb term is turned on
   Number of AuxJ basis functions       .... 2542
   RIJ-COSX (HFX calculated with COS-X)).... on


General Settings:
 Integral files         IntName         .... epr_info
 Hartree-Fock type      HFTyp           .... UHF
 Total Charge           Charge          ....    1
 Multiplicity           Mult            ....    2
 Number of Electrons    NEL             ....  109
 Basis Dimension        Dim             ....  371
 Nuclear Repulsion      ENuc            ....    963.3682171364 Eh

Convergence Acceleration:
 DIIS                   CNVDIIS         .... on
   Start iteration      DIISMaxIt       ....    12
   Startup error        DIISStart       ....  0.200000
   # of expansion vecs  DIISMaxEq       ....     5
   Bias factor          DIISBfac        ....   1.050
   Max. coefficient     DIISMaxC        ....  10.000
 Trust-Rad. Augm. Hess. CNVTRAH         .... auto
   Auto Start mean grad. ratio tolernc. ....  1.125000
   Auto Start start iteration           ....    20
   Auto Start num. interpolation iter.  ....    10
   Max. Number of Micro iterations      ....    16
   Max. Number of Macro iterations      .... Maxiter - #DIIS iter
   Number of Davidson start vectors     ....     2
   Converg. threshold I  (grad. norm)   ....   5.000e-05
   Converg. threshold II (energy diff.) ....   1.000e-06
   Grad. Scal. Fac. for Micro threshold ....   0.100
   Minimum threshold for Micro iter.    ....   0.010
   NR start threshold (gradient norm)   ....   0.001
   Initial trust radius                 ....   0.400
   Minimum AH scaling param. (alpha)    ....   1.000
   Maximum AH scaling param. (alpha)    .... 1000.000
   Orbital update algorithm             .... Taylor
   White noise on init. David. guess    .... on
   Maximum white noise                  ....   0.010
   Quad. conv. algorithm                .... NR
 SOSCF                  CNVSOSCF        .... off
 Level Shifting         CNVShift        .... on
   Level shift para.    LevelShift      ....    0.2500
   Turn off err/grad.   ShiftErr        ....    0.0010
 Zerner damping         CNVZerner       .... off
 Static damping         CNVDamp         .... on
   Fraction old density DampFac         ....    0.7000
   Max. Damping (<1)    DampMax         ....    0.9800
   Min. Damping (>=0)   DampMin         ....    0.0000
   Turn off err/grad.   DampErr         ....    0.1000
 Fernandez-Rico         CNVRico         .... off

SCF Procedure:
 Maximum # iterations   MaxIter         ....   125
 SCF integral mode      SCFMode         .... Direct
   Integral package                     .... SHARK and LIBINT hybrid scheme
 Reset frequency        DirectResetFreq ....    20
 Integral Threshold     Thresh          ....  1.000e-10 Eh
 Primitive CutOff       TCut            ....  1.000e-11 Eh

Convergence Tolerance:
 Convergence Check Mode ConvCheckMode   .... Total+1el-Energy
 Convergence forced     ConvForced      .... 0
 Energy Change          TolE            ....  1.000e-06 Eh
 1-El. energy change                    ....  1.000e-03 Eh
 DIIS Error             TolErr          ....  1.000e-06


Diagonalization of the overlap matrix:
Smallest eigenvalue                        ... 8.136e-04
Time for diagonalization                   ...    0.015 sec
Threshold for overlap eigenvalues          ... 1.000e-08
Number of eigenvalues below threshold      ... 0
Time for construction of square roots      ...    0.013 sec
Total time needed                          ...    0.028 sec

Time for model grid setup =    0.116 sec

------------------------------
INITIAL GUESS: MODEL POTENTIAL
------------------------------
Loading Hartree-Fock densities                     ... done
Calculating cut-offs                               ... done
Initializing the effective Hamiltonian             ... done
Setting up the integral package (SHARK)            ... done
Starting the Coulomb interaction                   ... done (   0.1 sec)
Reading the grid                                   ... done
Mapping shells                                     ... done
Starting the XC term evaluation                    ... done (   0.0 sec)
  promolecular density results
     # of electrons  =    109.990919272
     EX              =    -88.068386224
     EC              =     -3.695440081
     EX+EC           =    -91.763826305
Transforming the Hamiltonian                       ... done (   0.0 sec)
Diagonalizing the Hamiltonian                      ... done (   0.0 sec)
Back transforming the eigenvectors                 ... done (   0.0 sec)
Now organizing SCF variables                       ... done
                      ------------------
                      INITIAL GUESS DONE (   0.3 sec)
                      ------------------
-------------------
DFT GRID GENERATION
-------------------

General Integration Accuracy     IntAcc      ... 4.388
Radial Grid Type                 RadialGrid  ... OptM3 with GC (2021)
Angular Grid (max. ang.)         AngularGrid ... 4 (Lebedev-302)
Angular grid pruning method      GridPruning ... 4 (adaptive)
Weight generation scheme         WeightScheme... Becke
Basis function cutoff            BFCut       ... 1.0000e-10
Integration weight cutoff        WCut        ... 1.0000e-14
Angular grids for H and He will be reduced by one unit
Partially contracted basis set               ... off
Rotationally invariant grid construction     ... off

Total number of grid points                  ...   144593
Total number of batches                      ...     2278
Average number of points per batch           ...       63
Average number of grid points per atom       ...     4382
Time for grid setup =    0.611 sec

--------------------
COSX GRID GENERATION
--------------------

GRIDX 1
-------
General Integration Accuracy     IntAcc      ... 3.816
Radial Grid Type                 RadialGrid  ... OptM3 with GC (2021)
Angular Grid (max. ang.)         AngularGrid ... 1 (Lebedev-50)
Angular grid pruning method      GridPruning ... 4 (adaptive)
Weight generation scheme         WeightScheme... Becke
Basis function cutoff            BFCut       ... 1.0000e-10
Integration weight cutoff        WCut        ... 1.0000e-14
Angular grids for H and He will be reduced by one unit
Partially contracted basis set               ... on
Rotationally invariant grid construction     ... off

Total number of grid points                  ...    18446
Total number of batches                      ...      306
Average number of points per batch           ...       60
Average number of grid points per atom       ...      559
UseSFitting                                  ... on

GRIDX 2
-------
General Integration Accuracy     IntAcc      ... 4.020
Radial Grid Type                 RadialGrid  ... OptM3 with GC (2021)
Angular Grid (max. ang.)         AngularGrid ... 2 (Lebedev-110)
Angular grid pruning method      GridPruning ... 4 (adaptive)
Weight generation scheme         WeightScheme... Becke
Basis function cutoff            BFCut       ... 1.0000e-10
Integration weight cutoff        WCut        ... 1.0000e-14
Angular grids for H and He will be reduced by one unit
Partially contracted basis set               ... on
Rotationally invariant grid construction     ... off

Total number of grid points                  ...    38915
Total number of batches                      ...      625
Average number of points per batch           ...       62
Average number of grid points per atom       ...     1179
UseSFitting                                  ... on

GRIDX 3
-------
General Integration Accuracy     IntAcc      ... 4.338
Radial Grid Type                 RadialGrid  ... OptM3 with GC (2021)
Angular Grid (max. ang.)         AngularGrid ... 3 (Lebedev-194)
Angular grid pruning method      GridPruning ... 4 (adaptive)
Weight generation scheme         WeightScheme... Becke
Basis function cutoff            BFCut       ... 1.0000e-10
Integration weight cutoff        WCut        ... 1.0000e-14
Angular grids for H and He will be reduced by one unit
Partially contracted basis set               ... on
Rotationally invariant grid construction     ... off

Total number of grid points                  ...    84795
Total number of batches                      ...     1345
Average number of points per batch           ...       63
Average number of grid points per atom       ...     2570
UseSFitting                                  ... on

Time for X-Grid setup             =    0.748 sec

--------------
SCF ITERATIONS
--------------
ITER       Energy         Delta-E        Max-DP      RMS-DP      [F,P]     Damp
               ***  Starting incremental Fock matrix formation  ***
  0   -668.1965002611   0.000000000000 0.06063294  0.00081645  0.1244715 0.7000
  1   -668.3960225722  -0.199522311151 0.03360531  0.00054816  0.0466720 0.7000
                               ***Turning on DIIS***
  2   -668.4698390389  -0.073816466670 0.04349512  0.00086990  0.0164485 0.0000
  3   -668.5923439718  -0.122504932938 0.02354829  0.00038755  0.0229223 0.0000
  4   -668.6171570554  -0.024813083590 0.00911378  0.00013211  0.0073001 0.0000
  5   -668.6186202909  -0.001463235459 0.00415513  0.00004966  0.0047547 0.0000
  6   -668.6189174175  -0.000297126605 0.00242821  0.00002873  0.0007718 0.0000
               *** Restarting incremental Fock matrix formation ***
                                   *** Resetting DIIS ***
  7   -668.6189446966  -0.000027279110 0.00206998  0.00001874  0.0006235 0.0000
  8   -668.6189279568   0.000016739841 0.00096519  0.00000778  0.0011396 0.0000
  9   -668.6189541289  -0.000026172130 0.00043230  0.00000437  0.0002654 0.0000
 10   -668.6189563584  -0.000002229462 0.00017792  0.00000145  0.0000806 0.0000
                 **** Energy Check signals convergence ****

               *****************************************************
               *                     SUCCESS                       *
               *           SCF CONVERGED AFTER  11 CYCLES          *
               *****************************************************

Old exchange energy                            =    -17.882007996 Eh
New exchange energy                            =    -17.882011325 Eh
Exchange energy change after final integration =     -0.000003328 Eh
Total energy after final integration           =   -668.618959689 Eh
Final COS-X integration done in                =     2.298 sec

----------------
TOTAL SCF ENERGY
----------------

Total Energy       :         -668.61895969 Eh          -18194.04686 eV

Components:
Nuclear Repulsion  :          963.36821714 Eh           26214.58191 eV
Electronic Energy  :        -1631.98717683 Eh          -44408.62877 eV
One Electron Energy:        -2805.59470086 Eh          -76344.11307 eV
Two Electron Energy:         1173.60752404 Eh           31935.48430 eV
Max COSX asymmetry :            0.00000145 Eh               0.00004 eV

Virial components:
Potential Energy   :        -1332.66931007 Eh          -36263.77554 eV
Kinetic Energy     :          664.05035038 Eh           18069.72868 eV
Virial Ratio       :            2.00687991


DFT components:
N(Alpha)           :       55.000052807996 electrons
N(Beta)            :       54.000020533082 electrons
N(Total)           :      109.000073341078 electrons
E(X)               :      -71.027095924408 Eh       
E(C)               :       -4.319528150360 Eh       
E(XC)              :      -75.346624074768 Eh       
DFET-embed. en.    :        0.000000000000 Eh       

---------------
SCF CONVERGENCE
---------------

  Last Energy change         ...   -2.6290e-09  Tolerance :   1.0000e-06
  Last MAX-Density change    ...    0.0000e+00  Tolerance :   1.0000e-05
  Last RMS-Density change    ...    0.0000e+00  Tolerance :   1.0000e-06
  Last DIIS Error            ...    1.0292e-04  Tolerance :   1.0000e-06

             **** THE GBW FILE WAS UPDATED (epr_info.gbw) ****
             **** DENSITY epr_info.scfp WAS UPDATED ****
             **** ENERGY FILE WAS UPDATED (epr_info.en.tmp) ****
----------------------
UHF SPIN CONTAMINATION
----------------------

Warning: in a DFT calculation there is little theoretical justification to 
         calculate <S**2> as in Hartree-Fock theory. We will do it anyways
         but you should keep in mind that the values have only limited relevance

Expectation value of <S**2>     :     0.753983
Ideal value S*(S+1) for S=0.5   :     0.750000
Deviation                       :     0.003983

             **** THE GBW FILE WAS UPDATED (epr_info.gbw) ****
             **** DENSITY epr_info.scfp WAS UPDATED ****
----------------
ORBITAL ENERGIES
----------------
                 SPIN UP ORBITALS
  NO   OCC          E(Eh)            E(eV) 
   0   1.0000     -19.251706      -523.8656 
   1   1.0000     -19.228248      -523.2272 
   2   1.0000     -14.581124      -396.7725 
   3   1.0000     -14.487876      -394.2352 
   4   1.0000     -14.474721      -393.8772 
   5   1.0000     -10.433281      -283.9040 
   6   1.0000     -10.412352      -283.3345 
   7   1.0000     -10.397742      -282.9369 
   8   1.0000     -10.369886      -282.1789 
   9   1.0000     -10.344008      -281.4748 
  10   1.0000     -10.334969      -281.2288 
  11   1.0000     -10.327916      -281.0369 
  12   1.0000     -10.311701      -280.5957 
  13   1.0000     -10.302541      -280.3464 
  14   1.0000      -1.171097       -31.8672 
  15   1.0000      -1.152475       -31.3604 
  16   1.0000      -1.135630       -30.9021 
  17   1.0000      -1.054374       -28.6910 
  18   1.0000      -1.034756       -28.1571 
  19   1.0000      -0.948801       -25.8182 
  20   1.0000      -0.909840       -24.7580 
  21   1.0000      -0.861972       -23.4554 
  22   1.0000      -0.839812       -22.8525 
  23   1.0000      -0.802962       -21.8497 
  24   1.0000      -0.779382       -21.2081 
  25   1.0000      -0.740149       -20.1405 
  26   1.0000      -0.725586       -19.7442 
  27   1.0000      -0.713550       -19.4167 
  28   1.0000      -0.705176       -19.1888 
  29   1.0000      -0.692609       -18.8468 
  30   1.0000      -0.652328       -17.7507 
  31   1.0000      -0.646233       -17.5849 
  32   1.0000      -0.621449       -16.9105 
  33   1.0000      -0.601869       -16.3777 
  34   1.0000      -0.594497       -16.1771 
  35   1.0000      -0.580034       -15.7835 
  36   1.0000      -0.567661       -15.4468 
  37   1.0000      -0.564158       -15.3515 
  38   1.0000      -0.556891       -15.1538 
  39   1.0000      -0.554637       -15.0924 
  40   1.0000      -0.539081       -14.6691 
  41   1.0000      -0.532017       -14.4769 
  42   1.0000      -0.517327       -14.0772 
  43   1.0000      -0.512881       -13.9562 
  44   1.0000      -0.505304       -13.7500 
  45   1.0000      -0.494057       -13.4440 
  46   1.0000      -0.491287       -13.3686 
  47   1.0000      -0.486365       -13.2347 
  48   1.0000      -0.482965       -13.1421 
  49   1.0000      -0.471622       -12.8335 
  50   1.0000      -0.407029       -11.0758 
  51   1.0000      -0.402543       -10.9537 
  52   1.0000      -0.379138       -10.3169 
  53   1.0000      -0.368249       -10.0206 
  54   1.0000      -0.335907        -9.1405 
  55   0.0000      -0.139335        -3.7915 
  56   0.0000      -0.116941        -3.1821 
  57   0.0000      -0.101412        -2.7596 
  58   0.0000      -0.096666        -2.6304 
  59   0.0000      -0.089715        -2.4413 
  60   0.0000      -0.083918        -2.2835 
  61   0.0000      -0.069492        -1.8910 
  62   0.0000      -0.060408        -1.6438 
  63   0.0000      -0.054320        -1.4781 
  64   0.0000      -0.044179        -1.2022 
  65   0.0000      -0.032146        -0.8747 
  66   0.0000      -0.029042        -0.7903 
  67   0.0000      -0.020040        -0.5453 
  68   0.0000      -0.006540        -0.1780 
  69   0.0000       0.000519         0.0141 
  70   0.0000       0.003542         0.0964 
  71   0.0000       0.014252         0.3878 
  72   0.0000       0.031063         0.8453 
  73   0.0000       0.036029         0.9804 
  74   0.0000       0.042346         1.1523 
  75   0.0000       0.057242         1.5576 
  76   0.0000       0.061222         1.6659 
  77   0.0000       0.063531         1.7288 
  78   0.0000       0.072721         1.9788 
  79   0.0000       0.075314         2.0494 
  80   0.0000       0.088074         2.3966 
  81   0.0000       0.093099         2.5333 
  82   0.0000       0.100579         2.7369 
  83   0.0000       0.103417         2.8141 
  84   0.0000       0.105748         2.8776 
  85   0.0000       0.108401         2.9497 
  86   0.0000       0.114195         3.1074 
  87   0.0000       0.119465         3.2508 
  88   0.0000       0.127955         3.4818 
  89   0.0000       0.136836         3.7235 
  90   0.0000       0.141024         3.8375 
  91   0.0000       0.144268         3.9257 
  92   0.0000       0.148714         4.0467 
  93   0.0000       0.157110         4.2752 
  94   0.0000       0.162746         4.4286 
  95   0.0000       0.172266         4.6876 
  96   0.0000       0.180210         4.9038 
  97   0.0000       0.184535         5.0214 
  98   0.0000       0.188958         5.1418 
  99   0.0000       0.195841         5.3291 
 100   0.0000       0.203069         5.5258 
 101   0.0000       0.207963         5.6590 
 102   0.0000       0.212009         5.7691 
 103   0.0000       0.221619         6.0306 
 104   0.0000       0.225079         6.1247 
 105   0.0000       0.231820         6.3081 
 106   0.0000       0.242729         6.6050 
 107   0.0000       0.248662         6.7664 
 108   0.0000       0.260236         7.0814 
 109   0.0000       0.265426         7.2226 
 110   0.0000       0.282320         7.6823 
 111   0.0000       0.290287         7.8991 
 112   0.0000       0.299810         8.1582 
 113   0.0000       0.305273         8.3069 
 114   0.0000       0.322097         8.7647 
 115   0.0000       0.328926         8.9505 
 116   0.0000       0.333560         9.0766 
 117   0.0000       0.337868         9.1939 
 118   0.0000       0.352792         9.6000 
 119   0.0000       0.360288         9.8039 
 120   0.0000       0.368200        10.0192 
 121   0.0000       0.375225        10.2104 
 122   0.0000       0.385717        10.4959 
 123   0.0000       0.385915        10.5013 
 124   0.0000       0.413836        11.2610 
 125   0.0000       0.420773        11.4498 
 126   0.0000       0.434582        11.8256 
 127   0.0000       0.464472        12.6389 
 128   0.0000       0.471854        12.8398 
 129   0.0000       0.473561        12.8862 
 130   0.0000       0.483304        13.1514 
 131   0.0000       0.495259        13.4767 
 132   0.0000       0.508197        13.8288 
 133   0.0000       0.544237        14.8094 
 134   0.0000       0.567396        15.4396 
 135   0.0000       0.585804        15.9405 
 136   0.0000       0.589271        16.0349 
 137   0.0000       0.607102        16.5201 
 138   0.0000       0.626655        17.0521 
 139   0.0000       0.649580        17.6760 
 140   0.0000       0.668795        18.1988 
 141   0.0000       0.671843        18.2818 
 142   0.0000       0.681850        18.5541 
 143   0.0000       0.691598        18.8193 
 144   0.0000       0.700711        19.0673 
 145   0.0000       0.717171        19.5152 
 146   0.0000       0.724563        19.7164 
 147   0.0000       0.732567        19.9342 
 148   0.0000       0.738918        20.1070 
 149   0.0000       0.744986        20.2721 
 150   0.0000       0.754767        20.5383 
 151   0.0000       0.755112        20.5477 
 152   0.0000       0.756627        20.5889 
 153   0.0000       0.769353        20.9352 
 154   0.0000       0.779318        21.2063 
 155   0.0000       0.787161        21.4197 
 156   0.0000       0.796983        21.6870 
 157   0.0000       0.807315        21.9682 
 158   0.0000       0.809638        22.0314 
 159   0.0000       0.817165        22.2362 
 160   0.0000       0.821231        22.3468 
 161   0.0000       0.825629        22.4665 
 162   0.0000       0.837691        22.7947 
 163   0.0000       0.841119        22.8880 
 164   0.0000       0.859502        23.3882 
 165   0.0000       0.873369        23.7656 
 166   0.0000       0.878629        23.9087 
 167   0.0000       0.895196        24.3595 
 168   0.0000       0.897703        24.4277 
 169   0.0000       0.903381        24.5822 
 170   0.0000       0.922420        25.1003 
 171   0.0000       0.928696        25.2711 
 172   0.0000       0.948968        25.8227 
 173   0.0000       0.963155        26.2088 
 174   0.0000       0.963449        26.2168 
 175   0.0000       0.978975        26.6393 
 176   0.0000       1.015706        27.6388 
 177   0.0000       1.030353        28.0373 
 178   0.0000       1.036577        28.2067 
 179   0.0000       1.056858        28.7586 
 180   0.0000       1.069183        29.0940 
 181   0.0000       1.076248        29.2862 
 182   0.0000       1.083489        29.4832 
 183   0.0000       1.099022        29.9059 
 184   0.0000       1.113128        30.2897 
 185   0.0000       1.130565        30.7642 
 186   0.0000       1.144779        31.1510 
 187   0.0000       1.177336        32.0369 
 188   0.0000       1.207806        32.8661 
 189   0.0000       1.213043        33.0086 
 190   0.0000       1.224990        33.3337 
 191   0.0000       1.233124        33.5550 
 192   0.0000       1.263612        34.3846 
 193   0.0000       1.274216        34.6732 
 194   0.0000       1.284291        34.9473 
 195   0.0000       1.301495        35.4155 
 196   0.0000       1.302281        35.4369 
 197   0.0000       1.306496        35.5516 
 198   0.0000       1.317756        35.8580 
 199   0.0000       1.322713        35.9928 
 200   0.0000       1.329130        36.1675 
 201   0.0000       1.345051        36.6007 
 202   0.0000       1.351723        36.7822 
 203   0.0000       1.375695        37.4346 
 204   0.0000       1.387038        37.7432 
 205   0.0000       1.394442        37.9447 
 206   0.0000       1.401508        38.1370 
 207   0.0000       1.407069        38.2883 
 208   0.0000       1.412329        38.4314 
 209   0.0000       1.433371        39.0040 
 210   0.0000       1.448103        39.4049 
 211   0.0000       1.453050        39.5395 
 212   0.0000       1.470039        40.0018 
 213   0.0000       1.473125        40.0858 
 214   0.0000       1.481778        40.3212 
 215   0.0000       1.500339        40.8263 
 216   0.0000       1.506941        41.0059 
 217   0.0000       1.511976        41.1430 
 218   0.0000       1.535479        41.7825 
 219   0.0000       1.546472        42.0816 
 220   0.0000       1.552925        42.2572 
 221   0.0000       1.572530        42.7907 
 222   0.0000       1.577779        42.9336 
 223   0.0000       1.579603        42.9832 
 224   0.0000       1.592425        43.3321 
 225   0.0000       1.603038        43.6209 
 226   0.0000       1.614303        43.9274 
 227   0.0000       1.620347        44.0919 
 228   0.0000       1.629739        44.3475 
 229   0.0000       1.642703        44.7002 
 230   0.0000       1.653930        45.0057 
 231   0.0000       1.667888        45.3855 
 232   0.0000       1.679293        45.6959 
 233   0.0000       1.686023        45.8790 
 234   0.0000       1.692126        46.0451 
 235   0.0000       1.718198        46.7545 
 236   0.0000       1.722220        46.8640 
 237   0.0000       1.749770        47.6137 
 238   0.0000       1.757442        47.8224 
 239   0.0000       1.767746        48.1028 
 240   0.0000       1.798436        48.9379 
 241   0.0000       1.810795        49.2742 
 242   0.0000       1.827865        49.7387 
 243   0.0000       1.851226        50.3744 
 244   0.0000       1.871106        50.9154 
 245   0.0000       1.878686        51.1217 
 246   0.0000       1.889373        51.4124 
 247   0.0000       1.897414        51.6313 
 248   0.0000       1.921914        52.2979 
 249   0.0000       1.933154        52.6038 
 250   0.0000       1.939628        52.7800 
 251   0.0000       1.952881        53.1406 
 252   0.0000       1.965003        53.4705 
 253   0.0000       1.992022        54.2057 
 254   0.0000       2.010998        54.7220 
 255   0.0000       2.046796        55.6961 
 256   0.0000       2.058469        56.0138 
 257   0.0000       2.075983        56.4904 
 258   0.0000       2.099842        57.1396 
 259   0.0000       2.106700        57.3262 
 260   0.0000       2.137899        58.1752 
 261   0.0000       2.146570        58.4112 
 262   0.0000       2.159404        58.7604 
 263   0.0000       2.171458        59.0884 
 264   0.0000       2.180157        59.3251 
 265   0.0000       2.206101        60.0310 
 266   0.0000       2.222448        60.4759 
 267   0.0000       2.243264        61.0423 
 268   0.0000       2.265014        61.6342 
 269   0.0000       2.278811        62.0096 
 270   0.0000       2.284299        62.1589 
 271   0.0000       2.288723        62.2793 
 272   0.0000       2.292261        62.3756 
 273   0.0000       2.302858        62.6640 
 274   0.0000       2.317617        63.0656 
 275   0.0000       2.330105        63.4054 
 276   0.0000       2.348087        63.8947 
 277   0.0000       2.362173        64.2780 
 278   0.0000       2.379652        64.7536 
 279   0.0000       2.391372        65.0725 
 280   0.0000       2.402724        65.3814 
 281   0.0000       2.412155        65.6381 
 282   0.0000       2.421312        65.8872 
 283   0.0000       2.432547        66.1930 
 284   0.0000       2.445753        66.5523 
 285   0.0000       2.457604        66.8748 
 286   0.0000       2.492786        67.8322 
 287   0.0000       2.514693        68.4283 
 288   0.0000       2.542826        69.1938 
 289   0.0000       2.551708        69.4355 
 290   0.0000       2.564729        69.7898 
 291   0.0000       2.602476        70.8170 
 292   0.0000       2.622342        71.3576 
 293   0.0000       2.636829        71.7518 
 294   0.0000       2.647460        72.0410 
 295   0.0000       2.684142        73.0392 
 296   0.0000       2.726470        74.1910 
 297   0.0000       2.883795        78.4720 
 298   0.0000       2.922768        79.5326 
 299   0.0000       2.949833        80.2690 
 300   0.0000       2.985476        81.2389 
 301   0.0000       3.226745        87.8042 
 302   0.0000       3.275173        89.1220 
 303   0.0000       3.331668        90.6593 
 304   0.0000       3.481752        94.7433 
 305   0.0000       4.710347       128.1751 
 306   0.0000       4.850103       131.9780 
 307   0.0000       4.862948       132.3275 
 308   0.0000       4.873364       132.6110 
 309   0.0000       4.876774       132.7038 
 310   0.0000       4.890834       133.0864 
 311   0.0000       4.901166       133.3675 
 312   0.0000       4.919314       133.8613 
 313   0.0000       4.932159       134.2109 
 314   0.0000       4.945591       134.5764 
 315   0.0000       5.004995       136.1928 
 316   0.0000       5.039678       137.1366 
 317   0.0000       5.059742       137.6826 
 318   0.0000       5.070324       137.9705 
 319   0.0000       5.094061       138.6164 
 320   0.0000       5.119575       139.3107 
 321   0.0000       5.143970       139.9745 
 322   0.0000       5.174353       140.8013 
 323   0.0000       5.198440       141.4567 
 324   0.0000       5.231412       142.3539 
 325   0.0000       5.245537       142.7383 
 326   0.0000       5.264838       143.2635 
 327   0.0000       5.311408       144.5308 
 328   0.0000       5.456647       148.4829 
 329   0.0000       5.527005       150.3974 
 330   0.0000       5.598921       152.3544 
 331   0.0000       5.635560       153.3514 
 332   0.0000       5.686652       154.7417 
 333   0.0000       7.159735       194.8263 
 334   0.0000       7.193661       195.7495 
 335   0.0000       7.221571       196.5089 
 336   0.0000       8.935651       243.1514 
 337   0.0000       9.002345       244.9662 
 338   0.0000      29.440452       801.1154 
 339   0.0000      29.520064       803.2818 
 340   0.0000      29.614875       805.8617 
 341   0.0000      29.720981       808.7490 
 342   0.0000      29.819547       811.4311 
 343   0.0000      29.911034       813.9206 
 344   0.0000      29.972940       815.6052 
 345   0.0000      30.041269       817.4645 
 346   0.0000      30.080728       818.5382 
 347   0.0000      36.314752       988.1746 
 348   0.0000      36.475616       992.5520 
 349   0.0000      36.492761       993.0185 
 350   0.0000      36.499655       993.2061 
 351   0.0000      36.514400       993.6073 
 352   0.0000      36.522476       993.8271 
 353   0.0000      36.531624       994.0760 
 354   0.0000      36.534741       994.1608 
 355   0.0000      36.562237       994.9090 
 356   0.0000      36.605377       996.0829 
 357   0.0000      36.613466       996.3031 
 358   0.0000      36.643905       997.1314 
 359   0.0000      36.651784       997.3457 
 360   0.0000      36.699610       998.6472 
 361   0.0000      36.713658       999.0294 
 362   0.0000      36.738101       999.6946 
 363   0.0000      36.792847      1001.1843 
 364   0.0000      36.802145      1001.4373 
 365   0.0000      36.820083      1001.9254 
 366   0.0000      41.082711      1117.9174 
 367   0.0000      41.128148      1119.1538 
 368   0.0000      41.153931      1119.8554 
 369   0.0000      53.477923      1455.2083 
 370   0.0000      53.538019      1456.8436 

                 SPIN DOWN ORBITALS
  NO   OCC          E(Eh)            E(eV) 
   0   1.0000     -19.251525      -523.8606 
   1   1.0000     -19.228170      -523.2251 
   2   1.0000     -14.581119      -396.7724 
   3   1.0000     -14.486263      -394.1913 
   4   1.0000     -14.474446      -393.8697 
   5   1.0000     -10.433320      -283.9051 
   6   1.0000     -10.412234      -283.3313 
   7   1.0000     -10.397719      -282.9363 
   8   1.0000     -10.370628      -282.1991 
   9   1.0000     -10.343230      -281.4536 
  10   1.0000     -10.328695      -281.0581 
  11   1.0000     -10.321240      -280.8552 
  12   1.0000     -10.311704      -280.5957 
  13   1.0000     -10.302483      -280.3448 
  14   1.0000      -1.170520       -31.8515 
  15   1.0000      -1.152233       -31.3538 
  16   1.0000      -1.135570       -30.9004 
  17   1.0000      -1.051554       -28.6142 
  18   1.0000      -1.034149       -28.1406 
  19   1.0000      -0.943392       -25.6710 
  20   1.0000      -0.902831       -24.5673 
  21   1.0000      -0.857822       -23.3425 
  22   1.0000      -0.838993       -22.8302 
  23   1.0000      -0.799913       -21.7667 
  24   1.0000      -0.775238       -21.0953 
  25   1.0000      -0.738239       -20.0885 
  26   1.0000      -0.723258       -19.6809 
  27   1.0000      -0.711576       -19.3630 
  28   1.0000      -0.700062       -19.0496 
  29   1.0000      -0.686789       -18.6885 
  30   1.0000      -0.650879       -17.7113 
  31   1.0000      -0.644807       -17.5461 
  32   1.0000      -0.618080       -16.8188 
  33   1.0000      -0.599356       -16.3093 
  34   1.0000      -0.592066       -16.1109 
  35   1.0000      -0.577304       -15.7092 
  36   1.0000      -0.566000       -15.4016 
  37   1.0000      -0.563565       -15.3354 
  38   1.0000      -0.555436       -15.1142 
  39   1.0000      -0.552236       -15.0271 
  40   1.0000      -0.537308       -14.6209 
  41   1.0000      -0.530353       -14.4316 
  42   1.0000      -0.515826       -14.0363 
  43   1.0000      -0.510610       -13.8944 
  44   1.0000      -0.500604       -13.6221 
  45   1.0000      -0.492724       -13.4077 
  46   1.0000      -0.491082       -13.3630 
  47   1.0000      -0.485046       -13.1988 
  48   1.0000      -0.478851       -13.0302 
  49   1.0000      -0.469624       -12.7791 
  50   1.0000      -0.405640       -11.0380 
  51   1.0000      -0.398386       -10.8406 
  52   1.0000      -0.377588       -10.2747 
  53   1.0000      -0.367260        -9.9936 
  54   0.0000      -0.196164        -5.3379 
  55   0.0000      -0.139209        -3.7881 
  56   0.0000      -0.115549        -3.1442 
  57   0.0000      -0.100824        -2.7436 
  58   0.0000      -0.096104        -2.6151 
  59   0.0000      -0.087954        -2.3933 
  60   0.0000      -0.083240        -2.2651 
  61   0.0000      -0.066924        -1.8211 
  62   0.0000      -0.060119        -1.6359 
  63   0.0000      -0.053698        -1.4612 
  64   0.0000      -0.043673        -1.1884 
  65   0.0000      -0.030744        -0.8366 
  66   0.0000      -0.026765        -0.7283 
  67   0.0000      -0.019175        -0.5218 
  68   0.0000      -0.006341        -0.1726 
  69   0.0000       0.001885         0.0513 
  70   0.0000       0.004819         0.1311 
  71   0.0000       0.015760         0.4289 
  72   0.0000       0.031601         0.8599 
  73   0.0000       0.037711         1.0262 
  74   0.0000       0.045455         1.2369 
  75   0.0000       0.060901         1.6572 
  76   0.0000       0.062383         1.6975 
  77   0.0000       0.064052         1.7429 
  78   0.0000       0.073602         2.0028 
  79   0.0000       0.077088         2.0977 
  80   0.0000       0.089863         2.4453 
  81   0.0000       0.093852         2.5538 
  82   0.0000       0.101863         2.7718 
  83   0.0000       0.105493         2.8706 
  84   0.0000       0.108081         2.9410 
  85   0.0000       0.109267         2.9733 
  86   0.0000       0.114923         3.1272 
  87   0.0000       0.123191         3.3522 
  88   0.0000       0.129885         3.5344 
  89   0.0000       0.138754         3.7757 
  90   0.0000       0.142413         3.8752 
  91   0.0000       0.145452         3.9579 
  92   0.0000       0.149752         4.0750 
  93   0.0000       0.158825         4.3219 
  94   0.0000       0.164805         4.4846 
  95   0.0000       0.173919         4.7326 
  96   0.0000       0.181004         4.9254 
  97   0.0000       0.187694         5.1074 
  98   0.0000       0.191920         5.2224 
  99   0.0000       0.197565         5.3760 
 100   0.0000       0.205786         5.5997 
 101   0.0000       0.209589         5.7032 
 102   0.0000       0.212228         5.7750 
 103   0.0000       0.223108         6.0711 
 104   0.0000       0.228304         6.2125 
 105   0.0000       0.233298         6.3484 
 106   0.0000       0.243905         6.6370 
 107   0.0000       0.250038         6.8039 
 108   0.0000       0.261674         7.1205 
 109   0.0000       0.270167         7.3516 
 110   0.0000       0.285416         7.7666 
 111   0.0000       0.293495         7.9864 
 112   0.0000       0.300903         8.1880 
 113   0.0000       0.309532         8.4228 
 114   0.0000       0.328403         8.9363 
 115   0.0000       0.333110         9.0644 
 116   0.0000       0.337363         9.1801 
 117   0.0000       0.339885         9.2487 
 118   0.0000       0.353710         9.6249 
 119   0.0000       0.364439         9.9169 
 120   0.0000       0.370664        10.0863 
 121   0.0000       0.376648        10.2491 
 122   0.0000       0.387382        10.5412 
 123   0.0000       0.394370        10.7314 
 124   0.0000       0.417092        11.3497 
 125   0.0000       0.424708        11.5569 
 126   0.0000       0.437475        11.9043 
 127   0.0000       0.465507        12.6671 
 128   0.0000       0.472776        12.8649 
 129   0.0000       0.475244        12.9320 
 130   0.0000       0.485249        13.2043 
 131   0.0000       0.499040        13.5796 
 132   0.0000       0.510517        13.8919 
 133   0.0000       0.546316        14.8660 
 134   0.0000       0.570122        15.5138 
 135   0.0000       0.588327        16.0092 
 136   0.0000       0.590709        16.0740 
 137   0.0000       0.608844        16.5675 
 138   0.0000       0.627206        17.0671 
 139   0.0000       0.651406        17.7257 
 140   0.0000       0.670149        18.2357 
 141   0.0000       0.675114        18.3708 
 142   0.0000       0.684843        18.6355 
 143   0.0000       0.693319        18.8662 
 144   0.0000       0.702968        19.1287 
 145   0.0000       0.718044        19.5390 
 146   0.0000       0.725930        19.7536 
 147   0.0000       0.734367        19.9831 
 148   0.0000       0.740371        20.1465 
 149   0.0000       0.746184        20.3047 
 150   0.0000       0.755619        20.5614 
 151   0.0000       0.756306        20.5801 
 152   0.0000       0.757313        20.6075 
 153   0.0000       0.770968        20.9791 
 154   0.0000       0.780778        21.2460 
 155   0.0000       0.789120        21.4730 
 156   0.0000       0.798509        21.7285 
 157   0.0000       0.808686        22.0055 
 158   0.0000       0.812081        22.0978 
 159   0.0000       0.818497        22.2724 
 160   0.0000       0.822721        22.3874 
 161   0.0000       0.826447        22.4888 
 162   0.0000       0.839648        22.8480 
 163   0.0000       0.842484        22.9252 
 164   0.0000       0.861374        23.4392 
 165   0.0000       0.877748        23.8847 
 166   0.0000       0.880666        23.9641 
 167   0.0000       0.895798        24.3759 
 168   0.0000       0.898111        24.4388 
 169   0.0000       0.907379        24.6910 
 170   0.0000       0.924403        25.1543 
 171   0.0000       0.933501        25.4019 
 172   0.0000       0.951228        25.8842 
 173   0.0000       0.965374        26.2691 
 174   0.0000       0.965937        26.2845 
 175   0.0000       0.980883        26.6912 
 176   0.0000       1.018590        27.7173 
 177   0.0000       1.031090        28.0574 
 178   0.0000       1.038053        28.2469 
 179   0.0000       1.057969        28.7888 
 180   0.0000       1.070997        29.1433 
 181   0.0000       1.078252        29.3407 
 182   0.0000       1.084191        29.5023 
 183   0.0000       1.100633        29.9497 
 184   0.0000       1.116440        30.3799 
 185   0.0000       1.131907        30.8007 
 186   0.0000       1.147618        31.2283 
 187   0.0000       1.178621        32.0719 
 188   0.0000       1.212727        33.0000 
 189   0.0000       1.217721        33.1359 
 190   0.0000       1.227304        33.3966 
 191   0.0000       1.237132        33.6641 
 192   0.0000       1.265238        34.4289 
 193   0.0000       1.278450        34.7884 
 194   0.0000       1.288850        35.0714 
 195   0.0000       1.302517        35.4433 
 196   0.0000       1.306806        35.5600 
 197   0.0000       1.308439        35.6044 
 198   0.0000       1.318053        35.8660 
 199   0.0000       1.325039        36.0561 
 200   0.0000       1.330992        36.2181 
 201   0.0000       1.348450        36.6932 
 202   0.0000       1.355502        36.8851 
 203   0.0000       1.380048        37.5530 
 204   0.0000       1.387872        37.7659 
 205   0.0000       1.394839        37.9555 
 206   0.0000       1.402650        38.1680 
 207   0.0000       1.408283        38.3213 
 208   0.0000       1.414230        38.4832 
 209   0.0000       1.435135        39.0520 
 210   0.0000       1.450323        39.4653 
 211   0.0000       1.456660        39.6377 
 212   0.0000       1.472571        40.0707 
 213   0.0000       1.474982        40.1363 
 214   0.0000       1.484688        40.4004 
 215   0.0000       1.502807        40.8935 
 216   0.0000       1.509621        41.0789 
 217   0.0000       1.513774        41.1919 
 218   0.0000       1.541605        41.9492 
 219   0.0000       1.548027        42.1240 
 220   0.0000       1.556514        42.3549 
 221   0.0000       1.574643        42.8482 
 222   0.0000       1.579351        42.9763 
 223   0.0000       1.580769        43.0149 
 224   0.0000       1.593741        43.3679 
 225   0.0000       1.604377        43.6573 
 226   0.0000       1.617739        44.0209 
 227   0.0000       1.622500        44.1505 
 228   0.0000       1.633211        44.4419 
 229   0.0000       1.645023        44.7634 
 230   0.0000       1.658786        45.1379 
 231   0.0000       1.672434        45.5093 
 232   0.0000       1.682079        45.7717 
 233   0.0000       1.687818        45.9279 
 234   0.0000       1.693806        46.0908 
 235   0.0000       1.720089        46.8060 
 236   0.0000       1.724442        46.9244 
 237   0.0000       1.750503        47.6336 
 238   0.0000       1.761968        47.9456 
 239   0.0000       1.771043        48.1925 
 240   0.0000       1.800537        48.9951 
 241   0.0000       1.811464        49.2924 
 242   0.0000       1.833084        49.8807 
 243   0.0000       1.852931        50.4208 
 244   0.0000       1.874880        51.0181 
 245   0.0000       1.880732        51.1773 
 246   0.0000       1.892342        51.4932 
 247   0.0000       1.898850        51.6703 
 248   0.0000       1.923416        52.3388 
 249   0.0000       1.934783        52.6481 
 250   0.0000       1.940440        52.8021 
 251   0.0000       1.954332        53.1801 
 252   0.0000       1.966852        53.5208 
 253   0.0000       1.994071        54.2614 
 254   0.0000       2.012141        54.7531 
 255   0.0000       2.048984        55.7557 
 256   0.0000       2.060451        56.0677 
 257   0.0000       2.076930        56.5161 
 258   0.0000       2.102539        57.2130 
 259   0.0000       2.109363        57.3987 
 260   0.0000       2.140176        58.2371 
 261   0.0000       2.147404        58.4338 
 262   0.0000       2.161443        58.8159 
 263   0.0000       2.172213        59.1089 
 264   0.0000       2.182107        59.3781 
 265   0.0000       2.208140        60.0865 
 266   0.0000       2.223743        60.5111 
 267   0.0000       2.245718        61.1091 
 268   0.0000       2.265997        61.6609 
 269   0.0000       2.279379        62.0251 
 270   0.0000       2.285311        62.1865 
 271   0.0000       2.289188        62.2920 
 272   0.0000       2.293661        62.4137 
 273   0.0000       2.303943        62.6935 
 274   0.0000       2.319347        63.1126 
 275   0.0000       2.331601        63.4461 
 276   0.0000       2.348580        63.9081 
 277   0.0000       2.365432        64.3667 
 278   0.0000       2.381790        64.8118 
 279   0.0000       2.391763        65.0832 
 280   0.0000       2.404723        65.4358 
 281   0.0000       2.413100        65.6638 
 282   0.0000       2.421595        65.8950 
 283   0.0000       2.432927        66.2033 
 284   0.0000       2.447540        66.6009 
 285   0.0000       2.458844        66.9085 
 286   0.0000       2.494840        67.8880 
 287   0.0000       2.515339        68.4458 
 288   0.0000       2.545653        69.2707 
 289   0.0000       2.553053        69.4721 
 290   0.0000       2.565864        69.8207 
 291   0.0000       2.602990        70.8310 
 292   0.0000       2.622677        71.3667 
 293   0.0000       2.637027        71.7572 
 294   0.0000       2.648053        72.0572 
 295   0.0000       2.684746        73.0556 
 296   0.0000       2.727657        74.2233 
 297   0.0000       2.885151        78.5089 
 298   0.0000       2.923712        79.5582 
 299   0.0000       2.950515        80.2876 
 300   0.0000       2.985734        81.2459 
 301   0.0000       3.227075        87.8132 
 302   0.0000       3.275603        89.1337 
 303   0.0000       3.331900        90.6656 
 304   0.0000       3.482060        94.7517 
 305   0.0000       4.710401       128.1765 
 306   0.0000       4.853917       132.0818 
 307   0.0000       4.863262       132.3361 
 308   0.0000       4.874268       132.6356 
 309   0.0000       4.876935       132.7081 
 310   0.0000       4.890917       133.0886 
 311   0.0000       4.902159       133.3945 
 312   0.0000       4.919386       133.8633 
 313   0.0000       4.933431       134.2455 
 314   0.0000       4.950326       134.7052 
 315   0.0000       5.006458       136.2326 
 316   0.0000       5.041848       137.1957 
 317   0.0000       5.059544       137.6772 
 318   0.0000       5.071048       137.9902 
 319   0.0000       5.094886       138.6389 
 320   0.0000       5.121086       139.3518 
 321   0.0000       5.145110       140.0056 
 322   0.0000       5.174894       140.8160 
 323   0.0000       5.200086       141.5015 
 324   0.0000       5.232667       142.3881 
 325   0.0000       5.248406       142.8164 
 326   0.0000       5.265175       143.2727 
 327   0.0000       5.318863       144.7336 
 328   0.0000       5.457408       148.5036 
 329   0.0000       5.528935       150.4500 
 330   0.0000       5.602256       152.4451 
 331   0.0000       5.636452       153.3757 
 332   0.0000       5.693382       154.9248 
 333   0.0000       7.160676       194.8519 
 334   0.0000       7.194429       195.7704 
 335   0.0000       7.223661       196.5658 
 336   0.0000       8.936044       243.1621 
 337   0.0000       9.002515       244.9709 
 338   0.0000      29.444810       801.2340 
 339   0.0000      29.520205       803.2856 
 340   0.0000      29.615615       805.8819 
 341   0.0000      29.727422       808.9243 
 342   0.0000      29.821053       811.4721 
 343   0.0000      29.912731       813.9668 
 344   0.0000      29.973767       815.6277 
 345   0.0000      30.042868       817.5080 
 346   0.0000      30.083214       818.6059 
 347   0.0000      36.314784       988.1755 
 348   0.0000      36.475653       992.5530 
 349   0.0000      36.493645       993.0426 
 350   0.0000      36.501019       993.2432 
 351   0.0000      36.514534       993.6110 
 352   0.0000      36.523011       993.8417 
 353   0.0000      36.531648       994.0767 
 354   0.0000      36.534802       994.1625 
 355   0.0000      36.569432       995.1048 
 356   0.0000      36.605512       996.0866 
 357   0.0000      36.613595       996.3066 
 358   0.0000      36.640465       997.0377 
 359   0.0000      36.647996       997.2427 
 360   0.0000      36.700993       998.6848 
 361   0.0000      36.716750       999.1136 
 362   0.0000      36.739425       999.7306 
 363   0.0000      36.797243      1001.3039 
 364   0.0000      36.802516      1001.4474 
 365   0.0000      36.821279      1001.9579 
 366   0.0000      41.083142      1117.9291 
 367   0.0000      41.128962      1119.1760 
 368   0.0000      41.155073      1119.8865 
 369   0.0000      53.478135      1455.2140 
 370   0.0000      53.538107      1456.8460 

                    ********************************
                    * MULLIKEN POPULATION ANALYSIS *
                    ********************************

--------------------------------------------
MULLIKEN ATOMIC CHARGES AND SPIN POPULATIONS
--------------------------------------------
   0 N :   -0.060951    0.039311
   1 C :   -0.115319   -0.034563
   2 C :    0.071030   -0.001952
   3 O :   -0.313444    0.001610
   4 C :   -0.118977    0.995739
   5 C :   -0.262658   -0.061876
   6 C :   -0.252855    0.031105
   7 C :   -0.277778    0.004405
   8 N :   -0.361517    0.000259
   9 H :    0.166013    0.002395
  10 H :    0.157292    0.048116
  11 H :    0.151492   -0.002477
  12 H :    0.180155   -0.000985
  13 H :    0.192305   -0.000192
  14 H :    0.207126   -0.000169
  15 H :    0.315139    0.000012
  16 H :    0.334444   -0.000132
  17 H :    0.273574    0.000853
  18 C :    0.160196   -0.002122
  19 N :   -0.081330    0.012300
  20 H :    0.234053   -0.000204
  21 O :   -0.344535    0.005058
  22 H :    0.311643    0.000077
  23 C :   -0.444467   -0.000310
  24 H :    0.207439    0.000691
  25 H :    0.176141    0.000167
  26 H :    0.176768    0.000408
  27 C :   -0.529489    0.002579
  28 H :    0.191836    0.000771
  29 H :    0.196030   -0.000327
  30 H :    0.169659   -0.000040
  31 H :    0.152736    0.008297
  32 H :    0.138248   -0.048801
Sum of atomic charges         :    1.0000000
Sum of atomic spin populations:    1.0000000

-----------------------------------------------------
MULLIKEN REDUCED ORBITAL CHARGES AND SPIN POPULATIONS
-----------------------------------------------------
CHARGE
[...]
 A(SD)          -2.4847              -5.8084               8.2931
 A(ORB+DIA)     -0.0041              -0.0016              -0.0000    A(PC) =  -0.0019
 A(ORB)         -0.0037              -0.0010              -0.0001    A(PC) =  -0.0016
 A(DIA)         -0.0003              -0.0006               0.0001    A(PC) =  -0.0003
             ----------           ----------           ----------
 A(Tot)         -3.3299              -6.6511               7.4519    A(iso)=   -0.8430
 Orientation: 
  X          -0.7440935            0.2752031           -0.6087594
  Y          -0.5395800            0.2897287            0.7905130
  Z           0.3939267            0.9166900           -0.0670911

Notes:  (1) The A matrix conforms to the "SAI" spin Hamiltonian convention.
        (2) Tensor is right-handed.

 -----------------------------------------------------------
 Nucleus  22H : A:ISTP=    1 I=  0.5 P=533.5514 MHz/au**3
                Q:ISTP=    2 I=  1.0 Q=  0.0029 barn     
 -----------------------------------------------------------
 Solving for nuclear perturbation:
Forming RHS of the CP-SCF equations         ... 
Calc. nucleus orbit integrals (SHARK)       ... done

------------------------------------------------------------------------------
                           ORCA CP-SCF CALCULATION
------------------------------------------------------------------------------

Input orbitals are from        ... epr_info.gbw
Input Perturbation             ... epr_info.pin.tmp
Wavefunction output            ... epr_info.pout.tmp
Perturbation mode              ... Imaginary perturbation
Solver                         ... POPLE
Max. number of iterations      ... 64
Convergence tolerance          ... 1.000e-03
Integral handling              ... Direct
DFT GridXC                     ... 1
COSX GridX                     ... 1
COSX IntAccX                   ... 3.067
COSX Algorithm                 ... Auto
Number of perturbations        ... 3
Number of operators            ... 2
Orbital ranges used for CP-SCF:
 Operator 0:  Orbitals   0... 54  to  55...370
 Operator 1:  Orbitals   0... 53  to  54...370
Variables per perturbation     ... 34498
DFT calculation                         ... on
XC functional terms                     ... off
Hybrid DFT                              ... on
   Exchange mixing (SCF)                ...  0.200
   Exchange mixing (CP-SCF)             ...  0.200
   GGA exch. scaling(SCF)               ...  0.720
   GGA exch. scaling (CP-SCF)           ...  0.720
   GGA corr. scaling (SCF)              ...  0.810
   GGA corr. scaling (CP-SCF)           ...  0.810

CP-SCF GRID
-----------

General Integration Accuracy     IntAcc      ... 3.467
Radial Grid Type                 RadialGrid  ... OptM3 with GC (2021)
Angular Grid (max. ang.)         AngularGrid ... 1 (Lebedev-50)
Angular grid pruning method      GridPruning ... 4 (adaptive)
Weight generation scheme         WeightScheme... Becke
Basis function cutoff            BFCut       ... 1.0000e-10
Integration weight cutoff        WCut        ... 1.0000e-14
Angular grids for H and He will be reduced by one unit
Partially contracted basis set               ... off
Rotationally invariant grid construction     ... off

Total number of grid points                  ...    20285
Total number of batches                      ...      332
Average number of points per batch           ...       61
Average number of grid points per atom       ...      615

CP-SCF GRIDX
------------

General Integration Accuracy     IntAcc      ... 3.067
Radial Grid Type                 RadialGrid  ... OptM3 with GC (2021)
Angular Grid (max. ang.)         AngularGrid ... 1 (Lebedev-50)
Angular grid pruning method      GridPruning ... 4 (adaptive)
Weight generation scheme         WeightScheme... Becke
Basis function cutoff            BFCut       ... 1.0000e-10
Integration weight cutoff        WCut        ... 1.0000e-14
Angular grids for H and He will be reduced by one unit
Partially contracted basis set               ... on
Rotationally invariant grid construction     ... off

Total number of grid points                  ...     9597
Total number of batches                      ...      168
Average number of points per batch           ...       57
Average number of grid points per atom       ...      291

Memory available               ... 917.0 MB
Memory needed per perturbation ...   8.2 MB
Perturbations treated per batch... 3
Number of batches              ... 1
     CP-SCF ITERATION   0:   4.1550e-02 (   0.5 sec   0/  3 done)
     CP-SCF ITERATION   1:   6.7088e-04 (   0.5 sec   3/  3 done)
                    *** THE CP-SCF HAS CONVERGED ***

Forming final perturbed densities           ... done
Transforming perturbed density to AO basis  ... done

 Raw HFC matrix (all values in MHz): 
 -----------------------------------
                -0.6167               0.0517              -0.1483
                 0.0518              -0.4737              -0.5833
                -0.1484              -0.5835               1.3779

 A(FC)           0.0956               0.0956               0.0956
 A(SD)          -0.7198              -0.7419               1.4617
 A(ORB+DIA)      0.0002               0.0001               0.0005    A(PC) =   0.0003
 A(ORB)          0.0000              -0.0000               0.0003    A(PC) =   0.0001
 A(DIA)          0.0002               0.0002               0.0001    A(PC) =   0.0002
             ----------           ----------           ----------
 A(Tot)         -0.6240              -0.6462               1.5578    A(iso)=    0.0959
 Orientation: 
  X           0.9030878           -0.4233896           -0.0719283
  Y           0.3897107            0.8783033           -0.2769636
  Z           0.1804384            0.2220912            0.9581845

Notes:  (1) The A matrix conforms to the "SAI" spin Hamiltonian convention.
        (2) Tensor is right-handed.

 -----------------------------------------------------------
 Nucleus  31H : A:ISTP=    1 I=  0.5 P=533.5514 MHz/au**3
                Q:ISTP=    2 I=  1.0 Q=  0.0029 barn     
 -----------------------------------------------------------
 Solving for nuclear perturbation:
Forming RHS of the CP-SCF equations         ... 
Calc. nucleus orbit integrals (SHARK)       ... done

------------------------------------------------------------------------------
                           ORCA CP-SCF CALCULATION
------------------------------------------------------------------------------

Input orbitals are from        ... epr_info.gbw
Input Perturbation             ... epr_info.pin.tmp
Wavefunction output            ... epr_info.pout.tmp
Perturbation mode              ... Imaginary perturbation
Solver                         ... POPLE
Max. number of iterations      ... 64
Convergence tolerance          ... 1.000e-03
Integral handling              ... Direct
DFT GridXC                     ... 1
COSX GridX                     ... 1
COSX IntAccX                   ... 3.067
COSX Algorithm                 ... Auto
Number of perturbations        ... 3
Number of operators            ... 2
Orbital ranges used for CP-SCF:
 Operator 0:  Orbitals   0... 54  to  55...370
 Operator 1:  Orbitals   0... 53  to  54...370
Variables per perturbation     ... 34498
DFT calculation                         ... on
XC functional terms                     ... off
Hybrid DFT                              ... on
   Exchange mixing (SCF)                ...  0.200
   Exchange mixing (CP-SCF)             ...  0.200
   GGA exch. scaling(SCF)               ...  0.720
   GGA exch. scaling (CP-SCF)           ...  0.720
   GGA corr. scaling (SCF)              ...  0.810
   GGA corr. scaling (CP-SCF)           ...  0.810

CP-SCF GRID
-----------

General Integration Accuracy     IntAcc      ... 3.467
Radial Grid Type                 RadialGrid  ... OptM3 with GC (2021)
Angular Grid (max. ang.)         AngularGrid ... 1 (Lebedev-50)
Angular grid pruning method      GridPruning ... 4 (adaptive)
Weight generation scheme         WeightScheme... Becke
Basis function cutoff            BFCut       ... 1.0000e-10
Integration weight cutoff        WCut        ... 1.0000e-14
Angular grids for H and He will be reduced by one unit
Partially contracted basis set               ... off
Rotationally invariant grid construction     ... off

Total number of grid points                  ...    20285
Total number of batches                      ...      332
Average number of points per batch           ...       61
Average number of grid points per atom       ...      615

CP-SCF GRIDX
------------

General Integration Accuracy     IntAcc      ... 3.067
Radial Grid Type                 RadialGrid  ... OptM3 with GC (2021)
Angular Grid (max. ang.)         AngularGrid ... 1 (Lebedev-50)
Angular grid pruning method      GridPruning ... 4 (adaptive)
Weight generation scheme         WeightScheme... Becke
Basis function cutoff            BFCut       ... 1.0000e-10
Integration weight cutoff        WCut        ... 1.0000e-14
Angular grids for H and He will be reduced by one unit
Partially contracted basis set               ... on
Rotationally invariant grid construction     ... off

Total number of grid points                  ...     9597
Total number of batches                      ...      168
Average number of points per batch           ...       57
Average number of grid points per atom       ...      291

Memory available               ... 916.6 MB
Memory needed per perturbation ...   8.2 MB
Perturbations treated per batch... 3
Number of batches              ... 1
     CP-SCF ITERATION   0:   4.4104e-02 (   0.5 sec   0/  3 done)
     CP-SCF ITERATION   1:   1.7034e-03 (   0.5 sec   1/  3 done)
     CP-SCF ITERATION   2:   1.3642e-04 (   0.4 sec   3/  3 done)
                    *** THE CP-SCF HAS CONVERGED ***

Forming final perturbed densities           ... done
Transforming perturbed density to AO basis  ... done

 Raw HFC matrix (all values in MHz): 
 -----------------------------------
                19.7858              -0.3802              -0.1727
                -0.3816              22.8859               7.2141
                -0.1715               7.2153              28.4021

 A(FC)          23.6905              23.6905              23.6905
 A(SD)          -5.7937              -3.8902               9.6839
 A(ORB+DIA)     -0.0016               0.0009               0.0029    A(PC) =   0.0007
 A(ORB)         -0.0028               0.0001               0.0021    A(PC) =  -0.0002
 A(DIA)          0.0012               0.0008               0.0007    A(PC) =   0.0009
             ----------           ----------           ----------
 A(Tot)         17.8952              19.8012              33.3773    A(iso)=   23.6912
 Orientation: 
  X           0.1136972            0.9931665            0.0263292
  Y           0.8198911           -0.0788276           -0.5670669
  Z          -0.5611164            0.0860610           -0.8232508

Notes:  (1) The A matrix conforms to the "SAI" spin Hamiltonian convention.
        (2) Tensor is right-handed.

 -----------------------------------------------------------
 Nucleus  32H : A:ISTP=    1 I=  0.5 P=533.5514 MHz/au**3
                Q:ISTP=    2 I=  1.0 Q=  0.0029 barn     
 -----------------------------------------------------------
 Solving for nuclear perturbation:
Forming RHS of the CP-SCF equations         ... 
Calc. nucleus orbit integrals (SHARK)       ... done

------------------------------------------------------------------------------
                           ORCA CP-SCF CALCULATION
------------------------------------------------------------------------------

Input orbitals are from        ... epr_info.gbw
Input Perturbation             ... epr_info.pin.tmp
Wavefunction output            ... epr_info.pout.tmp
Perturbation mode              ... Imaginary perturbation
Solver                         ... POPLE
Max. number of iterations      ... 64
Convergence tolerance          ... 1.000e-03
Integral handling              ... Direct
DFT GridXC                     ... 1
COSX GridX                     ... 1
COSX IntAccX                   ... 3.067
COSX Algorithm                 ... Auto
Number of perturbations        ... 3
Number of operators            ... 2
Orbital ranges used for CP-SCF:
 Operator 0:  Orbitals   0... 54  to  55...370
 Operator 1:  Orbitals   0... 53  to  54...370
Variables per perturbation     ... 34498
DFT calculation                         ... on
XC functional terms                     ... off
Hybrid DFT                              ... on
   Exchange mixing (SCF)                ...  0.200
   Exchange mixing (CP-SCF)             ...  0.200
   GGA exch. scaling(SCF)               ...  0.720
   GGA exch. scaling (CP-SCF)           ...  0.720
   GGA corr. scaling (SCF)              ...  0.810
   GGA corr. scaling (CP-SCF)           ...  0.810

CP-SCF GRID
-----------

General Integration Accuracy     IntAcc      ... 3.467
Radial Grid Type                 RadialGrid  ... OptM3 with GC (2021)
Angular Grid (max. ang.)         AngularGrid ... 1 (Lebedev-50)
Angular grid pruning method      GridPruning ... 4 (adaptive)
Weight generation scheme         WeightScheme... Becke
Basis function cutoff            BFCut       ... 1.0000e-10
Integration weight cutoff        WCut        ... 1.0000e-14
Angular grids for H and He will be reduced by one unit
Partially contracted basis set               ... off
Rotationally invariant grid construction     ... off

Total number of grid points                  ...    20285
Total number of batches                      ...      332
Average number of points per batch           ...       61
Average number of grid points per atom       ...      615

CP-SCF GRIDX
------------

General Integration Accuracy     IntAcc      ... 3.067
Radial Grid Type                 RadialGrid  ... OptM3 with GC (2021)
Angular Grid (max. ang.)         AngularGrid ... 1 (Lebedev-50)
Angular grid pruning method      GridPruning ... 4 (adaptive)
Weight generation scheme         WeightScheme... Becke
Basis function cutoff            BFCut       ... 1.0000e-10
Integration weight cutoff        WCut        ... 1.0000e-14
Angular grids for H and He will be reduced by one unit
Partially contracted basis set               ... on
Rotationally invariant grid construction     ... off

Total number of grid points                  ...     9597
Total number of batches                      ...      168
Average number of points per batch           ...       57
Average number of grid points per atom       ...      291

Memory available               ... 916.3 MB
Memory needed per perturbation ...   8.2 MB
Perturbations treated per batch... 3
Number of batches              ... 1
     CP-SCF ITERATION   0:   6.3754e-02 (   0.5 sec   0/  3 done)
     CP-SCF ITERATION   1:   2.7833e-03 (   0.5 sec   0/  3 done)
     CP-SCF ITERATION   2:   1.6636e-04 (   0.5 sec   3/  3 done)
                    *** THE CP-SCF HAS CONVERGED ***

Forming final perturbed densities           ... done
Transforming perturbed density to AO basis  ... done

 Raw HFC matrix (all values in MHz): 
 -----------------------------------
               -60.6441              -2.4238              -7.0026
                -2.4227             -95.3641              -7.7843
                -7.0048              -7.7861             -22.1430

 A(FC)         -59.3951             -59.3951             -59.3951
 A(SD)          39.1775              -2.0833             -37.0942
 A(ORB+DIA)      0.0109              -0.0030               0.0263    A(PC) =   0.0114
 A(ORB)          0.0060               0.0006               0.0270    A(PC) =   0.0112
 A(DIA)          0.0049              -0.0036              -0.0008    A(PC) =   0.0002
             ----------           ----------           ----------
 A(Tot)        -20.2067             -61.4814             -96.4630    A(iso)=  -59.3837
 Orientation: 
  X          -0.1642296            0.9824099            0.0888784
  Y          -0.0963823           -0.1056521            0.9897212
  Z           0.9817021            0.1539752            0.1120381

Notes:  (1) The A matrix conforms to the "SAI" spin Hamiltonian convention.
        (2) Tensor is right-handed.


--------------------------------------------------------------------------------
----------------------------------------------------------------------------
                           ORCA EULER ANGLE PROGRAM
----------------------------------------------------------------------------

Only g-tensor available        -->  using g-tensor as reference tensor

Reference tensor               ...  g

g-tensor ordering              ...  |g_min> --> |gx>
                                    |g_mid> --> |gy>
                                    |g_max> --> |gz>

A- and EFG-tensor ordering     ...  the axes |Ax>, |Qx>, |Ay>, etc. are assigned
                                    such that the Euler rotation is minimal. You
                                    can find the respective eigenvalues as Ax,
                                    EFGx, Ay, etc. in the tables below.
                                    The relation of |Ax>, |Ay>,  etc. to Amin, Amid, etc.
                                    (as printed in the ORCA EPR/NMR CALCULATION Output)
                                    is obtained in the detailed printout.

Euler rotation around          ...  z - y - z
   First rotation              -->  by alpha around z
   Second rotation             -->  by beta around y'
   Third rotation              -->  by gamma around z''
   Positive / Negative angle   -->  clockwise / counterclockwise rotation

Plot EFG-tensors                    (-)
Plot HFC-tensors                    (-)
Detailed Printout                   (-)

-------------------------------------------------------------------------
          Euler rotation of hyperfine tensor to g-tensor
-------------------------------------------------------------------------

-------------------------------------------------------------------
 Atom  |   Alpha    Beta    Gamma   |   Ax       Ay       Az 
       |          [degrees]         |           [MHz]         
-------------------------------------------------------------------
  0N      -23.6     47.8     21.3     419.12   309.62   312.70
  3O       44.9     26.9    -66.6       0.72    17.95    -7.48
  8N      -47.3     41.8     41.2       0.32     3.43     0.16
  9H       82.2     38.0    -76.7       2.01    15.07     0.55
 10H        5.6     19.1    -25.2     118.51   129.28   115.55
 11H       38.0     51.1    -51.5      -6.58    -4.53     4.73
 12H      -76.2     23.8     32.4       3.10    -4.27    -5.44
 13H     -119.6     15.3    141.3      -0.38     1.82    -0.78
 14H      179.7     27.3   -173.7      -1.21     2.01    -1.63
 15H      -79.7     27.1     69.7      -0.53     1.31    -0.56
 16H      -52.6     53.1     24.7      -1.22     2.78    -1.49
 17H      149.2     49.1   -117.9      -3.82     6.95    -0.64
 19N      -68.8     33.9    109.7       6.90     1.42    31.05
 20H       98.0     23.3   -137.4      -3.33     7.45    -6.65
 22H      -62.5     47.4     58.5      -0.62     1.56    -0.65
 31H      -83.6      1.5     92.0      19.80    17.90    33.38
 32H       85.9     39.3    -74.9     -61.48   -96.46   -20.21
-------------------------------------------------------------------


Maximum memory used throughout the entire EPRNMR-calculation: 143.1 MB

Timings for individual modules:

Sum of individual times         ...      546.273 sec (=   9.105 min)
GTO integral calculation        ...        3.683 sec (=   0.061 min)   0.7 %
Spin-Orbit-Coupling Matrices    ...        4.952 sec (=   0.083 min)   0.9 %
SCF iterations                  ...       25.651 sec (=   0.428 min)   4.7 %
EPR/NMR calculation             ...      511.987 sec (=   8.533 min)  93.7 %
                             ****ORCA TERMINATED NORMALLY****
TOTAL RUN TIME: 0 days 0 hours 9 minutes 8 seconds 896 msec
