
                                 *****************
                                 * O   R   C   A *
                                 *****************

                                            #,                                       
                                            ###                                      
                                            ####                                     
                                            #####                                    
                                            ######                                   
                                           ########,                                 
                                     ,,################,,,,,                         
                               ,,#################################,,                 
                          ,,##########################################,,             
                       ,#########################################, ''#####,          
                    ,#############################################,,   '####,        
                  ,##################################################,,,,####,       
                ,###########''''           ''''###############################       
              ,#####''   ,,,,##########,,,,          '''####'''          '####       
            ,##' ,,,,###########################,,,                        '##       
           ' ,,###''''                  '''############,,,                           
         ,,##''                                '''############,,,,        ,,,,,,###''
      ,#''                                            '''#######################'''  
     '                                                          ''''####''''         
             ,#######,   #######,   ,#######,      ##                                
            ,#'     '#,  ##    ##  ,#'     '#,    #''#        ######   ,####,        
            ##       ##  ##   ,#'  ##            #'  '#       #        #'  '#        
            ##       ##  #######   ##           ,######,      #####,   #    #        
            '#,     ,#'  ##    ##  '#,     ,#' ,#      #,         ##   #,  ,#        
             '#######'   ##     ##  '#######'  #'      '#     #####' # '####'        



                  #######################################################
                  #                        -***-                        #
                  #          Department of theory and spectroscopy      #
                  #    Directorship and core code : Frank Neese         #
                  #        Max Planck Institute fuer Kohlenforschung    #
                  #                Kaiser Wilhelm Platz 1               #
                  #                 D-45470 Muelheim/Ruhr               #
                  #                      Germany                        #
                  #                                                     #
                  #                  All rights reserved                #
                  #                        -***-                        #
                  #######################################################


                         Program Version 5.0.4 -  RELEASE  -


 With contributions from (in alphabetic order):
   Daniel Aravena         : Magnetic Suceptibility
   Michael Atanasov       : Ab Initio Ligand Field Theory (pilot matlab implementation)
   Alexander A. Auer      : GIAO ZORA, VPT2 properties, NMR spectrum
   Ute Becker             : Parallelization
   Giovanni Bistoni       : ED, misc. LED, open-shell LED, HFLD
   Martin Brehm           : Molecular dynamics
   Dmytro Bykov           : SCF Hessian
   Vijay G. Chilkuri      : MRCI spin determinant printing, contributions to CSF-ICE
   Dipayan Datta          : RHF DLPNO-CCSD density
   Achintya Kumar Dutta   : EOM-CC, STEOM-CC
   Dmitry Ganyushin       : Spin-Orbit,Spin-Spin,Magnetic field MRCI
   Miquel Garcia          : C-PCM and meta-GGA Hessian, CC/C-PCM, Gaussian charge scheme
   Yang Guo               : DLPNO-NEVPT2, F12-NEVPT2, CIM, IAO-localization
   Andreas Hansen         : Spin unrestricted coupled pair/coupled cluster methods
   Benjamin Helmich-Paris : MC-RPA, TRAH-SCF, COSX integrals
   Lee Huntington         : MR-EOM, pCC
   Robert Izsak           : Overlap fitted RIJCOSX, COSX-SCS-MP3, EOM
   Marcus Kettner         : VPT2
   Christian Kollmar      : KDIIS, OOCD, Brueckner-CCSD(T), CCSD density, CASPT2, CASPT2-K
   Simone Kossmann        : Meta GGA functionals, TD-DFT gradient, OOMP2, MP2 Hessian
   Martin Krupicka        : Initial AUTO-CI
   Lucas Lang             : DCDCAS
   Marvin Lechner         : AUTO-CI (C++ implementation), FIC-MRCC
   Dagmar Lenk            : GEPOL surface, SMD
   Dimitrios Liakos       : Extrapolation schemes; Compound Job, initial MDCI parallelization
   Dimitrios Manganas     : Further ROCIS development; embedding schemes
   Dimitrios Pantazis     : SARC Basis sets
   Anastasios Papadopoulos: AUTO-CI, single reference methods and gradients
   Taras Petrenko         : DFT Hessian,TD-DFT gradient, ASA, ECA, R-Raman, ABS, FL, XAS/XES, NRVS
   Peter Pinski           : DLPNO-MP2, DLPNO-MP2 Gradient
   Christoph Reimann      : Effective Core Potentials
   Marius Retegan         : Local ZFS, SOC
   Christoph Riplinger    : Optimizer, TS searches, QM/MM, DLPNO-CCSD(T), (RO)-DLPNO pert. Triples
   Tobias Risthaus        : Range-separated hybrids, TD-DFT gradient, RPA, STAB
   Michael Roemelt        : Original ROCIS implementation
   Masaaki Saitow         : Open-shell DLPNO-CCSD energy and density
   Barbara Sandhoefer     : DKH picture change effects
   Avijit Sen             : IP-ROCIS
   Kantharuban Sivalingam : CASSCF convergence, NEVPT2, FIC-MRCI
   Bernardo de Souza      : ESD, SOC TD-DFT
   Georgi Stoychev        : AutoAux, RI-MP2 NMR, DLPNO-MP2 response
   Willem Van den Heuvel  : Paramagnetic NMR
   Boris Wezisla          : Elementary symmetry handling
   Frank Wennmohs         : Technical directorship


 We gratefully acknowledge several colleagues who have allowed us to
 interface, adapt or use parts of their codes:
   Stefan Grimme, W. Hujo, H. Kruse, P. Pracht,  : VdW corrections, initial TS optimization,
                  C. Bannwarth, S. Ehlert          DFT functionals, gCP, sTDA/sTD-DF
   Ed Valeev, F. Pavosevic, A. Kumar             : LibInt (2-el integral package), F12 methods
   Garnet Chan, S. Sharma, J. Yang, R. Olivares  : DMRG
   Ulf Ekstrom                                   : XCFun DFT Library
   Mihaly Kallay                                 : mrcc  (arbitrary order and MRCC methods)
   Jiri Pittner, Ondrej Demel                    : Mk-CCSD
   Frank Weinhold                                : gennbo (NPA and NBO analysis)
   Christopher J. Cramer and Donald G. Truhlar   : smd solvation model
   Lars Goerigk                                  : TD-DFT with DH, B97 family of functionals
   V. Asgeirsson, H. Jonsson                     : NEB implementation
   FAccTs GmbH                                   : IRC, NEB, NEB-TS, DLPNO-Multilevel, CI-OPT
                                                   MM, QMMM, 2- and 3-layer-ONIOM, Crystal-QMMM,
                                                   LR-CPCM, SF, NACMEs, symmetry and pop. for TD-DFT,
                                                   nearIR, NL-DFT gradient (VV10), updates on ESD,
                                                   ML-optimized integration grids
   S Lehtola, MJT Oliveira, MAL Marques          : LibXC Library
   Liviu Ungur et al                             : ANISO software


 Your calculation uses the libint2 library for the computation of 2-el integrals
 For citations please refer to: http://libint.valeyev.net

 Your ORCA version has been built with support for libXC version: 5.1.0
 For citations please refer to: https://tddft.org/programs/libxc/

 This ORCA versions uses:
   CBLAS   interface :  Fast vector & matrix operations
   LAPACKE interface :  Fast linear algebra routines
   SCALAPACK package :  Parallel linear algebra routines
   Shared memory     :  Shared parallel matrices
   BLAS/LAPACK       :  OpenBLAS 0.3.15  USE64BITINT DYNAMIC_ARCH NO_AFFINITY Zen SINGLE_THREADED
        Core in use  :  Zen
   Copyright (c) 2011-2014, The OpenBLAS Project




***************************************
The coordinates will be read from file: opt.xyz
***************************************


XCFun DFT library Copyright 2009-2010 Ulf Ekstrom and contributors.
See http://admol.org/xcfun for more information.
This is free software; see the source code for copying conditions.
There is ABSOLUTELY NO WARRANTY; not even for MERCHANTABILITY or FITNESS FOR A PARTICULAR PURPOSE.
For details see the documentation.
Scientific users of this library should cite U. Ekstrom, L. Visscher, R. Bast, A. J. Thorvaldsen and K. Ruud;
J.Chem.Theor.Comp. 2010, DOI: 10.1021/ct100117s
XCFun Version 0.99 

================================================================================

----- Orbital basis set information -----
Your calculation utilizes the basis: def2-TZVP
   F. Weigend and R. Ahlrichs, Phys. Chem. Chem. Phys. 7, 3297 (2005).

----- AuxJ basis set information -----
Your calculation utilizes the auxiliary basis: def2/J
   F. Weigend, Phys. Chem. Chem. Phys. 8, 1057 (2006).

================================================================================
                                        WARNINGS
                       Please study these warnings very carefully!
================================================================================


WARNING: your system is open-shell and RHF/RKS was chosen
  ===> : WILL SWITCH to UHF/UKS


WARNING: Geometry Optimization
  ===> : Switching off AutoStart
         For restart on a previous wavefunction, please use MOREAD

WARNING: Minnesota functionals are quite sensitive to the integration grid.
         see SE Wheeler, KN Houk, JCTC 2010, 6, 395,
             N Mardirossian, M Head-Gordon, JCTC 2016, 12, 4303.
         DEFGRID3 seems to be a minimum grid for reliable results with these functionals!
  ===> : Please increase the integration grid!


INFO   : the flag for use of the SHARK integral package has been found!

================================================================================
                                       INPUT FILE
================================================================================
NAME = freq.inp
|  1> ! M062X def2-TZVP OPT FREQ
|  2> %pal nprocs 16 end
|  3> *XYZFile 1 2 opt.xyz
|  4> 
|  5>                          ****END OF INPUT****
================================================================================

                       *****************************
                       * Geometry Optimization Run *
                       *****************************

Geometry optimization settings:
Update method            Update   .... BFGS
Choice of coordinates    CoordSys .... Z-matrix Internals
Initial Hessian          InHess   .... Almoef's Model

Convergence Tolerances:
Energy Change            TolE     ....  5.0000e-06 Eh
Max. Gradient            TolMAXG  ....  3.0000e-04 Eh/bohr
RMS Gradient             TolRMSG  ....  1.0000e-04 Eh/bohr
Max. Displacement        TolMAXD  ....  4.0000e-03 bohr
RMS Displacement         TolRMSD  ....  2.0000e-03 bohr
Strict Convergence                ....  False
------------------------------------------------------------------------------
                        ORCA OPTIMIZATION COORDINATE SETUP
------------------------------------------------------------------------------

The optimization will be done in new redundant internal coordinates
Making redundant internal coordinates   ...  (new redundants) done
Evaluating the initial hessian          ...  (Almloef) done
Evaluating the coordinates              ...  done
Calculating the B-matrix                .... done
Calculating the G-matrix                .... done
Diagonalizing the G-matrix              .... done
Small eigenvalue found = 4.415e-03
Small eigenvalue found = 6.048e-03
Small eigenvalue found = 8.957e-03
Small eigenvalue found = 1.616e-02
Small eigenvalue found = 2.572e-02
The first mode is                       ....   67
The number of degrees of freedom        ....   93

    -----------------------------------------------------------------
                    Redundant Internal Coordinates


    -----------------------------------------------------------------
         Definition                    Initial Value    Approx d2E/dq
    -----------------------------------------------------------------
      1. B(C   1,N   0)                  1.4713         0.415097   
      2. B(C   2,C   1)                  1.5601         0.334478   
      3. B(O   3,C   2)                  1.2303         1.006070   
      4. B(C   4,C   1)                  1.5129         0.397769   
      5. B(C   5,C   4)                  1.5049         0.409610   
      6. B(C   6,C   5)                  1.5587         0.336229   
      7. B(C   7,C   6)                  1.5349         0.366934   
      8. B(N   8,C   7)                  1.5196         0.347603   
      9. B(H   9,C   5)                  1.0940         0.354868   
     10. B(H  10,C   5)                  1.1013         0.345477   
     11. B(H  11,C   6)                  1.0968         0.351232   
     12. B(H  12,C   6)                  1.0938         0.355159   
     13. B(H  13,C   7)                  1.0921         0.357372   
     14. B(H  14,C   7)                  1.0924         0.356964   
     15. B(H  15,N   8)                  1.0219         0.414155   
     16. B(H  16,N   8)                  1.0728         0.343547   
     17. B(H  17,N   0)                  1.0198         0.417409   
     18. B(C  18,N   0)                  1.3422         0.667022   
     19. B(N  19,C   2)                  1.3540         0.638729   
     20. B(H  20,N  19)                  1.0097         0.433215   
     21. B(O  21,C  18)                  1.2560         0.915656   
     22. B(H  22,N   8)                  1.0221         0.413897   
     23. B(C  23,N  19)                  1.4651         0.424683   
     24. B(H  24,C  23)                  1.0895         0.360808   
     25. B(H  25,C  23)                  1.0935         0.355482   
     26. B(H  26,C  23)                  1.0939         0.354960   
     27. B(C  27,C  18)                  1.5143         0.395761   
     28. B(H  28,C  27)                  1.0936         0.355329   
     29. B(H  29,C  27)                  1.0938         0.355091   
     30. B(H  30,C  27)                  1.0913         0.358445   
     31. B(H  31,C   1)                  1.0979         0.349739   
     32. B(H  32,C   4)                  1.0876         0.363275   
     33. A(H  17,N   0,C  18)          120.5112         0.360943   
     34. A(C   1,N   0,C  18)          125.8019         0.404118   
     35. A(C   1,N   0,H  17)          112.0979         0.333261   
     36. A(C   2,C   1,C   4)          111.5536         0.360400   
     37. A(C   2,C   1,H  31)          108.4814         0.316992   
     38. A(N   0,C   1,H  31)          107.7342         0.326443   
     39. A(N   0,C   1,C   4)          113.2980         0.371649   
     40. A(C   4,C   1,H  31)          110.7154         0.326113   
     41. A(N   0,C   1,C   2)          104.7595         0.360777   
     42. A(O   3,C   2,N  19)          124.8322         0.470272   
     43. A(C   1,C   2,N  19)          115.0998         0.388623   
     44. A(C   1,C   2,O   3)          120.0676         0.421074   
     45. A(C   5,C   4,H  32)          118.3676         0.329753   
     46. A(C   1,C   4,C   5)          121.8187         0.373137   
     47. A(C   1,C   4,H  32)          116.7681         0.328160   
     48. A(H   9,C   5,H  10)          105.9605         0.288293   
     49. A(C   6,C   5,H  10)          108.9795         0.316629   
     50. A(C   4,C   5,C   6)          115.2730         0.362531   
     51. A(C   6,C   5,H   9)          108.7446         0.318015   
     52. A(C   4,C   5,H   9)          109.4372         0.328480   
     53. A(C   4,C   5,H  10)          108.0431         0.327031   
     54. A(C   7,C   6,H  11)          108.7741         0.322046   
     55. A(C   5,C   6,H  11)          111.3228         0.317482   
     56. A(C   5,C   6,C   7)          113.1271         0.355803   
     57. A(H  11,C   6,H  12)          105.8088         0.289077   
     58. A(C   7,C   6,H  12)          107.9743         0.322634   
     59. A(C   5,C   6,H  12)          109.5221         0.318058   
     60. A(H  13,C   7,H  14)          108.4015         0.290094   
     61. A(N   8,C   7,H  14)          106.8207         0.318153   
     62. A(C   6,C   7,H  14)          111.3962         0.322902   
     63. A(N   8,C   7,H  13)          107.1589         0.318212   
     64. A(C   6,C   7,H  13)          112.3525         0.322962   
     65. A(C   6,C   7,N   8)          110.4636         0.355608   
     66. A(H  15,N   8,H  16)          108.6175         0.290348   
     67. A(C   7,N   8,H  16)          112.4920         0.313527   
     68. A(C   7,N   8,H  15)          111.6978         0.323230   
     69. A(H  16,N   8,H  22)          106.2315         0.290319   
     70. A(H  15,N   8,H  22)          107.0895         0.299019   
     71. A(C   7,N   8,H  22)          110.4236         0.323197   
     72. A(O  21,C  18,C  27)          120.0412         0.426688   
     73. A(N   0,C  18,C  27)          117.1596         0.403321   
     74. A(N   0,C  18,O  21)          122.7992         0.465911   
     75. A(H  20,N  19,C  23)          118.5683         0.336601   
     76. A(C   2,N  19,C  23)          123.2689         0.402659   
     77. A(C   2,N  19,H  20)          118.0331         0.360563   
     78. A(H  25,C  23,H  26)          109.3248         0.289597   
     79. A(H  24,C  23,H  26)          109.1495         0.290273   
     80. A(N  19,C  23,H  26)          110.5887         0.328474   
     81. A(H  24,C  23,H  25)          109.2499         0.290340   
     82. A(N  19,C  23,H  25)          110.3968         0.328554   
     83. A(N  19,C  23,H  24)          108.1000         0.329362   
     84. A(H  29,C  27,H  30)          109.3566         0.289991   
     85. A(H  28,C  27,H  30)          109.3707         0.290021   
     86. A(C  18,C  27,H  30)          113.1534         0.327163   
     87. A(H  28,C  27,H  29)          107.5237         0.289594   
     88. A(C  18,C  27,H  29)          108.4893         0.326657   
     89. A(C  18,C  27,H  28)          108.7900         0.326693   
     90. D(C   4,C   1,N   0,H  17)   -111.1999         0.014695   
     91. D(C   2,C   1,N   0,C  18)   -154.9649         0.014695   
     92. D(C   2,C   1,N   0,H  17)     10.6089         0.014695   
     93. D(C   4,C   1,N   0,C  18)     83.2263         0.014695   
     94. D(H  31,C   1,N   0,H  17)    125.9763         0.014695   
     95. D(H  31,C   1,N   0,C  18)    -39.5975         0.014695   
     96. D(O   3,C   2,C   1,N   0)     -2.0531         0.008530   
     97. D(N  19,C   2,C   1,C   4)    -58.9010         0.008530   
     98. D(N  19,C   2,C   1,H  31)     63.3089         0.008530   
     99. D(O   3,C   2,C   1,H  31)   -116.8990         0.008530   
    100. D(O   3,C   2,C   1,C   4)    120.8911         0.008530   
    101. D(N  19,C   2,C   1,N   0)    178.1548         0.008530   
    102. D(C   5,C   4,C   1,C   2)    165.8151         0.011748   
    103. D(C   5,C   4,C   1,N   0)    -76.2591         0.011748   
    104. D(C   5,C   4,C   1,H  31)     44.9002         0.011748   
    105. D(H  32,C   4,C   1,H  31)   -155.1720         0.011748   
    106. D(H  32,C   4,C   1,C   2)    -34.2570         0.011748   
    107. D(H  32,C   4,C   1,N   0)     83.6688         0.011748   
    108. D(H  10,C   5,C   4,H  32)   -100.4802         0.012427   
    109. D(H  10,C   5,C   4,C   1)     59.1400         0.012427   
    110. D(H   9,C   5,C   4,H  32)     14.4571         0.012427   
    111. D(C   6,C   5,C   4,H  32)    137.3757         0.012427   
    112. D(C   6,C   5,C   4,C   1)    -63.0041         0.012427   
    113. D(H   9,C   5,C   4,C   1)    174.0773         0.012427   
    114. D(H  11,C   6,C   5,H  10)    -96.7502         0.009172   
    115. D(H  11,C   6,C   5,H   9)    148.1763         0.009172   
    116. D(H  11,C   6,C   5,C   4)     24.8900         0.009172   
    117. D(C   7,C   6,C   5,H  10)     26.0964         0.009172   
    118. D(C   7,C   6,C   5,H   9)    -88.9771         0.009172   
    119. D(H  12,C   6,C   5,C   4)    -91.7691         0.009172   
    120. D(C   7,C   6,C   5,C   4)    147.7367         0.009172   
    121. D(H  12,C   6,C   5,H  10)    146.5907         0.009172   
    122. D(H  12,C   6,C   5,H   9)     31.5172         0.009172   
    123. D(H  14,C   7,C   6,H  12)    -82.6416         0.010774   
    124. D(H  14,C   7,C   6,H  11)    162.9788         0.010774   
    125. D(H  14,C   7,C   6,C   5)     38.7294         0.010774   
    126. D(H  13,C   7,C   6,H  12)     39.2086         0.010774   
    127. D(H  13,C   7,C   6,H  11)    -75.1709         0.010774   
    128. D(H  13,C   7,C   6,C   5)    160.5796         0.010774   
    129. D(N   8,C   7,C   6,H  12)    158.8072         0.010774   
    130. D(N   8,C   7,C   6,H  11)     44.4277         0.010774   
    131. D(N   8,C   7,C   6,C   5)    -79.8218         0.010774   
    132. D(H  22,N   8,C   7,H  14)    157.4847         0.011146   
    133. D(H  22,N   8,C   7,H  13)     41.4772         0.011146   
    134. D(H  22,N   8,C   7,C   6)    -81.2096         0.011146   
    135. D(H  16,N   8,C   7,H  14)    -84.0254         0.011146   
    136. D(H  16,N   8,C   7,H  13)    159.9671         0.011146   
    137. D(H  16,N   8,C   7,C   6)     37.2802         0.011146   
    138. D(H  15,N   8,C   7,H  14)     38.4294         0.011146   
    139. D(H  15,N   8,C   7,H  13)    -77.5781         0.011146   
    140. D(H  15,N   8,C   7,C   6)    159.7350         0.011146   
    141. D(C  27,C  18,N   0,H  17)      8.6509         0.036478   
    142. D(C  27,C  18,N   0,C   1)    173.1096         0.036478   
    143. D(O  21,C  18,N   0,H  17)   -171.4085         0.036478   
    144. D(O  21,C  18,N   0,C   1)     -6.9498         0.036478   
    145. D(C  23,N  19,C   2,O   3)     -0.6340         0.033195   
    146. D(C  23,N  19,C   2,C   1)    179.1468         0.033195   
    147. D(H  20,N  19,C   2,O   3)   -176.4280         0.033195   
    148. D(H  20,N  19,C   2,C   1)      3.3528         0.033195   
    149. D(H  25,C  23,N  19,H  20)    -62.1828         0.015377   
    150. D(H  25,C  23,N  19,C   2)    122.0445         0.015377   
    151. D(H  24,C  23,N  19,H  20)    178.3722         0.015377   
    152. D(H  24,C  23,N  19,C   2)      2.5994         0.015377   
    153. D(H  26,C  23,N  19,H  20)     58.9369         0.015377   
    154. D(H  26,C  23,N  19,C   2)   -116.8358         0.015377   
    155. D(H  30,C  27,C  18,O  21)   -179.5784         0.011635   
    156. D(H  30,C  27,C  18,N   0)      0.3640         0.011635   
    157. D(H  29,C  27,C  18,O  21)     58.8813         0.011635   
    158. D(H  29,C  27,C  18,N   0)   -121.1763         0.011635   
    159. D(H  28,C  27,C  18,O  21)    -57.8066         0.011635   
    160. D(H  28,C  27,C  18,N   0)    122.1358         0.011635   
    -----------------------------------------------------------------

Number of atoms                         .... 33
Number of degrees of freedom            .... 160

         *************************************************************
         *                GEOMETRY OPTIMIZATION CYCLE   1            *
         *************************************************************
---------------------------------
CARTESIAN COORDINATES (ANGSTROEM)
---------------------------------
  N     -7.838166    1.499810    0.369687
  C     -6.418375    1.691405    0.704709
  C     -6.003048    0.379748    1.440199
  O     -6.836146   -0.501945    1.645777
  C     -6.165133    2.912765    1.560903
  C     -6.180620    4.302871    0.984545
  C     -5.088001    4.590245   -0.089258
  C     -5.545418    5.587117   -1.162981
  N     -6.412804    4.891450   -2.198798
  H     -6.079899    5.033220    1.792783
  H     -7.173411    4.477148    0.540898
  H     -4.760184    3.666705   -0.581755
  H     -4.198036    5.001355    0.395781
  H     -4.705570    6.037646   -1.696177
  H     -6.149617    6.388343   -0.731385
  H     -6.989888    5.557001   -2.716829
  H     -7.053099    4.147808   -1.765277
  H     -8.234283    0.681440    0.831588
  C     -8.496178    2.101102   -0.633789
  N     -4.702829    0.317235    1.812797
  H     -4.120555    1.123943    1.640651
  O     -7.984807    3.008824   -1.335194
  H     -5.830153    4.403499   -2.882250
  C     -4.126149   -0.822911    2.529744
  H     -4.903137   -1.577690    2.646079
  H     -3.292953   -1.247595    1.963000
  H     -3.772518   -0.516581    3.518558
  C     -9.913818    1.642258   -0.903696
  H    -10.584443    2.502002   -0.819257
  H     -9.970896    1.280002   -1.934200
  H    -10.246752    0.855469   -0.224760
  H     -5.858027    1.754549   -0.237368
  H     -6.303655    2.796443    2.633366

----------------------------
CARTESIAN COORDINATES (A.U.)
----------------------------
  NO LB      ZA    FRAG     MASS         X           Y           Z
   0 N     7.0000    0    14.007  -14.811988    2.834230    0.698608
   1 C     6.0000    0    12.011  -12.128971    3.196293    1.331707
   2 C     6.0000    0    12.011  -11.344116    0.717620    2.721583
   3 O     8.0000    0    15.999  -12.918443   -0.948539    3.110067
   4 C     6.0000    0    12.011  -11.650414    5.504328    2.949679
   5 C     6.0000    0    12.011  -11.679680    8.131249    1.860521
   6 C     6.0000    0    12.011   -9.614928    8.674306   -0.168674
   7 C     6.0000    0    12.011  -10.479321   10.558121   -2.197716
   8 N     7.0000    0    14.007  -12.118444    9.243501   -4.155127
   9 H     1.0000    0     1.008  -11.489343    9.511407    3.387868
  10 H     1.0000    0     1.008  -13.555781    8.460584    1.022150
  11 H     1.0000    0     1.008   -8.995444    6.929068   -1.099358
  12 H     1.0000    0     1.008   -7.933138    9.451191    0.747917
  13 H     1.0000    0     1.008   -8.892239   11.409497   -3.205310
  14 H     1.0000    0     1.008  -11.621093   12.072219   -1.382118
  15 H     1.0000    0     1.008  -13.208974   10.501209   -5.134063
  16 H     1.0000    0     1.008  -13.328426    7.838222   -3.335891
  17 H     1.0000    0     1.008  -15.560539    1.287735    1.571473
  18 C     6.0000    0    12.011  -16.055450    3.970507   -1.197688
  19 N     7.0000    0    14.007   -8.887059    0.599487    3.425690
  20 H     1.0000    0     1.008   -7.786720    2.123945    3.100381
  21 O     8.0000    0    15.999  -15.089099    5.685853   -2.523151
  22 H     1.0000    0     1.008  -11.017393    8.321407   -5.446664
  23 C     6.0000    0    12.011   -7.797293   -1.555077    4.780523
  24 H     1.0000    0     1.008   -9.265586   -2.981403    5.000365
  25 H     1.0000    0     1.008   -6.222779   -2.357612    3.709532
  26 H     1.0000    0     1.008   -7.129027   -0.976197    6.649111
  27 C     6.0000    0    12.011  -18.734401    3.103418   -1.707737
  28 H     1.0000    0     1.008  -20.001698    4.728099   -1.548171
  29 H     1.0000    0     1.008  -18.842263    2.418853   -3.655109
  30 H     1.0000    0     1.008  -19.363556    1.616602   -0.424735
  31 H     1.0000    0     1.008  -11.070066    3.315617   -0.448561
  32 H     1.0000    0     1.008  -11.912181    5.284512    4.976341

--------------------------------
INTERNAL COORDINATES (ANGSTROEM)
--------------------------------
 N      0   0   0     0.000000000000     0.00000000     0.00000000
 C      1   0   0     1.471310593857     0.00000000     0.00000000
 C      2   1   0     1.560092092344   104.75950339     0.00000000
 O      3   2   1     1.230324056567   120.06764283   357.94692309
 C      2   1   3     1.512917677957   113.29796334   238.19123990
 C      5   2   1     1.504933026735   121.81866088   283.74091766
 C      6   5   2     1.558671025739   115.27304337   296.99590864
 C      7   6   5     1.534882581854   113.12712014   147.73667407
 N      8   7   6     1.519614379316   110.46362883   280.17818518
 H      6   5   2     1.093984126937   109.43716361   174.07729436
 H      6   5   2     1.101284399062   108.04309793    59.13998746
 H      7   6   5     1.096787588007   111.32280736    24.89002643
 H      7   6   5     1.093760755789   109.52211352   268.23089266
 H      8   7   6     1.092070308814   112.35246004   160.57958528
 H      8   7   6     1.092380943378   111.39619430    38.72936425
 H      9   8   7     1.021929252478   111.69781182   159.73500354
 H      9   8   7     1.072809942641   112.49198899    37.28022518
 H      1   2   3     1.019798942240   112.09791650    10.60888879
 C      1   2   3     1.342198352303   125.80186955   205.03510585
 N      3   2   1     1.353996385515   115.09978635   178.15481694
 H     20   3   2     1.009681044439   118.03305803     3.35276441
 O     19   1   2     1.255957070348   122.79917038   353.05022592
 H      9   8   7     1.022098339279   110.42356845   278.79037061
 C     20   3   2     1.465095687115   123.26892999   179.14678571
 H     24  20   3     1.089465517711   108.09998047     2.59941529
 H     24  20   3     1.093513551127   110.39676391   122.04445089
 H     24  20   3     1.093913606743   110.58874164   243.16417520
 C     19   1   2     1.514295175631   117.15960183   173.10955149
 H     28  19   1     1.093630365447   108.79004043   122.13578525
 H     28  19   1     1.093813096890   108.48926184   238.82370734
 H     28  19   1     1.091254246569   113.15336784     0.36395601
 H      2   1   3     1.097946824836   107.73418720   115.36742572
 H      5   2   1     1.087610595709   116.76814055    83.66877294

---------------------------
INTERNAL COORDINATES (A.U.)
---------------------------
 N      0   0   0     0.000000000000     0.00000000     0.00000000
 C      1   0   0     2.780374080327     0.00000000     0.00000000
 C      2   1   0     2.948146798225   104.75950339     0.00000000
 O      3   2   1     2.324975522887   120.06764283   357.94692309
 C      2   1   3     2.859000074506   113.29796334   238.19123990
 C      5   2   1     2.843911270422   121.81866088   283.74091766
 C      6   5   2     2.945461371525   115.27304337   296.99590864
 C      7   6   5     2.900507727430   113.12712014   147.73667407
 N      8   7   6     2.871655006075   110.46362883   280.17818518
 H      6   5   2     2.067330394769   109.43716361   174.07729436
 H      6   5   2     2.081125909788   108.04309793    59.13998746
 H      7   6   5     2.072628168417   111.32280736    24.89002643
 H      7   6   5     2.066908284472   109.52211352   268.23089266
 H      8   7   6     2.063713802646   112.35246004   160.57958528
 H      8   7   6     2.064300816900   111.39619430    38.72936425
 H      9   8   7     1.931166415427   111.69781182   159.73500354
 H      9   8   7     2.027316985339   112.49198899    37.28022518
 H      1   2   3     1.927140712497   112.09791650    10.60888879
 C      1   2   3     2.536387303254   125.80186955   205.03510585
 N      3   2   1     2.558682354943   115.09978635   178.15481694
 H     20   3   2     1.908020656601   118.03305803     3.35276441
 O     19   1   2     2.373414898919   122.79917038   353.05022592
 H      9   8   7     1.931485943173   110.42356845   278.79037061
 C     20   3   2     2.768629608637   123.26892999   179.14678571
 H     24  20   3     2.058791460825   108.09998047     2.59941529
 H     24  20   3     2.066441135362   110.39676391   122.04445089
 H     24  20   3     2.067197130914   110.58874164   243.16417520
 C     19   1   2     2.861603167860   117.15960183   173.10955149
 H     28  19   1     2.066661882435   108.79004043   122.13578525
 H     28  19   1     2.067007194818   108.48926184   238.82370734
 H     28  19   1     2.062171668493   113.15336784     0.36395601
 H      2   1   3     2.074818808548   107.73418720   115.36742572
 H      5   2   1     2.055286166240   116.76814055    83.66877294

---------------------
BASIS SET INFORMATION
---------------------
There are 4 groups of distinct atoms

 Group   1 Type N   : 11s6p2d1f contracted to 5s3p2d1f pattern {62111/411/11/1}
 Group   2 Type C   : 11s6p2d1f contracted to 5s3p2d1f pattern {62111/411/11/1}
 Group   3 Type O   : 11s6p2d1f contracted to 5s3p2d1f pattern {62111/411/11/1}
 Group   4 Type H   : 5s1p contracted to 3s1p pattern {311/1}

Atom   0N    basis set group =>   1
Atom   1C    basis set group =>   2
Atom   2C    basis set group =>   2
Atom   3O    basis set group =>   3
Atom   4C    basis set group =>   2
Atom   5C    basis set group =>   2
Atom   6C    basis set group =>   2
Atom   7C    basis set group =>   2
Atom   8N    basis set group =>   1
Atom   9H    basis set group =>   4
Atom  10H    basis set group =>   4
Atom  11H    basis set group =>   4
Atom  12H    basis set group =>   4
Atom  13H    basis set group =>   4
Atom  14H    basis set group =>   4
Atom  15H    basis set group =>   4
Atom  16H    basis set group =>   4
Atom  17H    basis set group =>   4
Atom  18C    basis set group =>   2
Atom  19N    basis set group =>   1
Atom  20H    basis set group =>   4
Atom  21O    basis set group =>   3
Atom  22H    basis set group =>   4
Atom  23C    basis set group =>   2
Atom  24H    basis set group =>   4
Atom  25H    basis set group =>   4
Atom  26H    basis set group =>   4
Atom  27C    basis set group =>   2
Atom  28H    basis set group =>   4
Atom  29H    basis set group =>   4
Atom  30H    basis set group =>   4
Atom  31H    basis set group =>   4
Atom  32H    basis set group =>   4
---------------------------------
AUXILIARY/J BASIS SET INFORMATION
---------------------------------
There are 4 groups of distinct atoms

 Group   1 Type N   : 12s5p4d2f1g contracted to 6s4p3d1f1g pattern {711111/2111/211/2/1}
 Group   2 Type C   : 12s5p4d2f1g contracted to 6s4p3d1f1g pattern {711111/2111/211/2/1}
 Group   3 Type O   : 12s5p4d2f1g contracted to 6s4p3d1f1g pattern {711111/2111/211/2/1}
 Group   4 Type H   : 5s2p1d contracted to 3s1p1d pattern {311/2/1}

Atom   0N    basis set group =>   1
Atom   1C    basis set group =>   2
Atom   2C    basis set group =>   2
Atom   3O    basis set group =>   3
Atom   4C    basis set group =>   2
Atom   5C    basis set group =>   2
Atom   6C    basis set group =>   2
Atom   7C    basis set group =>   2
Atom   8N    basis set group =>   1
Atom   9H    basis set group =>   4
Atom  10H    basis set group =>   4
Atom  11H    basis set group =>   4
Atom  12H    basis set group =>   4
Atom  13H    basis set group =>   4
Atom  14H    basis set group =>   4
Atom  15H    basis set group =>   4
Atom  16H    basis set group =>   4
Atom  17H    basis set group =>   4
Atom  18C    basis set group =>   2
Atom  19N    basis set group =>   1
Atom  20H    basis set group =>   4
Atom  21O    basis set group =>   3
Atom  22H    basis set group =>   4
Atom  23C    basis set group =>   2
Atom  24H    basis set group =>   4
Atom  25H    basis set group =>   4
Atom  26H    basis set group =>   4
Atom  27C    basis set group =>   2
Atom  28H    basis set group =>   4
Atom  29H    basis set group =>   4
Atom  30H    basis set group =>   4
Atom  31H    basis set group =>   4
Atom  32H    basis set group =>   4


           ************************************************************
           *        Program running with 16 parallel MPI-processes    *
           *              working on a common directory               *
           ************************************************************
------------------------------------------------------------------------------
                           ORCA GTO INTEGRAL CALCULATION
                           -- RI-GTO INTEGRALS CHOSEN --
------------------------------------------------------------------------------
------------------------------------------------------------------------------
                   ___                                                        
                  /   \      - P O W E R E D   B Y -                         
                 /     \                                                     
                 |  |  |   _    _      __       _____    __    __             
                 |  |  |  | |  | |    /  \     |  _  \  |  |  /  |          
                  \  \/   | |  | |   /    \    | | | |  |  | /  /          
                 / \  \   | |__| |  /  /\  \   | |_| |  |  |/  /          
                |  |  |   |  __  | /  /__\  \  |    /   |      \           
                |  |  |   | |  | | |   __   |  |    \   |  |\   \          
                \     /   | |  | | |  |  |  |  | |\  \  |  | \   \       
                 \___/    |_|  |_| |__|  |__|  |_| \__\ |__|  \__/        
                                                                              
                      - O R C A' S   B I G   F R I E N D -                    
                                      &                                       
                       - I N T E G R A L  F E E D E R -                       
                                                                              
 v1 FN, 2020, v2 2021                                                         
------------------------------------------------------------------------------


Reading SHARK input file freq.SHARKINP.tmp ... ok
----------------------
SHARK INTEGRAL PACKAGE
----------------------

Number of atoms                             ...     33
Number of basis functions                   ...    548
Number of shells                            ...    230
Maximum angular momentum                    ...      3
Integral batch strategy                     ... SHARK/LIBINT Hybrid
RI-J (if used) integral strategy            ... SPLIT-RIJ (Revised 2003 algorithm where possible)
Printlevel                                  ...      1
Contraction scheme used                     ... SEGMENTED contraction
Coulomb Range Separation                    ... NOT USED
Exchange Range Separation                   ... NOT USED
Finite Nucleus Model                        ... NOT USED
Auxiliary Coulomb fitting basis             ... AVAILABLE
   # of basis functions in Aux-J            ...    895
   # of shells in Aux-J                     ...    305
   Maximum angular momentum in Aux-J        ...      4
Auxiliary J/K fitting basis                 ... NOT available
Auxiliary Correlation fitting basis         ... NOT available
Auxiliary 'external' fitting basis          ... NOT available
Integral threshold                          ...     2.500000e-11
Primitive cut-off                           ...     2.500000e-12
Primitive pair pre-selection threshold      ...     2.500000e-12

Calculating pre-screening integrals         ... done (  0.0 sec) Dimension = 230
Organizing shell pair data                  ... done (  0.1 sec)
Shell pair information
Total number of shell pairs                 ...     26565
Shell pairs after pre-screening             ...     20683
Total number of primitive shell pairs       ...     78180
Primitive shell pairs kept                  ...     42397
          la=0 lb=0:   6218 shell pairs
          la=1 lb=0:   6120 shell pairs
          la=1 lb=1:   1552 shell pairs
          la=2 lb=0:   2744 shell pairs
          la=2 lb=1:   1374 shell pairs
          la=2 lb=2:    327 shell pairs
          la=3 lb=0:   1301 shell pairs
          la=3 lb=1:    664 shell pairs
          la=3 lb=2:    304 shell pairs
          la=3 lb=3:     79 shell pairs

Calculating one electron integrals          ... done (  0.0 sec)
Calculating RI/J V-Matrix + Cholesky decomp.... done (  0.0 sec)
Calculating Nuclear repulsion               ... done (  0.0 sec) ENN=    963.368217136377 Eh

SHARK setup successfully completed in   0.4 seconds

Maximum memory used throughout the entire GTOINT-calculation: 32.1 MB


           ************************************************************
           *        Program running with 16 parallel MPI-processes    *
           *              working on a common directory               *
           ************************************************************
-------------------------------------------------------------------------------
                                 ORCA SCF
-------------------------------------------------------------------------------

------------
SCF SETTINGS
------------
Hamiltonian:
 Density Functional     Method          .... DFT(GTOs)
 Exchange Functional    Exchange        .... M062X
 Correlation Functional Correlation     .... M062X
 Gradients option       PostSCFGGA      .... off
 Hybrid DFT is turned on
   Fraction HF Exchange ScalHFX         ....  0.540000
   Scaling of DF-GGA-X  ScalDFX         ....  0.460000
   Scaling of DF-GGA-C  ScalDFC         ....  1.000000
   Scaling of DF-LDA-C  ScalLDAC        ....  1.000000
   Perturbative correction              ....  0.000000
   Density functional embedding theory  .... OFF
 RI-approximation to the Coulomb term is turned on
   Number of AuxJ basis functions       .... 895
   RIJ-COSX (HFX calculated with COS-X)).... on


General Settings:
 Integral files         IntName         .... freq
 Hartree-Fock type      HFTyp           .... UHF
 Total Charge           Charge          ....    1
 Multiplicity           Mult            ....    2
 Number of Electrons    NEL             ....  109
 Basis Dimension        Dim             ....  548
 Nuclear Repulsion      ENuc            ....    963.3682171364 Eh

Convergence Acceleration:
 DIIS                   CNVDIIS         .... on
   Start iteration      DIISMaxIt       ....    12
   Startup error        DIISStart       ....  0.200000
   # of expansion vecs  DIISMaxEq       ....     5
   Bias factor          DIISBfac        ....   1.050
   Max. coefficient     DIISMaxC        ....  10.000
 Trust-Rad. Augm. Hess. CNVTRAH         .... auto
   Auto Start mean grad. ratio tolernc. ....  1.125000
   Auto Start start iteration           ....    20
   Auto Start num. interpolation iter.  ....    10
   Max. Number of Micro iterations      ....    16
   Max. Number of Macro iterations      .... Maxiter - #DIIS iter
   Number of Davidson start vectors     ....     2
   Converg. threshold I  (grad. norm)   ....   1.000e-05
   Converg. threshold II (energy diff.) ....   1.000e-08
   Grad. Scal. Fac. for Micro threshold ....   0.100
   Minimum threshold for Micro iter.    ....   0.010
   NR start threshold (gradient norm)   ....   0.001
   Initial trust radius                 ....   0.400
   Minimum AH scaling param. (alpha)    ....   1.000
   Maximum AH scaling param. (alpha)    .... 1000.000
   Orbital update algorithm             .... Taylor
   White noise on init. David. guess    .... on
   Maximum white noise                  ....   0.010
   Quad. conv. algorithm                .... NR
 SOSCF                  CNVSOSCF        .... off
 Level Shifting         CNVShift        .... on
   Level shift para.    LevelShift      ....    0.2500
   Turn off err/grad.   ShiftErr        ....    0.0010
 Zerner damping         CNVZerner       .... off
 Static damping         CNVDamp         .... on
   Fraction old density DampFac         ....    0.7000
   Max. Damping (<1)    DampMax         ....    0.9800
   Min. Damping (>=0)   DampMin         ....    0.0000
   Turn off err/grad.   DampErr         ....    0.1000
 Fernandez-Rico         CNVRico         .... off

SCF Procedure:
 Maximum # iterations   MaxIter         ....   125
 SCF integral mode      SCFMode         .... Direct
   Integral package                     .... SHARK and LIBINT hybrid scheme
 Reset frequency        DirectResetFreq ....    20
 Integral Threshold     Thresh          ....  2.500e-11 Eh
 Primitive CutOff       TCut            ....  2.500e-12 Eh

Convergence Tolerance:
 Convergence Check Mode ConvCheckMode   .... Total+1el-Energy
 Convergence forced     ConvForced      .... 0
 Energy Change          TolE            ....  1.000e-08 Eh
 1-El. energy change                    ....  1.000e-05 Eh
 DIIS Error             TolErr          ....  5.000e-07


Diagonalization of the overlap matrix:
Smallest eigenvalue                        ... 8.459e-05
Time for diagonalization                   ...    0.036 sec
Threshold for overlap eigenvalues          ... 1.000e-08
Number of eigenvalues below threshold      ... 0
Time for construction of square roots      ...    0.022 sec
Total time needed                          ...    0.060 sec

Time for model grid setup =    0.123 sec

------------------------------
INITIAL GUESS: MODEL POTENTIAL
------------------------------
Loading Hartree-Fock densities                     ... done
Calculating cut-offs                               ... done
Initializing the effective Hamiltonian             ... done
Setting up the integral package (SHARK)            ... done
Starting the Coulomb interaction                   ... done (   0.1 sec)
Reading the grid                                   ... done
Mapping shells                                     ... done
Starting the XC term evaluation                    ... done (   0.1 sec)
  promolecular density results
     # of electrons  =    109.990920089
     EX              =    -87.586203860
     EC              =     -3.658338530
     EX+EC           =    -91.244542391
Transforming the Hamiltonian                       ... done (   0.0 sec)
Diagonalizing the Hamiltonian                      ... done (   0.0 sec)
Back transforming the eigenvectors                 ... done (   0.0 sec)
Now organizing SCF variables                       ... done
                      ------------------
                      INITIAL GUESS DONE (   0.4 sec)
                      ------------------
-------------------
DFT GRID GENERATION
-------------------

General Integration Accuracy     IntAcc      ... 4.388
Radial Grid Type                 RadialGrid  ... OptM3 with GC (2021)
Angular Grid (max. ang.)         AngularGrid ... 4 (Lebedev-302)
Angular grid pruning method      GridPruning ... 4 (adaptive)
Weight generation scheme         WeightScheme... Becke
Basis function cutoff            BFCut       ... 1.0000e-11
Integration weight cutoff        WCut        ... 1.0000e-14
Angular grids for H and He will be reduced by one unit
Partially contracted basis set               ... off
Rotationally invariant grid construction     ... off

Total number of grid points                  ...   144593
Total number of batches                      ...     2278
Average number of points per batch           ...       63
Average number of grid points per atom       ...     4382
Time for grid setup =    0.640 sec

--------------------
COSX GRID GENERATION
--------------------

GRIDX 1
-------
General Integration Accuracy     IntAcc      ... 3.816
Radial Grid Type                 RadialGrid  ... OptM3 with GC (2021)
Angular Grid (max. ang.)         AngularGrid ... 1 (Lebedev-50)
Angular grid pruning method      GridPruning ... 4 (adaptive)
Weight generation scheme         WeightScheme... Becke
Basis function cutoff            BFCut       ... 1.0000e-11
Integration weight cutoff        WCut        ... 1.0000e-14
Angular grids for H and He will be reduced by one unit
Partially contracted basis set               ... on
Rotationally invariant grid construction     ... off

Total number of grid points                  ...    18446
Total number of batches                      ...      306
Average number of points per batch           ...       60
Average number of grid points per atom       ...      559
UseSFitting                                  ... on

GRIDX 2
-------
General Integration Accuracy     IntAcc      ... 4.020
Radial Grid Type                 RadialGrid  ... OptM3 with GC (2021)
Angular Grid (max. ang.)         AngularGrid ... 2 (Lebedev-110)
Angular grid pruning method      GridPruning ... 4 (adaptive)
Weight generation scheme         WeightScheme... Becke
Basis function cutoff            BFCut       ... 1.0000e-11
Integration weight cutoff        WCut        ... 1.0000e-14
Angular grids for H and He will be reduced by one unit
Partially contracted basis set               ... on
Rotationally invariant grid construction     ... off

Total number of grid points                  ...    38915
Total number of batches                      ...      625
Average number of points per batch           ...       62
Average number of grid points per atom       ...     1179
UseSFitting                                  ... on

GRIDX 3
-------
General Integration Accuracy     IntAcc      ... 4.338
Radial Grid Type                 RadialGrid  ... OptM3 with GC (2021)
Angular Grid (max. ang.)         AngularGrid ... 3 (Lebedev-194)
Angular grid pruning method      GridPruning ... 4 (adaptive)
Weight generation scheme         WeightScheme... Becke
Basis function cutoff            BFCut       ... 1.0000e-11
Integration weight cutoff        WCut        ... 1.0000e-14
Angular grids for H and He will be reduced by one unit
Partially contracted basis set               ... on
Rotationally invariant grid construction     ... off

Total number of grid points                  ...    84795
Total number of batches                      ...     1345
Average number of points per batch           ...       63
Average number of grid points per atom       ...     2570
UseSFitting                                  ... on

Time for X-Grid setup             =    0.849 sec

--------------
SCF ITERATIONS
--------------
ITER       Energy         Delta-E        Max-DP      RMS-DP      [F,P]     Damp
               ***  Starting incremental Fock matrix formation  ***
  0   -668.4118407467   0.000000000000 0.06111840  0.00042860  0.1430306 0.7000
  1   -668.5947836844  -0.182942937672 0.06067847  0.00036023  0.0668227 0.7000
                               ***Turning on DIIS***
  2   -668.6776244432  -0.082840758834 0.10831516  0.00074213  0.0237239 0.0000
  3   -668.8117730796  -0.134148636380 0.04022524  0.00022337  0.0311154 0.0000
  4   -668.8350879861  -0.023314906535 0.00973698  0.00007083  0.0055050 0.0000
  5   -668.8360174325  -0.000929446375 0.00653712  0.00003714  0.0033882 0.0000
  6   -668.8362209667  -0.000203534221 0.00420956  0.00001958  0.0014918 0.0000
  7   -668.8362665058  -0.000045539127 0.00311863  0.00001699  0.0007387 0.0000
               *** Restarting incremental Fock matrix formation ***
                                   *** Resetting DIIS ***
  8   -668.8362525308   0.000013975026 0.00066004  0.00000536  0.0002500 0.0000
  9   -668.8362532696  -0.000000738754 0.00019745  0.00000169  0.0003231 0.0000
 10   -668.8362548436  -0.000001574065 0.00015309  0.00000107  0.0000868 0.0000
 11   -668.8362550093  -0.000000165695 0.00007740  0.00000056  0.0000786 0.0000
 12   -668.8362550862  -0.000000076894 0.00002099  0.00000022  0.0000249 0.0000
 13   -668.8362550800   0.000000006230 0.00001105  0.00000007  0.0000064 0.0000
 14   -668.8362550939  -0.000000013946 0.00000714  0.00000004  0.0000016 0.0000
                 **** Energy Check signals convergence ****

               *****************************************************
               *                     SUCCESS                       *
               *           SCF CONVERGED AFTER  15 CYCLES          *
               *****************************************************

Old exchange energy                            =    -48.314849785 Eh
New exchange energy                            =    -48.314867752 Eh
Exchange energy change after final integration =     -0.000017966 Eh
Total energy after final integration           =   -668.836273054 Eh
Final COS-X integration done in                =     5.083 sec

----------------
TOTAL SCF ENERGY
----------------

Total Energy       :         -668.83627305 Eh          -18199.96026 eV

Components:
Nuclear Repulsion  :          963.36821714 Eh           26214.58191 eV
Electronic Energy  :        -1632.20449019 Eh          -44414.54217 eV
One Electron Energy:        -2805.35785321 Eh          -76337.66812 eV
Two Electron Energy:         1173.15336302 Eh           31923.12595 eV
Max COSX asymmetry :            0.00000196 Eh               0.00005 eV

Virial components:
Potential Energy   :        -1333.98865554 Eh          -36299.67676 eV
Kinetic Energy     :          665.15238249 Eh           18099.71650 eV
Virial Ratio       :            2.00553842


DFT components:
N(Alpha)           :       55.000071979882 electrons
N(Beta)            :       54.000036881179 electrons
N(Total)           :      109.000108861061 electrons
E(XC)              :      -45.061064846737 Eh       
DFET-embed. en.    :        0.000000000000 Eh       

---------------
SCF CONVERGENCE
---------------

  Last Energy change         ...    6.2286e-09  Tolerance :   1.0000e-08
  Last MAX-Density change    ...    0.0000e+00  Tolerance :   1.0000e-07
  Last RMS-Density change    ...    0.0000e+00  Tolerance :   5.0000e-09
  Last DIIS Error            ...    1.2571e-06  Tolerance :   5.0000e-07

             **** THE GBW FILE WAS UPDATED (freq.gbw) ****
             **** DENSITY freq.scfp WAS UPDATED ****
             **** ENERGY FILE WAS UPDATED (freq.en.tmp) ****
----------------------
UHF SPIN CONTAMINATION
----------------------

Warning: in a DFT calculation there is little theoretical justification to 
         calculate <S**2> as in Hartree-Fock theory. We will do it anyways
         but you should keep in mind that the values have only limited relevance

Expectation value of <S**2>     :     0.755414
Ideal value S*(S+1) for S=0.5   :     0.750000
Deviation                       :     0.005414

             **** THE GBW FILE WAS UPDATED (freq.gbw) ****
             **** DENSITY freq.scfp WAS UPDATED ****
----------------
ORBITAL ENERGIES
----------------
                 SPIN UP ORBITALS
  NO   OCC          E(Eh)            E(eV) 
   0   1.0000     -19.740343      -537.1620 
   1   1.0000     -19.713672      -536.4363 
   2   1.0000     -14.999754      -408.1640 
   3   1.0000     -14.907175      -405.6449 
   4   1.0000     -14.891518      -405.2188 
   5   1.0000     -10.789929      -293.6089 
   6   1.0000     -10.767148      -292.9890 
   7   1.0000     -10.752376      -292.5870 
   8   1.0000     -10.725679      -291.8606 
   9   1.0000     -10.696851      -291.0761 
  10   1.0000     -10.691125      -290.9203 
  11   1.0000     -10.681317      -290.6534 
  12   1.0000     -10.667018      -290.2643 
  13   1.0000     -10.657018      -289.9922 
  14   1.0000      -1.297511       -35.3071 
  15   1.0000      -1.277728       -34.7687 
  16   1.0000      -1.245372       -33.8883 
  17   1.0000      -1.167490       -31.7690 
  18   1.0000      -1.146150       -31.1883 
  19   1.0000      -1.052485       -28.6396 
  20   1.0000      -1.010752       -27.5040 
  21   1.0000      -0.959673       -26.1140 
  22   1.0000      -0.936529       -25.4842 
  23   1.0000      -0.895346       -24.3636 
  24   1.0000      -0.868595       -23.6357 
  25   1.0000      -0.824900       -22.4467 
  26   1.0000      -0.805984       -21.9319 
  27   1.0000      -0.793387       -21.5892 
  28   1.0000      -0.788003       -21.4427 
  29   1.0000      -0.776483       -21.1292 
  30   1.0000      -0.732955       -19.9447 
  31   1.0000      -0.720688       -19.6109 
  32   1.0000      -0.701046       -19.0764 
  33   1.0000      -0.678777       -18.4705 
  34   1.0000      -0.673153       -18.3174 
  35   1.0000      -0.654013       -17.7966 
  36   1.0000      -0.644899       -17.5486 
  37   1.0000      -0.639597       -17.4043 
  38   1.0000      -0.634456       -17.2644 
  39   1.0000      -0.626564       -17.0497 
  40   1.0000      -0.611690       -16.6449 
  41   1.0000      -0.604253       -16.4426 
  42   1.0000      -0.587692       -15.9919 
  43   1.0000      -0.580344       -15.7920 
  44   1.0000      -0.571316       -15.5463 
  45   1.0000      -0.564290       -15.3551 
  46   1.0000      -0.558461       -15.1965 
  47   1.0000      -0.557225       -15.1629 
  48   1.0000      -0.551236       -14.9999 
  49   1.0000      -0.540373       -14.7043 
  50   1.0000      -0.486388       -13.2353 
  51   1.0000      -0.471178       -12.8214 
  52   1.0000      -0.457352       -12.4452 
  53   1.0000      -0.433907       -11.8072 
  54   1.0000      -0.395177       -10.7533 
  55   0.0000      -0.109365        -2.9760 
  56   0.0000      -0.082446        -2.2435 
  57   0.0000      -0.068380        -1.8607 
  58   0.0000      -0.054955        -1.4954 
  59   0.0000      -0.052726        -1.4347 
  60   0.0000      -0.045663        -1.2426 
  61   0.0000      -0.036314        -0.9881 
  62   0.0000      -0.027414        -0.7460 
  63   0.0000      -0.015597        -0.4244 
  64   0.0000      -0.011919        -0.3243 
  65   0.0000      -0.007731        -0.2104 
  66   0.0000       0.007177         0.1953 
  67   0.0000       0.010855         0.2954 
  68   0.0000       0.021038         0.5725 
  69   0.0000       0.026203         0.7130 
  70   0.0000       0.029152         0.7933 
  71   0.0000       0.042902         1.1674 
  72   0.0000       0.049243         1.3400 
  73   0.0000       0.055857         1.5200 
  74   0.0000       0.060717         1.6522 
  75   0.0000       0.062116         1.6903 
  76   0.0000       0.063897         1.7387 
  77   0.0000       0.067251         1.8300 
  78   0.0000       0.075567         2.0563 
  79   0.0000       0.080433         2.1887 
  80   0.0000       0.092093         2.5060 
  81   0.0000       0.093339         2.5399 
  82   0.0000       0.106559         2.8996 
  83   0.0000       0.113997         3.1020 
  84   0.0000       0.119371         3.2482 
  85   0.0000       0.126859         3.4520 
  86   0.0000       0.128727         3.5029 
  87   0.0000       0.134696         3.6653 
  88   0.0000       0.140788         3.8310 
  89   0.0000       0.144596         3.9347 
  90   0.0000       0.147602         4.0164 
  91   0.0000       0.152087         4.1385 
  92   0.0000       0.160863         4.3773 
  93   0.0000       0.168547         4.5864 
  94   0.0000       0.176548         4.8041 
  95   0.0000       0.183533         4.9942 
  96   0.0000       0.191415         5.2087 
  97   0.0000       0.198265         5.3951 
  98   0.0000       0.207493         5.6462 
  99   0.0000       0.213556         5.8112 
 100   0.0000       0.224226         6.1015 
 101   0.0000       0.231033         6.2867 
 102   0.0000       0.244754         6.6601 
 103   0.0000       0.251304         6.8383 
 104   0.0000       0.257689         7.0121 
 105   0.0000       0.267382         7.2758 
 106   0.0000       0.275973         7.5096 
 107   0.0000       0.284261         7.7351 
 108   0.0000       0.287470         7.8225 
 109   0.0000       0.293088         7.9753 
 110   0.0000       0.299614         8.1529 
 111   0.0000       0.306867         8.3503 
 112   0.0000       0.309575         8.4240 
 113   0.0000       0.314127         8.5478 
 114   0.0000       0.319975         8.7070 
 115   0.0000       0.325181         8.8486 
 116   0.0000       0.331256         9.0139 
 117   0.0000       0.339506         9.2384 
 118   0.0000       0.339793         9.2462 
 119   0.0000       0.347534         9.4569 
 120   0.0000       0.350017         9.5245 
 121   0.0000       0.352413         9.5896 
 122   0.0000       0.361648         9.8409 
 123   0.0000       0.362847         9.8736 
 124   0.0000       0.370610        10.0848 
 125   0.0000       0.374466        10.1897 
 126   0.0000       0.382792        10.4163 
 127   0.0000       0.387228        10.5370 
 128   0.0000       0.390509        10.6263 
 129   0.0000       0.399557        10.8725 
 130   0.0000       0.408538        11.1169 
 131   0.0000       0.412273        11.2185 
 132   0.0000       0.414966        11.2918 
 133   0.0000       0.424923        11.5627 
 134   0.0000       0.431442        11.7401 
 135   0.0000       0.438402        11.9295 
 136   0.0000       0.443213        12.0604 
 137   0.0000       0.450134        12.2488 
 138   0.0000       0.461995        12.5715 
 139   0.0000       0.464096        12.6287 
 140   0.0000       0.474094        12.9008 
 141   0.0000       0.481245        13.0953 
 142   0.0000       0.483775        13.1642 
 143   0.0000       0.492932        13.4134 
 144   0.0000       0.502245        13.6668 
 145   0.0000       0.506548        13.7839 
 146   0.0000       0.510463        13.8904 
 147   0.0000       0.521066        14.1789 
 148   0.0000       0.529217        14.4007 
 149   0.0000       0.538878        14.6636 
 150   0.0000       0.542758        14.7692 
 151   0.0000       0.554870        15.0988 
 152   0.0000       0.574854        15.6426 
 153   0.0000       0.594793        16.1851 
 154   0.0000       0.605207        16.4685 
 155   0.0000       0.622717        16.9450 
 156   0.0000       0.632338        17.2068 
 157   0.0000       0.643199        17.5023 
 158   0.0000       0.653308        17.7774 
 159   0.0000       0.661435        17.9985 
 160   0.0000       0.673834        18.3360 
 161   0.0000       0.682823        18.5806 
 162   0.0000       0.699350        19.0303 
 163   0.0000       0.713837        19.4245 
 164   0.0000       0.728353        19.8195 
 165   0.0000       0.746710        20.3190 
 166   0.0000       0.755398        20.5554 
 167   0.0000       0.763511        20.7762 
 168   0.0000       0.770341        20.9620 
 169   0.0000       0.780210        21.2306 
 170   0.0000       0.787323        21.4241 
 171   0.0000       0.792301        21.5596 
 172   0.0000       0.812232        22.1019 
 173   0.0000       0.815575        22.1929 
 174   0.0000       0.824303        22.4304 
 175   0.0000       0.835639        22.7389 
 176   0.0000       0.847414        23.0593 
 177   0.0000       0.852998        23.2113 
 178   0.0000       0.870602        23.6903 
 179   0.0000       0.888084        24.1660 
 180   0.0000       0.900834        24.5129 
 181   0.0000       0.916064        24.9274 
 182   0.0000       0.922128        25.0924 
 183   0.0000       0.941917        25.6309 
 184   0.0000       0.945764        25.7355 
 185   0.0000       0.957715        26.0608 
 186   0.0000       0.960975        26.1495 
 187   0.0000       0.966176        26.2910 
 188   0.0000       0.987112        26.8607 
 189   0.0000       0.996799        27.1243 
 190   0.0000       1.004449        27.3325 
 191   0.0000       1.011552        27.5257 
 192   0.0000       1.019033        27.7293 
 193   0.0000       1.039668        28.2908 
 194   0.0000       1.046231        28.4694 
 195   0.0000       1.057048        28.7637 
 196   0.0000       1.070992        29.1432 
 197   0.0000       1.086552        29.5666 
 198   0.0000       1.100915        29.9574 
 199   0.0000       1.110952        30.2305 
 200   0.0000       1.113299        30.2944 
 201   0.0000       1.126632        30.6572 
 202   0.0000       1.144991        31.1568 
 203   0.0000       1.164493        31.6875 
 204   0.0000       1.175327        31.9823 
 205   0.0000       1.190033        32.3825 
 206   0.0000       1.195520        32.5317 
 207   0.0000       1.208850        32.8945 
 208   0.0000       1.215464        33.0744 
 209   0.0000       1.248018        33.9603 
 210   0.0000       1.263336        34.3771 
 211   0.0000       1.270797        34.5802 
 212   0.0000       1.282599        34.9013 
 213   0.0000       1.293313        35.1928 
 214   0.0000       1.312908        35.7260 
 215   0.0000       1.322982        36.0002 
 216   0.0000       1.354245        36.8509 
 217   0.0000       1.361971        37.0611 
 218   0.0000       1.384277        37.6681 
 219   0.0000       1.390801        37.8456 
 220   0.0000       1.394147        37.9367 
 221   0.0000       1.407798        38.3081 
 222   0.0000       1.417305        38.5668 
 223   0.0000       1.430489        38.9256 
 224   0.0000       1.436520        39.0897 
 225   0.0000       1.447711        39.3942 
 226   0.0000       1.449252        39.4362 
 227   0.0000       1.453277        39.5457 
 228   0.0000       1.461099        39.7585 
 229   0.0000       1.468331        39.9553 
 230   0.0000       1.472130        40.0587 
 231   0.0000       1.476186        40.1691 
 232   0.0000       1.482401        40.3382 
 233   0.0000       1.484825        40.4041 
 234   0.0000       1.499050        40.7912 
 235   0.0000       1.502366        40.8815 
 236   0.0000       1.506224        40.9864 
 237   0.0000       1.517761        41.3004 
 238   0.0000       1.529931        41.6315 
 239   0.0000       1.538950        41.8769 
 240   0.0000       1.551326        42.2137 
 241   0.0000       1.561095        42.4795 
 242   0.0000       1.574389        42.8413 
 243   0.0000       1.590252        43.2730 
 244   0.0000       1.596066        43.4312 
 245   0.0000       1.609594        43.7993 
 246   0.0000       1.623245        44.1707 
 247   0.0000       1.632765        44.4298 
 248   0.0000       1.645668        44.7809 
 249   0.0000       1.661815        45.2203 
 250   0.0000       1.669031        45.4166 
 251   0.0000       1.677002        45.6335 
 252   0.0000       1.694586        46.1120 
 253   0.0000       1.706788        46.4441 
 254   0.0000       1.716969        46.7211 
 255   0.0000       1.726850        46.9900 
 256   0.0000       1.730301        47.0839 
 257   0.0000       1.740520        47.3620 
 258   0.0000       1.748770        47.5864 
 259   0.0000       1.771135        48.1950 
 260   0.0000       1.777790        48.3761 
 261   0.0000       1.785451        48.5846 
 262   0.0000       1.787291        48.6347 
 263   0.0000       1.805438        49.1285 
 264   0.0000       1.808697        49.2171 
 265   0.0000       1.823971        49.6328 
 266   0.0000       1.840087        50.0713 
 267   0.0000       1.847909        50.2842 
 268   0.0000       1.856395        50.5151 
 269   0.0000       1.868343        50.8402 
 270   0.0000       1.872915        50.9646 
 271   0.0000       1.874868        51.0178 
 272   0.0000       1.882995        51.2389 
 273   0.0000       1.909567        51.9620 
 274   0.0000       1.919565        52.2340 
 275   0.0000       1.925093        52.3845 
 276   0.0000       1.929646        52.5083 
 277   0.0000       1.939768        52.7838 
 278   0.0000       1.948105        53.0106 
 279   0.0000       1.963851        53.4391 
 280   0.0000       1.981992        53.9327 
 281   0.0000       1.987534        54.0835 
 282   0.0000       2.017025        54.8861 
 283   0.0000       2.034241        55.3545 
 284   0.0000       2.051736        55.8306 
 285   0.0000       2.069555        56.3155 
 286   0.0000       2.081624        56.6439 
 287   0.0000       2.094466        56.9933 
 288   0.0000       2.106094        57.3097 
 289   0.0000       2.123372        57.7799 
 290   0.0000       2.139334        58.2142 
 291   0.0000       2.145311        58.3769 
 292   0.0000       2.149197        58.4826 
 293   0.0000       2.160232        58.7829 
 294   0.0000       2.179604        59.3100 
 295   0.0000       2.194342        59.7111 
 296   0.0000       2.195982        59.7557 
 297   0.0000       2.205095        60.0037 
 298   0.0000       2.208788        60.1042 
 299   0.0000       2.225928        60.5706 
 300   0.0000       2.240469        60.9663 
 301   0.0000       2.247799        61.1657 
 302   0.0000       2.255160        61.3660 
 303   0.0000       2.267902        61.7127 
 304   0.0000       2.274329        61.8876 
 305   0.0000       2.278312        61.9960 
 306   0.0000       2.297097        62.5072 
 307   0.0000       2.300207        62.5918 
 308   0.0000       2.314435        62.9790 
 309   0.0000       2.330290        63.4104 
 310   0.0000       2.334776        63.5325 
 311   0.0000       2.348513        63.9063 
 312   0.0000       2.375261        64.6341 
 313   0.0000       2.400035        65.3083 
 314   0.0000       2.409188        65.5573 
 315   0.0000       2.421875        65.9026 
 316   0.0000       2.427849        66.0651 
 317   0.0000       2.432795        66.1997 
 318   0.0000       2.445685        66.5505 
 319   0.0000       2.454482        66.7898 
 320   0.0000       2.466933        67.1287 
 321   0.0000       2.471994        67.2664 
 322   0.0000       2.480851        67.5074 
 323   0.0000       2.496430        67.9313 
 324   0.0000       2.508643        68.2636 
 325   0.0000       2.512644        68.3725 
 326   0.0000       2.523038        68.6553 
 327   0.0000       2.529294        68.8256 
 328   0.0000       2.536072        69.0100 
 329   0.0000       2.539337        69.0989 
 330   0.0000       2.554492        69.5113 
 331   0.0000       2.559561        69.6492 
 332   0.0000       2.578593        70.1671 
 333   0.0000       2.593144        70.5630 
 334   0.0000       2.594015        70.5867 
 335   0.0000       2.603450        70.8435 
 336   0.0000       2.608991        70.9942 
 337   0.0000       2.621989        71.3480 
 338   0.0000       2.635848        71.7251 
 339   0.0000       2.645698        71.9931 
 340   0.0000       2.650575        72.1258 
 341   0.0000       2.657677        72.3191 
 342   0.0000       2.670245        72.6611 
 343   0.0000       2.681745        72.9740 
 344   0.0000       2.706971        73.6604 
 345   0.0000       2.718753        73.9810 
 346   0.0000       2.723546        74.1114 
 347   0.0000       2.733667        74.3869 
 348   0.0000       2.749986        74.8309 
 349   0.0000       2.767649        75.3116 
 350   0.0000       2.786349        75.8204 
 351   0.0000       2.790599        75.9361 
 352   0.0000       2.811809        76.5132 
 353   0.0000       2.821427        76.7749 
 354   0.0000       2.836087        77.1739 
 355   0.0000       2.852043        77.6080 
 356   0.0000       2.859348        77.8068 
 357   0.0000       2.871205        78.1295 
 358   0.0000       2.876810        78.2820 
 359   0.0000       2.885989        78.5318 
 360   0.0000       2.895061        78.7786 
 361   0.0000       2.907845        79.1265 
 362   0.0000       2.918106        79.4057 
 363   0.0000       2.921045        79.4857 
 364   0.0000       2.942422        80.0674 
 365   0.0000       2.950529        80.2880 
 366   0.0000       2.962474        80.6130 
 367   0.0000       2.966482        80.7221 
 368   0.0000       2.969122        80.7939 
 369   0.0000       2.981669        81.1353 
 370   0.0000       2.998699        81.5988 
 371   0.0000       3.005832        81.7928 
 372   0.0000       3.008280        81.8595 
 373   0.0000       3.021536        82.2202 
 374   0.0000       3.026498        82.3552 
 375   0.0000       3.057186        83.1902 
 376   0.0000       3.058969        83.2388 
 377   0.0000       3.067646        83.4749 
 378   0.0000       3.068680        83.5030 
 379   0.0000       3.077603        83.7458 
 380   0.0000       3.084414        83.9312 
 381   0.0000       3.089821        84.0783 
 382   0.0000       3.102358        84.4194 
 383   0.0000       3.114183        84.7412 
 384   0.0000       3.128209        85.1229 
 385   0.0000       3.149394        85.6994 
 386   0.0000       3.156796        85.9008 
 387   0.0000       3.168095        86.2082 
 388   0.0000       3.172402        86.3254 
 389   0.0000       3.185675        86.6866 
 390   0.0000       3.196805        86.9895 
 391   0.0000       3.199339        87.0584 
 392   0.0000       3.212511        87.4169 
 393   0.0000       3.221047        87.6491 
 394   0.0000       3.227840        87.8340 
 395   0.0000       3.238537        88.1251 
 396   0.0000       3.244934        88.2991 
 397   0.0000       3.253321        88.5274 
 398   0.0000       3.274158        89.0944 
 399   0.0000       3.277539        89.1864 
 400   0.0000       3.291786        89.5740 
 401   0.0000       3.294713        89.6537 
 402   0.0000       3.304023        89.9070 
 403   0.0000       3.315890        90.2300 
 404   0.0000       3.323616        90.4402 
 405   0.0000       3.339674        90.8771 
 406   0.0000       3.342972        90.9669 
 407   0.0000       3.360382        91.4406 
 408   0.0000       3.369886        91.6992 
 409   0.0000       3.387834        92.1877 
 410   0.0000       3.394505        92.3692 
 411   0.0000       3.414548        92.9146 
 412   0.0000       3.422976        93.1439 
 413   0.0000       3.445839        93.7660 
 414   0.0000       3.456605        94.0590 
 415   0.0000       3.465174        94.2922 
 416   0.0000       3.476993        94.6138 
 417   0.0000       3.490730        94.9876 
 418   0.0000       3.498466        95.1981 
 419   0.0000       3.518248        95.7364 
 420   0.0000       3.539757        96.3217 
 421   0.0000       3.579252        97.3964 
 422   0.0000       3.588723        97.6541 
 423   0.0000       3.599241        97.9403 
 424   0.0000       3.623580        98.6026 
 425   0.0000       3.634868        98.9098 
 426   0.0000       3.640068        99.0513 
 427   0.0000       3.656956        99.5108 
 428   0.0000       3.671208        99.8987 
 429   0.0000       3.683829       100.2421 
 430   0.0000       3.686959       100.3273 
 431   0.0000       3.722913       101.3056 
 432   0.0000       3.729349       101.4807 
 433   0.0000       3.746210       101.9396 
 434   0.0000       3.755591       102.1948 
 435   0.0000       3.772932       102.6667 
 436   0.0000       3.800701       103.4223 
 437   0.0000       3.829312       104.2009 
 438   0.0000       3.836972       104.4093 
 439   0.0000       3.848490       104.7227 
 440   0.0000       3.856837       104.9499 
 441   0.0000       3.871289       105.3431 
 442   0.0000       3.902169       106.1834 
 443   0.0000       3.915122       106.5359 
 444   0.0000       3.940287       107.2207 
 445   0.0000       3.981443       108.3406 
 446   0.0000       3.988577       108.5347 
 447   0.0000       4.000718       108.8651 
 448   0.0000       4.010871       109.1414 
 449   0.0000       4.026287       109.5609 
 450   0.0000       4.040665       109.9521 
 451   0.0000       4.053640       110.3051 
 452   0.0000       4.094909       111.4281 
 453   0.0000       4.113719       111.9400 
 454   0.0000       4.160526       113.2137 
 455   0.0000       4.207212       114.4841 
 456   0.0000       4.223088       114.9161 
 457   0.0000       4.249583       115.6370 
 458   0.0000       4.265482       116.0697 
 459   0.0000       4.271258       116.2268 
 460   0.0000       4.289943       116.7353 
 461   0.0000       4.313586       117.3786 
 462   0.0000       4.319947       117.5517 
 463   0.0000       4.342675       118.1702 
 464   0.0000       4.357895       118.5844 
 465   0.0000       4.374457       119.0350 
 466   0.0000       4.403152       119.8158 
 467   0.0000       4.426714       120.4570 
 468   0.0000       4.437950       120.7627 
 469   0.0000       4.457312       121.2896 
 470   0.0000       4.494440       122.2999 
 471   0.0000       4.540890       123.5639 
 472   0.0000       4.571013       124.3836 
 473   0.0000       4.575318       124.5007 
 474   0.0000       4.595031       125.0371 
 475   0.0000       4.602140       125.2306 
 476   0.0000       4.627175       125.9118 
 477   0.0000       4.647463       126.4639 
 478   0.0000       4.651664       126.5782 
 479   0.0000       4.680625       127.3663 
 480   0.0000       4.698350       127.8486 
 481   0.0000       4.718060       128.3849 
 482   0.0000       4.739685       128.9734 
 483   0.0000       4.757959       129.4706 
 484   0.0000       4.808692       130.8512 
 485   0.0000       4.843191       131.7899 
 486   0.0000       4.875077       132.6576 
 487   0.0000       4.880805       132.8134 
 488   0.0000       4.892254       133.1250 
 489   0.0000       4.916664       133.7892 
 490   0.0000       4.930561       134.1674 
 491   0.0000       4.949402       134.6801 
 492   0.0000       4.977763       135.4518 
 493   0.0000       5.007344       136.2568 
 494   0.0000       5.019052       136.5754 
 495   0.0000       5.033109       136.9579 
 496   0.0000       5.056479       137.5938 
 497   0.0000       5.084175       138.3474 
 498   0.0000       5.102726       138.8522 
 499   0.0000       5.114874       139.1828 
 500   0.0000       5.152148       140.1971 
 501   0.0000       5.160159       140.4151 
 502   0.0000       5.173263       140.7716 
 503   0.0000       5.242308       142.6505 
 504   0.0000       5.249117       142.8357 
 505   0.0000       5.256313       143.0316 
 506   0.0000       5.332364       145.1010 
 507   0.0000       5.340059       145.3104 
 508   0.0000       5.376841       146.3113 
 509   0.0000       5.442245       148.0910 
 510   0.0000       5.464317       148.6916 
 511   0.0000       5.516249       150.1048 
 512   0.0000       5.550392       151.0338 
 513   0.0000       5.596487       152.2882 
 514   0.0000       5.623303       153.0178 
 515   0.0000       5.644819       153.6033 
 516   0.0000       5.756189       156.6339 
 517   0.0000       5.789650       157.5444 
 518   0.0000       5.920510       161.1053 
 519   0.0000       5.995298       163.1403 
 520   0.0000       6.205818       168.8689 
 521   0.0000       6.267117       170.5369 
 522   0.0000       6.294493       171.2819 
 523   0.0000       6.299419       171.4159 
 524   0.0000       6.409846       174.4208 
 525   0.0000       6.464125       175.8978 
 526   0.0000       6.536117       177.8568 
 527   0.0000       6.559517       178.4935 
 528   0.0000       6.687748       181.9829 
 529   0.0000       6.720150       182.8646 
 530   0.0000       6.914842       188.1624 
 531   0.0000       6.962090       189.4481 
 532   0.0000       7.018720       190.9891 
 533   0.0000       7.165863       194.9930 
 534   0.0000      22.268038       605.9441 
 535   0.0000      22.300559       606.8291 
 536   0.0000      22.320551       607.3731 
 537   0.0000      22.381577       609.0337 
 538   0.0000      22.437921       610.5669 
 539   0.0000      22.459920       611.1655 
 540   0.0000      22.631777       615.8420 
 541   0.0000      23.243226       632.4803 
 542   0.0000      23.282149       633.5395 
 543   0.0000      31.922866       868.6653 
 544   0.0000      32.416650       882.1019 
 545   0.0000      32.610674       887.3816 
 546   0.0000      43.963912      1196.3189 
 547   0.0000      44.099098      1199.9975 

                 SPIN DOWN ORBITALS
  NO   OCC          E(Eh)            E(eV) 
   0   1.0000     -19.740232      -537.1590 
   1   1.0000     -19.713639      -536.4354 
   2   1.0000     -14.999750      -408.1640 
   3   1.0000     -14.906012      -405.6132 
   4   1.0000     -14.891331      -405.2137 
   5   1.0000     -10.789955      -293.6096 
   6   1.0000     -10.767061      -292.9866 
   7   1.0000     -10.752369      -292.5868 
   8   1.0000     -10.726290      -291.8772 
   9   1.0000     -10.696293      -291.0609 
  10   1.0000     -10.684215      -290.7323 
  11   1.0000     -10.681944      -290.6705 
  12   1.0000     -10.667020      -290.2644 
  13   1.0000     -10.656982      -289.9912 
  14   1.0000      -1.296956       -35.2920 
  15   1.0000      -1.277508       -34.7627 
  16   1.0000      -1.245320       -33.8869 
  17   1.0000      -1.164422       -31.6855 
  18   1.0000      -1.145531       -31.1715 
  19   1.0000      -1.045503       -28.4496 
  20   1.0000      -1.003145       -27.2970 
[...]
     47      -0.006397  -0.216378   0.000024
     48      -0.006230   0.016045  -0.000627
     49      -0.011230  -0.001322  -0.001051
     50       0.004334  -0.010045   0.000411
     51       0.515768  -0.020245  -0.005888
     52       0.690020  -0.027040  -0.009274
     53      -0.500205   0.019573   0.006755
     54      -0.000594  -0.000093   0.000007
     55       0.000033  -0.000115  -0.000103
     56      -0.000383   0.000172   0.000144
     57      -0.000034  -0.000014   0.047161
     58       0.000511  -0.000029   0.053087
     59      -0.000317   0.000018  -0.018603
     60      -0.009645   0.000471  -0.634212
     61      -0.009010   0.000454  -0.725382
     62       0.002683  -0.000082   0.256582
     63       0.000646   0.000150   0.000030
     64       0.001485   0.000171   0.000060
     65      -0.001733  -0.000068  -0.000038
     66      -0.015557  -0.251469  -0.000140
     67       0.010376   0.168044   0.000034
     68       0.028229   0.464386   0.000147
     69       0.000025  -0.000010   0.001101
     70      -0.000106  -0.000004  -0.000423
     71       0.000063   0.000023   0.000536
     72       0.000643  -0.000029  -0.008208
     73      -0.000011   0.000010  -0.010127
     74       0.000160   0.000015   0.004340
     75      -0.000295  -0.000012  -0.000647
     76       0.000263  -0.000012   0.000686
     77       0.000130   0.000023  -0.000282
     78      -0.000165  -0.000034  -0.000997
     79      -0.000009  -0.000015   0.000258
     80      -0.000333  -0.000015  -0.001276
     81      -0.000256   0.000040   0.000001
     82      -0.000176   0.000004   0.000001
     83       0.000301  -0.000012  -0.000012
     84      -0.000485  -0.000032  -0.000024
     85      -0.000329   0.000208   0.000023
     86      -0.000273  -0.000061  -0.000004
     87      -0.000334  -0.000022  -0.000037
     88      -0.000235  -0.000005  -0.000001
     89      -0.000266  -0.000089   0.000019
     90       0.001273   0.000073   0.000069
     91       0.004966  -0.000126  -0.000028
     92      -0.005592   0.000144   0.000037
     93       0.008123  -0.000344  -0.001147
     94      -0.001934   0.000062  -0.000305
     95      -0.004909   0.000260   0.001424
     96      -0.000224   0.000003  -0.000446
     97       0.000449  -0.000001  -0.000213
     98      -0.000023  -0.000066  -0.000117


-----------
IR SPECTRUM
-----------

 Mode   freq       eps      Int      T**2         TX        TY        TZ
       cm**-1   L/(mol*cm) km/mol    a.u.
----------------------------------------------------------------------------
  6:     46.23   0.000330    1.67  0.002228  (-0.021728 -0.032530 -0.026416)
  7:     56.14   0.001179    5.96  0.006556  (-0.053248  0.036892  0.048571)
  8:     77.87   0.000136    0.68  0.000543  ( 0.004412 -0.004200  0.022495)
  9:     90.96   0.000296    1.50  0.001016  ( 0.019476 -0.025227  0.000599)
 10:     97.52   0.000154    0.78  0.000493  (-0.014727 -0.005665  0.015606)
 11:    111.67   0.001910    9.65  0.005337  (-0.067766  0.020040 -0.018527)
 12:    127.97   0.004305   21.75  0.010497  (-0.029354  0.019244  0.096257)
 13:    156.33   0.001142    5.77  0.002280  (-0.031211  0.016974 -0.031902)
 14:    177.90   0.000829    4.19  0.001454  ( 0.008330  0.021343 -0.030473)
 15:    181.84   0.000780    3.94  0.001338  ( 0.025312  0.021626 -0.015166)
 16:    203.66   0.002883   14.57  0.004417  ( 0.039648  0.052996 -0.006033)
 17:    214.63   0.003839   19.40  0.005582  (-0.023514 -0.067211  0.022628)
 18:    244.55   0.008180   41.34  0.010438  (-0.000337  0.100784 -0.016762)
 19:    287.44   0.000806    4.07  0.000875  ( 0.012444 -0.004535  0.026452)
 20:    309.04   0.000527    2.66  0.000532  ( 0.012064 -0.019599  0.001642)
 21:    314.41   0.000907    4.58  0.000900  (-0.014754 -0.000542 -0.026119)
 22:    320.24   0.008315   42.02  0.008103  ( 0.027405  0.079592 -0.031893)
 23:    369.17   0.004903   24.78  0.004144  (-0.031500  0.033290 -0.045208)
 24:    393.97   0.004027   20.35  0.003190  (-0.029976  0.044438 -0.017803)
 25:    431.45   0.004827   24.39  0.003491  ( 0.038457  0.041834 -0.016189)
 26:    475.32   0.000863    4.36  0.000567  (-0.000084 -0.020499 -0.012105)
 27:    530.53   0.012729   64.33  0.007487  (-0.036699  0.048774  0.061332)
 28:    548.50   0.004014   20.29  0.002284  (-0.041098 -0.022003  0.010523)
 29:    574.32   0.008106   40.97  0.004405  ( 0.046906  0.012433  0.045276)
 30:    622.30   0.004817   24.34  0.002415  ( 0.021807 -0.039663 -0.019150)
 31:    661.39   0.000522    2.64  0.000246  ( 0.007511  0.005870 -0.012461)
 32:    701.97   0.000403    2.04  0.000179  (-0.007137  0.011039 -0.002555)
 33:    728.73   0.010217   51.63  0.004375  (-0.040315  0.039527  0.034463)
 34:    761.15   0.002344   11.85  0.000961  (-0.003715 -0.027182 -0.014440)
 35:    789.54   0.002036   10.29  0.000805  (-0.007499  0.027338  0.001004)
 36:    839.39   0.001569    7.93  0.000583  (-0.019122  0.003803  0.014257)
 37:    904.83   0.000588    2.97  0.000203  (-0.007159 -0.001080 -0.012259)
 38:    924.72   0.000234    1.18  0.000079  (-0.006799 -0.002255  0.005269)
 39:    960.24   0.001317    6.66  0.000428  (-0.016316  0.012517  0.002279)
 40:   1004.44   0.002585   13.07  0.000803  ( 0.014251 -0.009340  0.022647)
 41:   1019.25   0.003453   17.45  0.001057  ( 0.009757  0.028668 -0.011833)
 42:   1025.99   0.001989   10.05  0.000605  (-0.015057 -0.000657 -0.019435)
 43:   1043.17   0.003774   19.07  0.001129  (-0.003079 -0.019372  0.027282)
 44:   1066.76   0.001400    7.08  0.000410  ( 0.002552 -0.008775 -0.018059)
 45:   1068.70   0.000198    1.00  0.000058  ( 0.005550 -0.005135 -0.000809)
 46:   1075.49   0.001471    7.44  0.000427  ( 0.017783 -0.000366  0.010516)
 47:   1119.68   0.000070    0.35  0.000020  (-0.004132  0.001502 -0.000476)
 48:   1131.12   0.000474    2.40  0.000131  ( 0.000915 -0.005044  0.010224)
 49:   1144.44   0.002680   13.54  0.000731  ( 0.000484 -0.024035  0.012362)
 50:   1155.26   0.000243    1.23  0.000066  (-0.003101 -0.004490 -0.005986)
 51:   1181.94   0.007864   39.74  0.002076  (-0.035533  0.020503 -0.019832)
 52:   1191.18   0.003267   16.51  0.000856  ( 0.023477 -0.005487  0.016573)
 53:   1233.45   0.000621    3.14  0.000157  (-0.002374 -0.012291  0.000661)
 54:   1250.66   0.000589    2.97  0.000147  (-0.004494  0.011254  0.000105)
 55:   1287.26   0.013811   69.80  0.003348  ( 0.013642 -0.049220  0.027193)
 56:   1303.02   0.004409   22.28  0.001056  ( 0.018537 -0.012612  0.023520)
 57:   1304.65   0.005884   29.74  0.001407  (-0.016913  0.032556 -0.007841)
 58:   1342.96   0.000373    1.89  0.000087  ( 0.003395  0.005366 -0.006814)
 59:   1350.62   0.000581    2.94  0.000134  ( 0.002590  0.010226 -0.004798)
 60:   1365.37   0.000930    4.70  0.000213  ( 0.011578 -0.007439  0.004811)
 61:   1398.87   0.000925    4.67  0.000206  ( 0.006556  0.012743  0.000963)
 62:   1410.90   0.000176    0.89  0.000039  (-0.006043 -0.001495  0.000414)
 63:   1415.93   0.003806   19.24  0.000839  ( 0.019693 -0.005944  0.020390)
 64:   1424.75   0.002534   12.80  0.000555  (-0.009495  0.014465 -0.015986)
 65:   1452.57   0.003873   19.57  0.000832  ( 0.026838  0.010552  0.000629)
 66:   1476.38   0.002087   10.55  0.000441  (-0.010412  0.016629  0.007496)
 67:   1477.82   0.004292   21.69  0.000906  (-0.006778 -0.027126  0.011160)
 68:   1485.93   0.014454   73.04  0.003035  ( 0.013026 -0.034818  0.040663)
 69:   1489.60   0.002525   12.76  0.000529  ( 0.013008 -0.011715 -0.014918)
 70:   1505.27   0.007234   36.56  0.001500  (-0.014793  0.022835 -0.027558)
 71:   1506.39   0.003246   16.40  0.000672  (-0.012410  0.022091  0.005520)
 72:   1513.55   0.000587    2.97  0.000121  ( 0.000611 -0.008362 -0.007124)
 73:   1556.84   0.034907  176.40  0.006997  (-0.057110 -0.002191 -0.061078)
 74:   1586.99   0.087481  442.10  0.017202  ( 0.104212 -0.036929  0.070557)
 75:   1598.74   0.028315  143.09  0.005527  ( 0.048375 -0.047711  0.030172)
 76:   1626.82   0.053237  269.04  0.010212  ( 0.042584  0.088304 -0.024519)
 77:   1663.89   0.068139  344.35  0.012780  ( 0.031767  0.080978 -0.072201)
 78:   1681.78   0.041694  210.70  0.007737  (-0.030448 -0.049803  0.065796)
 79:   1803.56   0.052146  263.52  0.009023  (-0.085033 -0.042325  0.000808)
 80:   2630.72   0.329731  1666.33  0.039114  ( 0.080460  0.166285 -0.070634)
 81:   3017.75   0.003054   15.44  0.000316  (-0.013717  0.010644 -0.003796)
 82:   3071.59   0.000682    3.45  0.000069  (-0.007323  0.003709 -0.001382)
 83:   3089.33   0.005378   27.18  0.000543  ( 0.017749 -0.011442  0.009864)
 84:   3089.85   0.001056    5.34  0.000107  ( 0.005944 -0.002115 -0.008178)
 85:   3093.55   0.000125    0.63  0.000013  (-0.001944 -0.001001 -0.002805)
 86:   3115.63   0.001129    5.71  0.000113  (-0.000017  0.009995  0.003634)
 87:   3119.63   0.000067    0.34  0.000007  (-0.000619  0.001083 -0.002276)
 88:   3144.90   0.001287    6.50  0.000128  ( 0.004862  0.008726  0.005281)
 89:   3161.32   0.001266    6.40  0.000125  (-0.002416  0.006136  0.009026)
 90:   3172.04   0.000044    0.22  0.000004  (-0.000102  0.000172 -0.002081)
 91:   3176.51   0.000243    1.23  0.000024  (-0.003127  0.000102  0.003758)
 92:   3196.00   0.000282    1.42  0.000027  (-0.003431 -0.003752  0.001279)
 93:   3201.27   0.000050    0.25  0.000005  (-0.001385 -0.001475  0.000866)
 94:   3207.36   0.000304    1.54  0.000030  (-0.001557  0.002440 -0.004609)
 95:   3476.18   0.018400   92.99  0.001652  (-0.000617 -0.015125  0.037718)
 96:   3536.14   0.035686  180.34  0.003149  (-0.000207  0.042849 -0.036238)
 97:   3542.59   0.017093   86.38  0.001506  (-0.025996  0.027446  0.008756)
 98:   3644.67   0.008748   44.21  0.000749  (-0.023349 -0.014174  0.001728)

* The epsilon (eps) is given for a Dirac delta lineshape.
** The dipole moment derivative (T) already includes vibrational overlap.

The first frequency considered to be a vibration is 6
The total number of vibrations considered is 93


--------------------------
THERMOCHEMISTRY AT 298.15K
--------------------------

Temperature         ... 298.15 K
Pressure            ... 1.00 atm
Total Mass          ... 201.27 AMU

Throughout the following assumptions are being made:
  (1) The electronic state is orbitally nondegenerate
      but the spin degeneracy is treated
  (2) There are no thermally accessible electronically excited states
  (3) Hindered rotations indicated by low frequency modes are not
      treated as such but are treated as vibrations and this may
      cause some error
  (4) All equations used are the standard statistical mechanics
      equations for an ideal gas
  (5) All vibrations are strictly harmonic

freq.      46.23  E(vib)   ...       0.53 
freq.      56.14  E(vib)   ...       0.52 
freq.      77.87  E(vib)   ...       0.49 
freq.      90.96  E(vib)   ...       0.47 
freq.      97.52  E(vib)   ...       0.46 
freq.     111.67  E(vib)   ...       0.45 
freq.     127.97  E(vib)   ...       0.43 
freq.     156.33  E(vib)   ...       0.40 
freq.     177.90  E(vib)   ...       0.37 
freq.     181.84  E(vib)   ...       0.37 
freq.     203.66  E(vib)   ...       0.35 
freq.     214.63  E(vib)   ...       0.34 
freq.     244.55  E(vib)   ...       0.31 
freq.     287.44  E(vib)   ...       0.27 
freq.     309.04  E(vib)   ...       0.26 
freq.     314.41  E(vib)   ...       0.25 
freq.     320.24  E(vib)   ...       0.25 
freq.     369.17  E(vib)   ...       0.21 
freq.     393.97  E(vib)   ...       0.20 
freq.     431.45  E(vib)   ...       0.18 
freq.     475.32  E(vib)   ...       0.15 
freq.     530.53  E(vib)   ...       0.13 
freq.     548.50  E(vib)   ...       0.12 
freq.     574.32  E(vib)   ...       0.11 
freq.     622.30  E(vib)   ...       0.09 
freq.     661.39  E(vib)   ...       0.08 
freq.     701.97  E(vib)   ...       0.07 
freq.     728.73  E(vib)   ...       0.06 
freq.     761.15  E(vib)   ...       0.06 
freq.     789.54  E(vib)   ...       0.05 
freq.     839.39  E(vib)   ...       0.04 
freq.     904.83  E(vib)   ...       0.03 
freq.     924.72  E(vib)   ...       0.03 
freq.     960.24  E(vib)   ...       0.03 
freq.    1004.44  E(vib)   ...       0.02 
freq.    1019.25  E(vib)   ...       0.02 
freq.    1025.99  E(vib)   ...       0.02 
freq.    1043.17  E(vib)   ...       0.02 
freq.    1066.76  E(vib)   ...       0.02 
freq.    1068.70  E(vib)   ...       0.02 
freq.    1075.49  E(vib)   ...       0.02 
freq.    1119.68  E(vib)   ...       0.01 
freq.    1131.12  E(vib)   ...       0.01 
freq.    1144.44  E(vib)   ...       0.01 
freq.    1155.26  E(vib)   ...       0.01 
freq.    1181.94  E(vib)   ...       0.01 
freq.    1191.18  E(vib)   ...       0.01 
freq.    1233.45  E(vib)   ...       0.01 
freq.    1250.66  E(vib)   ...       0.01 
freq.    1287.26  E(vib)   ...       0.01 
freq.    1303.02  E(vib)   ...       0.01 
freq.    1304.65  E(vib)   ...       0.01 
freq.    1342.96  E(vib)   ...       0.01 
freq.    1350.62  E(vib)   ...       0.01 
freq.    1365.37  E(vib)   ...       0.01 
freq.    1398.87  E(vib)   ...       0.00 
freq.    1410.90  E(vib)   ...       0.00 
freq.    1415.93  E(vib)   ...       0.00 
freq.    1424.75  E(vib)   ...       0.00 
freq.    1452.57  E(vib)   ...       0.00 
freq.    1476.38  E(vib)   ...       0.00 
freq.    1477.82  E(vib)   ...       0.00 
freq.    1485.93  E(vib)   ...       0.00 
freq.    1489.60  E(vib)   ...       0.00 
freq.    1505.27  E(vib)   ...       0.00 
freq.    1506.39  E(vib)   ...       0.00 
freq.    1513.55  E(vib)   ...       0.00 
freq.    1556.84  E(vib)   ...       0.00 
freq.    1586.99  E(vib)   ...       0.00 
freq.    1598.74  E(vib)   ...       0.00 
freq.    1626.82  E(vib)   ...       0.00 
freq.    1663.89  E(vib)   ...       0.00 
freq.    1681.78  E(vib)   ...       0.00 
freq.    1803.56  E(vib)   ...       0.00 
freq.    2630.72  E(vib)   ...       0.00 
freq.    3017.75  E(vib)   ...       0.00 
freq.    3071.59  E(vib)   ...       0.00 
freq.    3089.33  E(vib)   ...       0.00 
freq.    3089.85  E(vib)   ...       0.00 
freq.    3093.55  E(vib)   ...       0.00 
freq.    3115.63  E(vib)   ...       0.00 
freq.    3119.63  E(vib)   ...       0.00 
freq.    3144.90  E(vib)   ...       0.00 
freq.    3161.32  E(vib)   ...       0.00 
freq.    3172.04  E(vib)   ...       0.00 
freq.    3176.51  E(vib)   ...       0.00 
freq.    3196.00  E(vib)   ...       0.00 
freq.    3201.27  E(vib)   ...       0.00 
freq.    3207.36  E(vib)   ...       0.00 
freq.    3476.18  E(vib)   ...       0.00 
freq.    3536.14  E(vib)   ...       0.00 
freq.    3542.59  E(vib)   ...       0.00 
freq.    3644.67  E(vib)   ...       0.00 

------------
INNER ENERGY
------------

The inner energy is: U= E(el) + E(ZPE) + E(vib) + E(rot) + E(trans)
    E(el)   - is the total energy from the electronic structure calculation
              = E(kin-el) + E(nuc-el) + E(el-el) + E(nuc-nuc)
    E(ZPE)  - the the zero temperature vibrational energy from the frequency calculation
    E(vib)  - the the finite temperature correction to E(ZPE) due to population
              of excited vibrational states
    E(rot)  - is the rotational thermal energy
    E(trans)- is the translational thermal energy

Summary of contributions to the inner energy U:
Electronic energy                ...   -668.83983191 Eh
Zero point energy                ...      0.29312034 Eh     183.94 kcal/mol
Thermal vibrational correction   ...      0.01351944 Eh       8.48 kcal/mol
Thermal rotational correction    ...      0.00141627 Eh       0.89 kcal/mol
Thermal translational correction ...      0.00141627 Eh       0.89 kcal/mol
-----------------------------------------------------------------------
Total thermal energy                   -668.53035959 Eh


Summary of corrections to the electronic energy:
(perhaps to be used in another calculation)
Total thermal correction                  0.01635198 Eh      10.26 kcal/mol
Non-thermal (ZPE) correction              0.29312034 Eh     183.94 kcal/mol
-----------------------------------------------------------------------
Total correction                          0.30947232 Eh     194.20 kcal/mol


--------
ENTHALPY
--------

The enthalpy is H = U + kB*T
                kB is Boltzmann's constant
Total free energy                 ...   -668.53035959 Eh 
Thermal Enthalpy correction       ...      0.00094421 Eh       0.59 kcal/mol
-----------------------------------------------------------------------
Total Enthalpy                    ...   -668.52941538 Eh


Note: Only C1 symmetry has been detected, increase convergence thresholds 
      if your molecule has a higher symmetry. Symmetry factor of 1.0 is   
      used for the rotational entropy correction. 
 

Note: Rotational entropy computed according to Herzberg 
Infrared and Raman Spectra, Chapter V,1, Van Nostrand Reinhold, 1945 
Point Group:  C1, Symmetry Number:   1  
Rotational constants in cm-1:     0.030750     0.013697     0.010236 

Vibrational entropy computed according to the QRRHO of S. Grimme
Chem.Eur.J. 2012 18 9955


-------
ENTROPY
-------

The entropy contributions are T*S = T*(S(el)+S(vib)+S(rot)+S(trans))
     S(el)   - electronic entropy
     S(vib)  - vibrational entropy
     S(rot)  - rotational entropy
     S(trans)- translational entropy
The entropies will be listed as multiplied by the temperature to get
units of energy

Electronic entropy                ...      0.00065446 Eh      0.41 kcal/mol
Vibrational entropy               ...      0.02395731 Eh     15.03 kcal/mol
Rotational entropy                ...      0.01534319 Eh      9.63 kcal/mol
Translational entropy             ...      0.01986189 Eh     12.46 kcal/mol
-----------------------------------------------------------------------
Final entropy term                ...      0.05981685 Eh     37.54 kcal/mol

In case the symmetry of your molecule has not been determined correctly
or in case you have a reason to use a different symmetry number we print 
out the resulting rotational entropy values for sn=1,12 :
 --------------------------------------------------------
|  sn= 1 | S(rot)=       0.01534319 Eh      9.63 kcal/mol|
|  sn= 2 | S(rot)=       0.01468873 Eh      9.22 kcal/mol|
|  sn= 3 | S(rot)=       0.01430590 Eh      8.98 kcal/mol|
|  sn= 4 | S(rot)=       0.01403427 Eh      8.81 kcal/mol|
|  sn= 5 | S(rot)=       0.01382359 Eh      8.67 kcal/mol|
|  sn= 6 | S(rot)=       0.01365144 Eh      8.57 kcal/mol|
|  sn= 7 | S(rot)=       0.01350590 Eh      8.48 kcal/mol|
|  sn= 8 | S(rot)=       0.01337982 Eh      8.40 kcal/mol|
|  sn= 9 | S(rot)=       0.01326861 Eh      8.33 kcal/mol|
|  sn=10 | S(rot)=       0.01316913 Eh      8.26 kcal/mol|
|  sn=11 | S(rot)=       0.01307914 Eh      8.21 kcal/mol|
|  sn=12 | S(rot)=       0.01299699 Eh      8.16 kcal/mol|
 --------------------------------------------------------


-------------------
GIBBS FREE ENERGY
-------------------

The Gibbs free energy is G = H - T*S

Total enthalpy                    ...   -668.52941538 Eh 
Total entropy correction          ...     -0.05981685 Eh    -37.54 kcal/mol
-----------------------------------------------------------------------
Final Gibbs free energy         ...   -668.58923223 Eh

For completeness - the Gibbs free energy minus the electronic energy
G-E(el)                           ...      0.25059968 Eh    157.25 kcal/mol


Timings for individual modules:

Sum of individual times         ...     2061.915 sec (=  34.365 min)
GTO integral calculation        ...       50.864 sec (=   0.848 min)   2.5 %
SCF iterations                  ...      847.803 sec (=  14.130 min)  41.1 %
SCF Gradient evaluation         ...      238.960 sec (=   3.983 min)  11.6 %
Geometry relaxation             ...        0.867 sec (=   0.014 min)   0.0 %
Analytical frequency calculation...      923.422 sec (=  15.390 min)  44.8 %
                             ****ORCA TERMINATED NORMALLY****
TOTAL RUN TIME: 0 days 0 hours 35 minutes 5 seconds 547 msec
