
                                 *****************
                                 * O   R   C   A *
                                 *****************

                                            #,                                       
                                            ###                                      
                                            ####                                     
                                            #####                                    
                                            ######                                   
                                           ########,                                 
                                     ,,################,,,,,                         
                               ,,#################################,,                 
                          ,,##########################################,,             
                       ,#########################################, ''#####,          
                    ,#############################################,,   '####,        
                  ,##################################################,,,,####,       
                ,###########''''           ''''###############################       
              ,#####''   ,,,,##########,,,,          '''####'''          '####       
            ,##' ,,,,###########################,,,                        '##       
           ' ,,###''''                  '''############,,,                           
         ,,##''                                '''############,,,,        ,,,,,,###''
      ,#''                                            '''#######################'''  
     '                                                          ''''####''''         
             ,#######,   #######,   ,#######,      ##                                
            ,#'     '#,  ##    ##  ,#'     '#,    #''#        ######   ,####,        
            ##       ##  ##   ,#'  ##            #'  '#       #        #'  '#        
            ##       ##  #######   ##           ,######,      #####,   #    #        
            '#,     ,#'  ##    ##  '#,     ,#' ,#      #,         ##   #,  ,#        
             '#######'   ##     ##  '#######'  #'      '#     #####' # '####'        



                  #######################################################
                  #                        -***-                        #
                  #          Department of theory and spectroscopy      #
                  #    Directorship and core code : Frank Neese         #
                  #        Max Planck Institute fuer Kohlenforschung    #
                  #                Kaiser Wilhelm Platz 1               #
                  #                 D-45470 Muelheim/Ruhr               #
                  #                      Germany                        #
                  #                                                     #
                  #                  All rights reserved                #
                  #                        -***-                        #
                  #######################################################


                         Program Version 5.0.4 -  RELEASE  -


 With contributions from (in alphabetic order):
   Daniel Aravena         : Magnetic Suceptibility
   Michael Atanasov       : Ab Initio Ligand Field Theory (pilot matlab implementation)
   Alexander A. Auer      : GIAO ZORA, VPT2 properties, NMR spectrum
   Ute Becker             : Parallelization
   Giovanni Bistoni       : ED, misc. LED, open-shell LED, HFLD
   Martin Brehm           : Molecular dynamics
   Dmytro Bykov           : SCF Hessian
   Vijay G. Chilkuri      : MRCI spin determinant printing, contributions to CSF-ICE
   Dipayan Datta          : RHF DLPNO-CCSD density
   Achintya Kumar Dutta   : EOM-CC, STEOM-CC
   Dmitry Ganyushin       : Spin-Orbit,Spin-Spin,Magnetic field MRCI
   Miquel Garcia          : C-PCM and meta-GGA Hessian, CC/C-PCM, Gaussian charge scheme
   Yang Guo               : DLPNO-NEVPT2, F12-NEVPT2, CIM, IAO-localization
   Andreas Hansen         : Spin unrestricted coupled pair/coupled cluster methods
   Benjamin Helmich-Paris : MC-RPA, TRAH-SCF, COSX integrals
   Lee Huntington         : MR-EOM, pCC
   Robert Izsak           : Overlap fitted RIJCOSX, COSX-SCS-MP3, EOM
   Marcus Kettner         : VPT2
   Christian Kollmar      : KDIIS, OOCD, Brueckner-CCSD(T), CCSD density, CASPT2, CASPT2-K
   Simone Kossmann        : Meta GGA functionals, TD-DFT gradient, OOMP2, MP2 Hessian
   Martin Krupicka        : Initial AUTO-CI
   Lucas Lang             : DCDCAS
   Marvin Lechner         : AUTO-CI (C++ implementation), FIC-MRCC
   Dagmar Lenk            : GEPOL surface, SMD
   Dimitrios Liakos       : Extrapolation schemes; Compound Job, initial MDCI parallelization
   Dimitrios Manganas     : Further ROCIS development; embedding schemes
   Dimitrios Pantazis     : SARC Basis sets
   Anastasios Papadopoulos: AUTO-CI, single reference methods and gradients
   Taras Petrenko         : DFT Hessian,TD-DFT gradient, ASA, ECA, R-Raman, ABS, FL, XAS/XES, NRVS
   Peter Pinski           : DLPNO-MP2, DLPNO-MP2 Gradient
   Christoph Reimann      : Effective Core Potentials
   Marius Retegan         : Local ZFS, SOC
   Christoph Riplinger    : Optimizer, TS searches, QM/MM, DLPNO-CCSD(T), (RO)-DLPNO pert. Triples
   Tobias Risthaus        : Range-separated hybrids, TD-DFT gradient, RPA, STAB
   Michael Roemelt        : Original ROCIS implementation
   Masaaki Saitow         : Open-shell DLPNO-CCSD energy and density
   Barbara Sandhoefer     : DKH picture change effects
   Avijit Sen             : IP-ROCIS
   Kantharuban Sivalingam : CASSCF convergence, NEVPT2, FIC-MRCI
   Bernardo de Souza      : ESD, SOC TD-DFT
   Georgi Stoychev        : AutoAux, RI-MP2 NMR, DLPNO-MP2 response
   Willem Van den Heuvel  : Paramagnetic NMR
   Boris Wezisla          : Elementary symmetry handling
   Frank Wennmohs         : Technical directorship


 We gratefully acknowledge several colleagues who have allowed us to
 interface, adapt or use parts of their codes:
   Stefan Grimme, W. Hujo, H. Kruse, P. Pracht,  : VdW corrections, initial TS optimization,
                  C. Bannwarth, S. Ehlert          DFT functionals, gCP, sTDA/sTD-DF
   Ed Valeev, F. Pavosevic, A. Kumar             : LibInt (2-el integral package), F12 methods
   Garnet Chan, S. Sharma, J. Yang, R. Olivares  : DMRG
   Ulf Ekstrom                                   : XCFun DFT Library
   Mihaly Kallay                                 : mrcc  (arbitrary order and MRCC methods)
   Jiri Pittner, Ondrej Demel                    : Mk-CCSD
   Frank Weinhold                                : gennbo (NPA and NBO analysis)
   Christopher J. Cramer and Donald G. Truhlar   : smd solvation model
   Lars Goerigk                                  : TD-DFT with DH, B97 family of functionals
   V. Asgeirsson, H. Jonsson                     : NEB implementation
   FAccTs GmbH                                   : IRC, NEB, NEB-TS, DLPNO-Multilevel, CI-OPT
                                                   MM, QMMM, 2- and 3-layer-ONIOM, Crystal-QMMM,
                                                   LR-CPCM, SF, NACMEs, symmetry and pop. for TD-DFT,
                                                   nearIR, NL-DFT gradient (VV10), updates on ESD,
                                                   ML-optimized integration grids
   S Lehtola, MJT Oliveira, MAL Marques          : LibXC Library
   Liviu Ungur et al                             : ANISO software


 Your calculation uses the libint2 library for the computation of 2-el integrals
 For citations please refer to: http://libint.valeyev.net

 Your ORCA version has been built with support for libXC version: 5.1.0
 For citations please refer to: https://tddft.org/programs/libxc/

 This ORCA versions uses:
   CBLAS   interface :  Fast vector & matrix operations
   LAPACKE interface :  Fast linear algebra routines
   SCALAPACK package :  Parallel linear algebra routines
   Shared memory     :  Shared parallel matrices
   BLAS/LAPACK       :  OpenBLAS 0.3.15  USE64BITINT DYNAMIC_ARCH NO_AFFINITY Zen SINGLE_THREADED
        Core in use  :  Zen
   Copyright (c) 2011-2014, The OpenBLAS Project




***************************************
The coordinates will be read from file: model.xyz
***************************************


================================================================================

----- Orbital basis set information -----
Your calculation utilizes the basis: EPR-II
   V. Barone, in Recent Advances in Density Functional Methods, Part 1 (ed. D. P. Chong), World Scientific, Singapore, 1995, p. 287.

----- AuxJ basis set information -----
Your calculation utilizes the auxiliary basis: def2/J
   F. Weigend, Phys. Chem. Chem. Phys. 8, 1057 (2006).

================================================================================
                                        WARNINGS
                       Please study these warnings very carefully!
================================================================================


WARNING: your system is open-shell and RHF/RKS was chosen
  ===> : WILL SWITCH to UHF/UKS


WARNING: Geometry Optimization
  ===> : Switching off AutoStart
         For restart on a previous wavefunction, please use MOREAD

INFO   : the flag for use of the SHARK integral package has been found!

================================================================================
                                       INPUT FILE
================================================================================
NAME = opt.inp
|  1> ! B3LYP EPR-II OPT
|  2> %pal nprocs 16 end
|  3> *XYZFile 1 2 model.xyz
|  4> 
|  5>                          ****END OF INPUT****
================================================================================

                       *****************************
                       * Geometry Optimization Run *
                       *****************************

Geometry optimization settings:
Update method            Update   .... BFGS
Choice of coordinates    CoordSys .... Z-matrix Internals
Initial Hessian          InHess   .... Almoef's Model

Convergence Tolerances:
Energy Change            TolE     ....  5.0000e-06 Eh
Max. Gradient            TolMAXG  ....  3.0000e-04 Eh/bohr
RMS Gradient             TolRMSG  ....  1.0000e-04 Eh/bohr
Max. Displacement        TolMAXD  ....  4.0000e-03 bohr
RMS Displacement         TolRMSD  ....  2.0000e-03 bohr
Strict Convergence                ....  False
------------------------------------------------------------------------------
                        ORCA OPTIMIZATION COORDINATE SETUP
------------------------------------------------------------------------------

The optimization will be done in new redundant internal coordinates
Making redundant internal coordinates   ...  (new redundants) done
Evaluating the initial hessian          ...  (Almloef) done
Evaluating the coordinates              ...  done
Calculating the B-matrix                .... done
Calculating the G-matrix                .... done
Diagonalizing the G-matrix              .... done
Small eigenvalue found = 4.335e-03
Small eigenvalue found = 6.019e-03
Small eigenvalue found = 9.229e-03
Small eigenvalue found = 1.756e-02
Small eigenvalue found = 2.549e-02
The first mode is                       ....   67
The number of degrees of freedom        ....   93

    -----------------------------------------------------------------
                    Redundant Internal Coordinates


    -----------------------------------------------------------------
         Definition                    Initial Value    Approx d2E/dq
    -----------------------------------------------------------------
      1. B(C   1,N   0)                  1.4602         0.432413   
      2. B(C   2,C   1)                  1.5515         0.345234   
      3. B(O   3,C   2)                  1.2147         1.065544   
      4. B(C   4,C   1)                  1.5142         0.395863   
      5. B(C   5,C   4)                  1.5039         0.411162   
      6. B(C   6,C   5)                  1.5525         0.343930   
      7. B(C   7,C   6)                  1.5351         0.366624   
      8. B(N   8,C   7)                  1.5068         0.364353   
      9. B(H   9,C   5)                  1.0964         0.351779   
     10. B(H  10,C   5)                  1.1042         0.341751   
     11. B(H  11,C   6)                  1.0985         0.348971   
     12. B(H  12,C   6)                  1.0959         0.352433   
     13. B(H  13,C   7)                  1.0941         0.354721   
     14. B(H  14,C   7)                  1.0953         0.353217   
     15. B(H  15,N   8)                  1.0213         0.415065   
     16. B(H  16,N   8)                  1.0595         0.360717   
     17. B(H  17,N   0)                  1.0172         0.421350   
     18. B(C  18,N   0)                  1.3320         0.692547   
     19. B(N  19,C   2)                  1.3429         0.665344   
     20. B(H  20,N  19)                  1.0081         0.435680   
     21. B(O  21,C  18)                  1.2405         0.969230   
     22. B(H  22,N   8)                  1.0225         0.413304   
     23. B(C  23,N  19)                  1.4561         0.438889   
     24. B(H  24,C  23)                  1.0947         0.353999   
     25. B(H  25,C  23)                  1.0932         0.355955   
     26. B(H  26,C  23)                  1.0966         0.351427   
     27. B(C  27,C  18)                  1.5123         0.398689   
     28. B(H  28,C  27)                  1.0961         0.352126   
     29. B(H  29,C  27)                  1.0963         0.351878   
     30. B(H  30,C  27)                  1.0934         0.355654   
     31. B(H  31,C   1)                  1.0990         0.348353   
     32. B(H  32,C   4)                  1.0892         0.361146   
     33. A(H  17,N   0,C  18)          121.1071         0.363848   
     34. A(C   1,N   0,C  18)          124.7077         0.409762   
     35. A(C   1,N   0,H  17)          113.2460         0.336056   
     36. A(C   2,C   1,C   4)          110.5222         0.362054   
     37. A(C   2,C   1,H  31)          109.2612         0.318425   
     38. A(N   0,C   1,H  31)          107.6114         0.328434   
     39. A(N   0,C   1,C   4)          112.7765         0.373966   
     40. A(C   4,C   1,H  31)          111.0123         0.325643   
     41. A(N   0,C   1,C   2)          105.4412         0.365275   
     42. A(O   3,C   2,N  19)          123.8949         0.478847   
     43. A(C   1,C   2,N  19)          115.6071         0.393579   
     44. A(C   1,C   2,O   3)          120.4949         0.427837   
     45. A(C   5,C   4,H  32)          118.5421         0.329639   
     46. A(C   1,C   4,C   5)          121.4315         0.373071   
     47. A(C   1,C   4,H  32)          116.9833         0.327582   
     48. A(H   9,C   5,H  10)          106.2859         0.287412   
     49. A(C   6,C   5,H  10)          109.0022         0.317238   
     50. A(C   4,C   5,C   6)          114.6697         0.364172   
     51. A(C   6,C   5,H   9)          108.7007         0.318737   
     52. A(C   4,C   5,H   9)          109.4558         0.328212   
     53. A(C   4,C   5,H  10)          108.3980         0.326651   
     54. A(C   7,C   6,H  11)          108.7084         0.321662   
     55. A(C   5,C   6,H  11)          111.1555         0.318321   
     56. A(C   5,C   6,C   7)          112.1968         0.357123   
     57. A(H  11,C   6,H  12)          106.5834         0.288437   
     58. A(C   7,C   6,H  12)          108.4060         0.322182   
     59. A(C   5,C   6,H  12)          109.5968         0.318834   
     60. A(H  13,C   7,H  14)          108.5171         0.289276   
     61. A(N   8,C   7,H  14)          107.1864         0.320054   
     62. A(C   6,C   7,H  14)          111.1634         0.322299   
     63. A(N   8,C   7,H  13)          107.2360         0.320277   
     64. A(C   6,C   7,H  13)          112.5391         0.322524   
     65. A(C   6,C   7,N   8)          109.9795         0.358411   
     66. A(H  15,N   8,H  16)          109.6498         0.292684   
     67. A(C   7,N   8,H  16)          112.0460         0.318451   
     68. A(C   7,N   8,H  15)          112.1819         0.325856   
     69. A(H  16,N   8,H  22)          104.8541         0.292488   
     70. A(H  15,N   8,H  22)          107.2982         0.299055   
     71. A(C   7,N   8,H  22)          110.4542         0.325628   
     72. A(O  21,C  18,C  27)          120.7711         0.431633   
     73. A(N   0,C  18,C  27)          117.3417         0.406533   
     74. A(N   0,C  18,O  21)          121.8857         0.474053   
     75. A(H  20,N  19,C  23)          119.1842         0.338772   
     76. A(C   2,N  19,C  23)          121.3725         0.407937   
     77. A(C   2,N  19,H  20)          119.1916         0.363436   
     78. A(H  25,C  23,H  26)          109.4337         0.289203   
     79. A(H  24,C  23,H  26)          108.5432         0.288954   
     80. A(N  19,C  23,H  26)          110.9595         0.329719   
     81. A(H  24,C  23,H  25)          109.3672         0.289534   
     82. A(N  19,C  23,H  25)          108.8073         0.330417   
     83. A(N  19,C  23,H  24)          109.7109         0.330117   
     84. A(H  29,C  27,H  30)          109.5335         0.289223   
     85. A(H  28,C  27,H  30)          109.5392         0.289255   
     86. A(C  18,C  27,H  30)          113.0047         0.327139   
     87. A(H  28,C  27,H  29)          107.6791         0.288772   
     88. A(C  18,C  27,H  29)          108.1942         0.326565   
     89. A(C  18,C  27,H  28)          108.7429         0.326603   
     90. D(C   4,C   1,N   0,H  17)   -107.0684         0.015942   
     91. D(C   2,C   1,N   0,C  18)   -155.3405         0.015942   
     92. D(C   2,C   1,N   0,H  17)     13.6246         0.015942   
     93. D(C   4,C   1,N   0,C  18)     83.9666         0.015942   
     94. D(H  31,C   1,N   0,H  17)    130.1592         0.015942   
     95. D(H  31,C   1,N   0,C  18)    -38.8058         0.015942   
     96. D(O   3,C   2,C   1,N   0)     -7.8551         0.009029   
     97. D(N  19,C   2,C   1,C   4)    -65.0825         0.009029   
     98. D(N  19,C   2,C   1,H  31)     57.3545         0.009029   
     99. D(O   3,C   2,C   1,H  31)   -123.2606         0.009029   
    100. D(O   3,C   2,C   1,C   4)    114.3024         0.009029   
    101. D(N  19,C   2,C   1,N   0)    172.7601         0.009029   
    102. D(C   5,C   4,C   1,C   2)    170.7170         0.011641   
    103. D(C   5,C   4,C   1,N   0)    -71.5400         0.011641   
    104. D(C   5,C   4,C   1,H  31)     49.3108         0.011641   
    105. D(H  32,C   4,C   1,H  31)   -150.7123         0.011641   
    106. D(H  32,C   4,C   1,C   2)    -29.3061         0.011641   
    107. D(H  32,C   4,C   1,N   0)     88.4369         0.011641   
    108. D(H  10,C   5,C   4,H  32)   -100.5607         0.012518   
    109. D(H  10,C   5,C   4,C   1)     59.1147         0.012518   
    110. D(H   9,C   5,C   4,H  32)     14.9660         0.012518   
    111. D(C   6,C   5,C   4,H  32)    137.4080         0.012518   
    112. D(C   6,C   5,C   4,C   1)    -62.9166         0.012518   
    113. D(H   9,C   5,C   4,C   1)    174.6414         0.012518   
    114. D(H  11,C   6,C   5,H  10)    -87.5287         0.009558   
    115. D(H  11,C   6,C   5,H   9)    157.0233         0.009558   
    116. D(H  11,C   6,C   5,C   4)     34.1736         0.009558   
    117. D(C   7,C   6,C   5,H  10)     34.4334         0.009558   
    118. D(C   7,C   6,C   5,H   9)    -81.0147         0.009558   
    119. D(H  12,C   6,C   5,C   4)    -83.3831         0.009558   
    120. D(C   7,C   6,C   5,C   4)    156.1357         0.009558   
    121. D(H  12,C   6,C   5,H  10)    154.9146         0.009558   
    122. D(H  12,C   6,C   5,H   9)     39.4665         0.009558   
    123. D(H  14,C   7,C   6,H  12)    -84.9979         0.010757   
    124. D(H  14,C   7,C   6,H  11)    159.5173         0.010757   
    125. D(H  14,C   7,C   6,C   5)     36.1704         0.010757   
    126. D(H  13,C   7,C   6,H  12)     36.9662         0.010757   
    127. D(H  13,C   7,C   6,H  11)    -78.5185         0.010757   
    128. D(H  13,C   7,C   6,C   5)    158.1346         0.010757   
    129. D(N   8,C   7,C   6,H  12)    156.4542         0.010757   
    130. D(N   8,C   7,C   6,H  11)     40.9695         0.010757   
    131. D(N   8,C   7,C   6,C   5)    -82.3774         0.010757   
    132. D(H  22,N   8,C   7,H  14)    156.8935         0.012192   
    133. D(H  22,N   8,C   7,H  13)     40.5331         0.012192   
    134. D(H  22,N   8,C   7,C   6)    -82.1390         0.012192   
    135. D(H  16,N   8,C   7,H  14)    -86.6043         0.012192   
    136. D(H  16,N   8,C   7,H  13)    157.0352         0.012192   
    137. D(H  16,N   8,C   7,C   6)     34.3631         0.012192   
    138. D(H  15,N   8,C   7,H  14)     37.2377         0.012192   
    139. D(H  15,N   8,C   7,H  13)    -79.1228         0.012192   
    140. D(H  15,N   8,C   7,C   6)    158.2052         0.012192   
    141. D(C  27,C  18,N   0,H  17)      5.8920         0.039605   
    142. D(C  27,C  18,N   0,C   1)    174.0388         0.039605   
    143. D(O  21,C  18,N   0,H  17)   -173.6522         0.039605   
    144. D(O  21,C  18,N   0,C   1)     -5.5055         0.039605   
    145. D(C  23,N  19,C   2,O   3)     -1.4589         0.036278   
    146. D(C  23,N  19,C   2,C   1)    177.9025         0.036278   
    147. D(H  20,N  19,C   2,O   3)   -175.6480         0.036278   
    148. D(H  20,N  19,C   2,C   1)      3.7134         0.036278   
    149. D(H  25,C  23,N  19,H  20)    -14.9908         0.016425   
    150. D(H  25,C  23,N  19,C   2)    170.8198         0.016425   
    151. D(H  24,C  23,N  19,H  20)   -134.6042         0.016425   
    152. D(H  24,C  23,N  19,C   2)     51.2063         0.016425   
    153. D(H  26,C  23,N  19,H  20)    105.4630         0.016425   
    154. D(H  26,C  23,N  19,C   2)    -68.7265         0.016425   
    155. D(H  30,C  27,C  18,O  21)    179.7202         0.011800   
    156. D(H  30,C  27,C  18,N   0)      0.1706         0.011800   
    157. D(H  29,C  27,C  18,O  21)     58.2599         0.011800   
    158. D(H  29,C  27,C  18,N   0)   -121.2897         0.011800   
    159. D(H  28,C  27,C  18,O  21)    -58.4256         0.011800   
    160. D(H  28,C  27,C  18,N   0)    122.0249         0.011800   
    -----------------------------------------------------------------

Number of atoms                         .... 33
Number of degrees of freedom            .... 160

         *************************************************************
         *                GEOMETRY OPTIMIZATION CYCLE   1            *
         *************************************************************
---------------------------------
CARTESIAN COORDINATES (ANGSTROEM)
---------------------------------
  N     -7.772586    1.488087    0.391425
  C     -6.359775    1.645944    0.724874
  C     -5.982052    0.377198    1.534002
  O     -6.839109   -0.410742    1.880521
  C     -6.084939    2.894448    1.536404
  C     -6.165942    4.263946    0.920255
  C     -5.142880    4.523851   -0.218196
  C     -5.610330    5.627706   -1.177136
  N     -6.564953    5.056541   -2.193464
  H     -6.026234    5.023387    1.698551
  H     -7.187148    4.408861    0.525950
  H     -4.954268    3.610028   -0.797985
  H     -4.181445    4.824568    0.213217
  H     -4.782217    6.081763   -1.729503
  H     -6.144799    6.418254   -0.639589
  H     -7.161186    5.774403   -2.608552
  H     -7.166694    4.286092   -1.784896
  H     -8.229913    0.749474    0.920652
  C     -8.376552    2.067250   -0.644893
  N     -4.677163    0.237580    1.818798
  H     -4.035007    0.967894    1.553059
  O     -7.791502    2.885603   -1.370705
  H     -6.050191    4.610554   -2.956091
  C     -4.189743   -0.883033    2.610625
  H     -4.568827   -1.821796    2.194355
  H     -3.097047   -0.887734    2.579430
  H     -4.524695   -0.802779    3.651768
  C     -9.813297    1.681000   -0.916172
  H    -10.432624    2.584866   -0.886423
  H     -9.871657    1.270684   -1.931101
  H    -10.200831    0.948530   -0.202878
  H     -5.794787    1.656331   -0.217752
  H     -6.158175    2.805922    2.619538

----------------------------
CARTESIAN COORDINATES (A.U.)
----------------------------
  NO LB      ZA    FRAG     MASS         X           Y           Z
   0 N     7.0000    0    14.007  -14.688059    2.812077    0.739686
   1 C     6.0000    0    12.011  -12.018233    3.110383    1.369813
   2 C     6.0000    0    12.011  -11.304440    0.712801    2.898844
   3 O     8.0000    0    15.999  -12.924043   -0.776190    3.553670
   4 C     6.0000    0    12.011  -11.498868    5.469714    2.903383
   5 C     6.0000    0    12.011  -11.651942    8.057690    1.739030
   6 C     6.0000    0    12.011   -9.718635    8.548839   -0.412331
   7 C     6.0000    0    12.011  -10.601987   10.634823   -2.224465
   8 N     7.0000    0    14.007  -12.405963    9.555478   -4.145046
   9 H     1.0000    0     1.008  -11.387932    9.492826    3.209796
  10 H     1.0000    0     1.008  -13.581741    8.331540    0.993901
  11 H     1.0000    0     1.008   -9.362210    6.821964   -1.507973
  12 H     1.0000    0     1.008   -7.901786    9.117112    0.402922
  13 H     1.0000    0     1.008   -9.037080   11.492866   -3.268287
  14 H     1.0000    0     1.008  -11.611987   12.128742   -1.208648
  15 H     1.0000    0     1.008  -13.532680   10.912040   -4.929449
  16 H     1.0000    0     1.008  -13.543089    8.099540   -3.372965
  17 H     1.0000    0     1.008  -15.552282    1.416301    1.739780
  18 C     6.0000    0    12.011  -15.829389    3.906536   -1.218671
  19 N     7.0000    0    14.007   -8.838557    0.448961    3.437030
  20 H     1.0000    0     1.008   -7.625058    1.829055    2.934856
  21 O     8.0000    0    15.999  -14.723805    5.452999   -2.590257
  22 H     1.0000    0     1.008  -11.433204    8.712684   -5.586202
  23 C     6.0000    0    12.011   -7.917467   -1.668691    4.933366
  24 H     1.0000    0     1.008   -8.633832   -3.442696    4.146730
  25 H     1.0000    0     1.008   -5.852571   -1.677574    4.874416
  26 H     1.0000    0     1.008   -8.550434   -1.517032    6.900841
  27 C     6.0000    0    12.011  -18.544444    3.176630   -1.731314
  28 H     1.0000    0     1.008  -19.714802    4.884689   -1.675097
  29 H     1.0000    0     1.008  -18.654728    2.401245   -3.649252
  30 H     1.0000    0     1.008  -19.276777    1.792462   -0.383384
  31 H     1.0000    0     1.008  -10.950560    3.130012   -0.411492
  32 H     1.0000    0     1.008  -11.637264    5.302424    4.950209

--------------------------------
INTERNAL COORDINATES (ANGSTROEM)
--------------------------------
 N      0   0   0     0.000000000000     0.00000000     0.00000000
 C      1   0   0     1.460185601138     0.00000000     0.00000000
 C      2   1   0     1.551476457323   105.44122393     0.00000000
 O      3   2   1     1.214689903724   120.49491536   352.14489102
 C      2   1   3     1.514225216344   112.77650237   239.30705814
 C      5   2   1     1.503903536871   121.43152523   288.46003124
 C      6   5   2     1.552506729219   114.66972922   297.08339867
 C      7   6   5     1.535112792965   112.19676941   156.13568638
 N      8   7   6     1.506803614589   109.97947612   277.62259329
 H      6   5   2     1.096363817973   109.45579239   174.64138223
 H      6   5   2     1.104236607202   108.39799177    59.11471511
 H      7   6   5     1.098545514029   111.15552419    34.17362967
 H      7   6   5     1.095858179640   109.59678358   276.61686707
 H      8   7   6     1.094096980485   112.53906483   158.13459611
 H      8   7   6     1.095253408794   111.16343945    36.17042416
 H      9   8   7     1.021331331683   112.18187278   158.20515759
 H      9   8   7     1.059533719759   112.04596446    34.36312279
 H      1   2   3     1.017240564580   113.24600706    13.62455221
 C      1   2   3     1.331975865716   124.70767286   204.65951735
 N      3   2   1     1.342883930152   115.60709067   172.76005936
 H     20   3   2     1.008136936657   119.19157383     3.71344594
 O     19   1   2     1.240479018143   121.88566971   354.49454472
 H      9   8   7     1.022489247837   110.45421023   277.86098495
 C     20   3   2     1.456139330592   121.37254375   177.90251676
 H     24  20   3     1.094651251370   109.71088617    51.20632966
 H     24  20   3     1.093151305100   108.80732186   170.81975159
 H     24  20   3     1.096636810101   110.95954128   291.27354380
 C     19   1   2     1.512288845878   117.34168867   174.03876439
 H     28  19   1     1.096095197456   108.74285883   122.02485579
 H     28  19   1     1.096287364014   108.19421113   238.71034702
 H     28  19   1     1.093381558511   113.00470767     0.17064995
 H      2   1   3     1.099028255228   107.61140542   116.53466114
 H      5   2   1     1.089210551881   116.98330124    88.43694549

---------------------------
INTERNAL COORDINATES (A.U.)
---------------------------
 N      0   0   0     0.000000000000     0.00000000     0.00000000
 C      1   0   0     2.759350890846     0.00000000     0.00000000
 C      2   1   0     2.931865607568   105.44122393     0.00000000
 O      3   2   1     2.295431255678   120.49491536   352.14489102
 C      2   1   3     2.861470963968   112.77650237   239.30705814
 C      5   2   1     2.841965816522   121.43152523   288.46003124
 C      6   5   2     2.933812539294   114.66972922   297.08339867
 C      7   6   5     2.900942763383   112.19676941   156.13568638
 N      8   7   6     2.847446169176   109.97947612   277.62259329
 H      6   5   2     2.071827359110   109.45579239   174.64138223
 H      6   5   2     2.086704774663   108.39799177    59.11471511
 H      7   6   5     2.075950167163   111.15552419    34.17362967
 H      7   6   5     2.070871841136   109.59678358   276.61686707
 H      8   7   6     2.067543657067   112.53906483   158.13459611
 H      8   7   6     2.069728989864   111.16343945    36.17042416
 H      9   8   7     1.930036508874   112.18187278   158.20515759
 H      9   8   7     2.002228559999   112.04596446    34.36312279
 H      1   2   3     1.922306079372   113.24600706    13.62455221
 C      1   2   3     2.517069603195   124.70767286   204.65951735
 N      3   2   1     2.537682857631   115.60709067   172.76005936
 H     20   3   2     1.905102715773   119.19157383     3.71344594
 O     19   1   2     2.344165619166   121.88566971   354.49454472
 H      9   8   7     1.932224653291   110.45421023   277.86098495
 C     20   3   2     2.751704547651   121.37254375   177.90251676
 H     24  20   3     2.068591077243   109.71088617    51.20632966
 H     24  20   3     2.065756589578   108.80732186   170.81975159
 H     24  20   3     2.072343239468   110.95954128   291.27354380
 C     19   1   2     2.857811754093   117.34168867   174.03876439
 H     28  19   1     2.071319739898   108.74285883   122.02485579
 H     28  19   1     2.071682882065   108.19421113   238.71034702
 H     28  19   1     2.066191705466   113.00470767     0.17064995
 H      2   1   3     2.076862415822   107.61140542   116.53466114
 H      5   2   1     2.058309645232   116.98330124    88.43694549

---------------------
BASIS SET INFORMATION
---------------------
There are 4 groups of distinct atoms

 Group   1 Type N   : 10s5p1d contracted to 6s2p1d pattern {511111/41/1}
 Group   2 Type C   : 10s5p1d contracted to 6s2p1d pattern {511111/41/1}
 Group   3 Type O   : 10s5p1d contracted to 6s2p1d pattern {511111/41/1}
 Group   4 Type H   : 6s1p contracted to 4s1p pattern {3111/1}

Atom   0N    basis set group =>   1
Atom   1C    basis set group =>   2
Atom   2C    basis set group =>   2
Atom   3O    basis set group =>   3
Atom   4C    basis set group =>   2
Atom   5C    basis set group =>   2
Atom   6C    basis set group =>   2
Atom   7C    basis set group =>   2
Atom   8N    basis set group =>   1
Atom   9H    basis set group =>   4
Atom  10H    basis set group =>   4
Atom  11H    basis set group =>   4
Atom  12H    basis set group =>   4
Atom  13H    basis set group =>   4
Atom  14H    basis set group =>   4
Atom  15H    basis set group =>   4
Atom  16H    basis set group =>   4
Atom  17H    basis set group =>   4
Atom  18C    basis set group =>   2
Atom  19N    basis set group =>   1
Atom  20H    basis set group =>   4
Atom  21O    basis set group =>   3
Atom  22H    basis set group =>   4
Atom  23C    basis set group =>   2
Atom  24H    basis set group =>   4
Atom  25H    basis set group =>   4
Atom  26H    basis set group =>   4
Atom  27C    basis set group =>   2
Atom  28H    basis set group =>   4
Atom  29H    basis set group =>   4
Atom  30H    basis set group =>   4
Atom  31H    basis set group =>   4
Atom  32H    basis set group =>   4
---------------------------------
AUXILIARY/J BASIS SET INFORMATION
---------------------------------
There are 4 groups of distinct atoms

 Group   1 Type N   : 12s5p4d2f1g contracted to 6s4p3d1f1g pattern {711111/2111/211/2/1}
 Group   2 Type C   : 12s5p4d2f1g contracted to 6s4p3d1f1g pattern {711111/2111/211/2/1}
 Group   3 Type O   : 12s5p4d2f1g contracted to 6s4p3d1f1g pattern {711111/2111/211/2/1}
 Group   4 Type H   : 5s2p1d contracted to 3s1p1d pattern {311/2/1}

Atom   0N    basis set group =>   1
Atom   1C    basis set group =>   2
Atom   2C    basis set group =>   2
Atom   3O    basis set group =>   3
Atom   4C    basis set group =>   2
Atom   5C    basis set group =>   2
Atom   6C    basis set group =>   2
Atom   7C    basis set group =>   2
Atom   8N    basis set group =>   1
Atom   9H    basis set group =>   4
Atom  10H    basis set group =>   4
Atom  11H    basis set group =>   4
Atom  12H    basis set group =>   4
Atom  13H    basis set group =>   4
Atom  14H    basis set group =>   4
Atom  15H    basis set group =>   4
Atom  16H    basis set group =>   4
Atom  17H    basis set group =>   4
Atom  18C    basis set group =>   2
Atom  19N    basis set group =>   1
Atom  20H    basis set group =>   4
Atom  21O    basis set group =>   3
Atom  22H    basis set group =>   4
Atom  23C    basis set group =>   2
Atom  24H    basis set group =>   4
Atom  25H    basis set group =>   4
Atom  26H    basis set group =>   4
Atom  27C    basis set group =>   2
Atom  28H    basis set group =>   4
Atom  29H    basis set group =>   4
Atom  30H    basis set group =>   4
Atom  31H    basis set group =>   4
Atom  32H    basis set group =>   4


           ************************************************************
           *        Program running with 16 parallel MPI-processes    *
           *              working on a common directory               *
           ************************************************************
------------------------------------------------------------------------------
                           ORCA GTO INTEGRAL CALCULATION
                           -- RI-GTO INTEGRALS CHOSEN --
------------------------------------------------------------------------------
------------------------------------------------------------------------------
                   ___                                                        
                  /   \      - P O W E R E D   B Y -                         
                 /     \                                                     
                 |  |  |   _    _      __       _____    __    __             
                 |  |  |  | |  | |    /  \     |  _  \  |  |  /  |          
                  \  \/   | |  | |   /    \    | | | |  |  | /  /          
                 / \  \   | |__| |  /  /\  \   | |_| |  |  |/  /          
                |  |  |   |  __  | /  /__\  \  |    /   |      \           
                |  |  |   | |  | | |   __   |  |    \   |  |\   \          
                \     /   | |  | | |  |  |  |  | |\  \  |  | \   \       
                 \___/    |_|  |_| |__|  |__|  |_| \__\ |__|  \__/        
                                                                              
                      - O R C A' S   B I G   F R I E N D -                    
                                      &                                       
                       - I N T E G R A L  F E E D E R -                       
                                                                              
 v1 FN, 2020, v2 2021                                                         
------------------------------------------------------------------------------


Reading SHARK input file opt.SHARKINP.tmp ... ok
----------------------
SHARK INTEGRAL PACKAGE
----------------------

Number of atoms                             ...     33
Number of basis functions                   ...    371
Number of shells                            ...    221
Maximum angular momentum                    ...      2
Integral batch strategy                     ... SHARK/LIBINT Hybrid
RI-J (if used) integral strategy            ... SPLIT-RIJ (Revised 2003 algorithm where possible)
Printlevel                                  ...      1
Contraction scheme used                     ... SEGMENTED contraction
Coulomb Range Separation                    ... NOT USED
Exchange Range Separation                   ... NOT USED
Finite Nucleus Model                        ... NOT USED
Auxiliary Coulomb fitting basis             ... AVAILABLE
   # of basis functions in Aux-J            ...    895
   # of shells in Aux-J                     ...    305
   Maximum angular momentum in Aux-J        ...      4
Auxiliary J/K fitting basis                 ... NOT available
Auxiliary Correlation fitting basis         ... NOT available
Auxiliary 'external' fitting basis          ... NOT available
Integral threshold                          ...     2.500000e-11
Primitive cut-off                           ...     2.500000e-12
Primitive pair pre-selection threshold      ...     2.500000e-12

Calculating pre-screening integrals         ... done (  0.0 sec) Dimension = 221
Organizing shell pair data                  ... done (  0.1 sec)
Shell pair information
Total number of shell pairs                 ...     24531
Shell pairs after pre-screening             ...     16494
Total number of primitive shell pairs       ...     64184
Primitive shell pairs kept                  ...     31439
          la=0 lb=0:   7763 shell pairs
          la=1 lb=0:   5623 shell pairs
          la=1 lb=1:    956 shell pairs
          la=2 lb=0:   1523 shell pairs
          la=2 lb=1:    540 shell pairs
          la=2 lb=2:     89 shell pairs

Calculating one electron integrals          ... done (  0.0 sec)
Calculating RI/J V-Matrix + Cholesky decomp.... done (  0.0 sec)
Calculating Nuclear repulsion               ... done (  0.0 sec) ENN=    967.705999669181 Eh

SHARK setup successfully completed in   0.2 seconds

Maximum memory used throughout the entire GTOINT-calculation: 23.5 MB


           ************************************************************
           *        Program running with 16 parallel MPI-processes    *
           *              working on a common directory               *
           ************************************************************
-------------------------------------------------------------------------------
                                 ORCA SCF
-------------------------------------------------------------------------------

------------
SCF SETTINGS
------------
Hamiltonian:
 Density Functional     Method          .... DFT(GTOs)
 Exchange Functional    Exchange        .... B88
   X-Alpha parameter    XAlpha          ....  0.666667
   Becke's b parameter  XBeta           ....  0.004200
 Correlation Functional Correlation     .... LYP
 LDA part of GGA corr.  LDAOpt          .... VWN-5
 Gradients option       PostSCFGGA      .... off
 Hybrid DFT is turned on
   Fraction HF Exchange ScalHFX         ....  0.200000
   Scaling of DF-GGA-X  ScalDFX         ....  0.720000
   Scaling of DF-GGA-C  ScalDFC         ....  0.810000
   Scaling of DF-LDA-C  ScalLDAC        ....  1.000000
   Perturbative correction              ....  0.000000
   Density functional embedding theory  .... OFF
   NL short-range parameter             ....  4.800000
 RI-approximation to the Coulomb term is turned on
   Number of AuxJ basis functions       .... 895
   RIJ-COSX (HFX calculated with COS-X)).... on


General Settings:
 Integral files         IntName         .... opt
 Hartree-Fock type      HFTyp           .... UHF
 Total Charge           Charge          ....    1
 Multiplicity           Mult            ....    2
 Number of Electrons    NEL             ....  109
 Basis Dimension        Dim             ....  371
 Nuclear Repulsion      ENuc            ....    967.7059996692 Eh

Convergence Acceleration:
 DIIS                   CNVDIIS         .... on
   Start iteration      DIISMaxIt       ....    12
   Startup error        DIISStart       ....  0.200000
   # of expansion vecs  DIISMaxEq       ....     5
   Bias factor          DIISBfac        ....   1.050
   Max. coefficient     DIISMaxC        ....  10.000
 Trust-Rad. Augm. Hess. CNVTRAH         .... auto
   Auto Start mean grad. ratio tolernc. ....  1.125000
   Auto Start start iteration           ....    20
   Auto Start num. interpolation iter.  ....    10
   Max. Number of Micro iterations      ....    16
   Max. Number of Macro iterations      .... Maxiter - #DIIS iter
   Number of Davidson start vectors     ....     2
   Converg. threshold I  (grad. norm)   ....   1.000e-05
   Converg. threshold II (energy diff.) ....   1.000e-08
   Grad. Scal. Fac. for Micro threshold ....   0.100
   Minimum threshold for Micro iter.    ....   0.010
   NR start threshold (gradient norm)   ....   0.001
   Initial trust radius                 ....   0.400
   Minimum AH scaling param. (alpha)    ....   1.000
   Maximum AH scaling param. (alpha)    .... 1000.000
   Orbital update algorithm             .... Taylor
   White noise on init. David. guess    .... on
   Maximum white noise                  ....   0.010
   Quad. conv. algorithm                .... NR
 SOSCF                  CNVSOSCF        .... off
 Level Shifting         CNVShift        .... on
   Level shift para.    LevelShift      ....    0.2500
   Turn off err/grad.   ShiftErr        ....    0.0010
 Zerner damping         CNVZerner       .... off
 Static damping         CNVDamp         .... on
   Fraction old density DampFac         ....    0.7000
   Max. Damping (<1)    DampMax         ....    0.9800
   Min. Damping (>=0)   DampMin         ....    0.0000
   Turn off err/grad.   DampErr         ....    0.1000
 Fernandez-Rico         CNVRico         .... off

SCF Procedure:
 Maximum # iterations   MaxIter         ....   125
 SCF integral mode      SCFMode         .... Direct
   Integral package                     .... SHARK and LIBINT hybrid scheme
 Reset frequency        DirectResetFreq ....    20
 Integral Threshold     Thresh          ....  2.500e-11 Eh
 Primitive CutOff       TCut            ....  2.500e-12 Eh

Convergence Tolerance:
 Convergence Check Mode ConvCheckMode   .... Total+1el-Energy
 Convergence forced     ConvForced      .... 0
 Energy Change          TolE            ....  1.000e-08 Eh
 1-El. energy change                    ....  1.000e-05 Eh
 DIIS Error             TolErr          ....  5.000e-07


Diagonalization of the overlap matrix:
Smallest eigenvalue                        ... 8.069e-04
Time for diagonalization                   ...    0.014 sec
Threshold for overlap eigenvalues          ... 1.000e-08
Number of eigenvalues below threshold      ... 0
Time for construction of square roots      ...    0.012 sec
Total time needed                          ...    0.027 sec

Time for model grid setup =    0.118 sec

------------------------------
INITIAL GUESS: MODEL POTENTIAL
------------------------------
Loading Hartree-Fock densities                     ... done
Calculating cut-offs                               ... done
Initializing the effective Hamiltonian             ... done
Setting up the integral package (SHARK)            ... done
Starting the Coulomb interaction                   ... done (   0.0 sec)
Reading the grid                                   ... done
Mapping shells                                     ... done
Starting the XC term evaluation                    ... done (   0.0 sec)
  promolecular density results
     # of electrons  =    109.987238696
     EX              =    -88.098273701
     EC              =     -3.698147330
     EX+EC           =    -91.796421030
Transforming the Hamiltonian                       ... done (   0.0 sec)
Diagonalizing the Hamiltonian                      ... done (   0.0 sec)
Back transforming the eigenvectors                 ... done (   0.0 sec)
Now organizing SCF variables                       ... done
                      ------------------
                      INITIAL GUESS DONE (   0.3 sec)
                      ------------------
-------------------
DFT GRID GENERATION
-------------------

General Integration Accuracy     IntAcc      ... 4.388
Radial Grid Type                 RadialGrid  ... OptM3 with GC (2021)
Angular Grid (max. ang.)         AngularGrid ... 4 (Lebedev-302)
Angular grid pruning method      GridPruning ... 4 (adaptive)
Weight generation scheme         WeightScheme... Becke
Basis function cutoff            BFCut       ... 1.0000e-11
Integration weight cutoff        WCut        ... 1.0000e-14
Angular grids for H and He will be reduced by one unit
Partially contracted basis set               ... off
Rotationally invariant grid construction     ... off

Total number of grid points                  ...   144507
Total number of batches                      ...     2273
Average number of points per batch           ...       63
Average number of grid points per atom       ...     4379
Time for grid setup =    0.621 sec

--------------------
COSX GRID GENERATION
--------------------

GRIDX 1
-------
General Integration Accuracy     IntAcc      ... 3.816
Radial Grid Type                 RadialGrid  ... OptM3 with GC (2021)
Angular Grid (max. ang.)         AngularGrid ... 1 (Lebedev-50)
Angular grid pruning method      GridPruning ... 4 (adaptive)
Weight generation scheme         WeightScheme... Becke
Basis function cutoff            BFCut       ... 1.0000e-11
Integration weight cutoff        WCut        ... 1.0000e-14
Angular grids for H and He will be reduced by one unit
Partially contracted basis set               ... on
Rotationally invariant grid construction     ... off

Total number of grid points                  ...    18461
Total number of batches                      ...      310
Average number of points per batch           ...       59
Average number of grid points per atom       ...      559
UseSFitting                                  ... on

GRIDX 2
-------
General Integration Accuracy     IntAcc      ... 4.020
Radial Grid Type                 RadialGrid  ... OptM3 with GC (2021)
Angular Grid (max. ang.)         AngularGrid ... 2 (Lebedev-110)
Angular grid pruning method      GridPruning ... 4 (adaptive)
Weight generation scheme         WeightScheme... Becke
Basis function cutoff            BFCut       ... 1.0000e-11
Integration weight cutoff        WCut        ... 1.0000e-14
Angular grids for H and He will be reduced by one unit
Partially contracted basis set               ... on
Rotationally invariant grid construction     ... off

Total number of grid points                  ...    38895
Total number of batches                      ...      624
Average number of points per batch           ...       62
Average number of grid points per atom       ...     1179
UseSFitting                                  ... on

GRIDX 3
-------
General Integration Accuracy     IntAcc      ... 4.338
Radial Grid Type                 RadialGrid  ... OptM3 with GC (2021)
Angular Grid (max. ang.)         AngularGrid ... 3 (Lebedev-194)
Angular grid pruning method      GridPruning ... 4 (adaptive)
Weight generation scheme         WeightScheme... Becke
Basis function cutoff            BFCut       ... 1.0000e-11
Integration weight cutoff        WCut        ... 1.0000e-14
Angular grids for H and He will be reduced by one unit
Partially contracted basis set               ... on
Rotationally invariant grid construction     ... off

Total number of grid points                  ...    84731
Total number of batches                      ...     1343
Average number of points per batch           ...       63
Average number of grid points per atom       ...     2568
UseSFitting                                  ... on

Time for X-Grid setup             =    0.712 sec

--------------
SCF ITERATIONS
--------------
ITER       Energy         Delta-E        Max-DP      RMS-DP      [F,P]     Damp
               ***  Starting incremental Fock matrix formation  ***
  0   -668.1921102812   0.000000000000 0.05924620  0.00081453  0.1235407 0.7000
  1   -668.3926376436  -0.200527362333 0.03284388  0.00054822  0.0469332 0.7000
                               ***Turning on DIIS***
  2   -668.4673562818  -0.074718638185 0.04164676  0.00087485  0.0168182 0.0000
  3   -668.5900124083  -0.122656126582 0.02327099  0.00038672  0.0234262 0.0000
  4   -668.6155497261  -0.025537317709 0.00874078  0.00013272  0.0063523 0.0000
  5   -668.6169488204  -0.001399094393 0.00403419  0.00005008  0.0046892 0.0000
  6   -668.6172472902  -0.000298469757 0.00241012  0.00002922  0.0007559 0.0000
               *** Restarting incremental Fock matrix formation ***
                                   *** Resetting DIIS ***
  7   -668.6172861301  -0.000038839887 0.00189078  0.00001788  0.0005927 0.0000
  8   -668.6172713577   0.000014772358 0.00089072  0.00000746  0.0010625 0.0000
  9   -668.6172950683  -0.000023710601 0.00037475  0.00000412  0.0002414 0.0000
 10   -668.6172969545  -0.000001886196 0.00017086  0.00000138  0.0000710 0.0000
 11   -668.6172970344  -0.000000079919 0.00010094  0.00000079  0.0000947 0.0000
 12   -668.6172971182  -0.000000083773 0.00002580  0.00000030  0.0000224 0.0000
 13   -668.6172971148   0.000000003458 0.00001417  0.00000014  0.0000109 0.0000
 14   -668.6172971180  -0.000000003267 0.00000602  0.00000006  0.0000046 0.0000
 15   -668.6172971186  -0.000000000552 0.00000365  0.00000004  0.0000032 0.0000
                            ***DIIS convergence achieved***

               *****************************************************
               *                     SUCCESS                       *
               *           SCF CONVERGED AFTER  16 CYCLES          *
               *****************************************************

Old exchange energy                            =    -17.893776747 Eh
New exchange energy                            =    -17.893788699 Eh
Exchange energy change after final integration =     -0.000011952 Eh
Total energy after final integration           =   -668.617309069 Eh
Final COS-X integration done in                =     2.379 sec

----------------
TOTAL SCF ENERGY
----------------

Total Energy       :         -668.61730907 Eh          -18194.00194 eV

Components:
Nuclear Repulsion  :          967.70599967 Eh           26332.61898 eV
Electronic Energy  :        -1636.32330874 Eh          -44526.62092 eV
One Electron Energy:        -2814.29465376 Eh          -76580.85082 eV
Two Electron Energy:         1177.97134502 Eh           32054.22990 eV
Max COSX asymmetry :            0.00000152 Eh               0.00004 eV

Virial components:
Potential Energy   :        -1332.89239918 Eh          -36269.84611 eV
Kinetic Energy     :          664.27509012 Eh           18075.84416 eV
Virial Ratio       :            2.00653678


DFT components:
N(Alpha)           :       54.999969911188 electrons
N(Beta)            :       53.999942803224 electrons
N(Total)           :      108.999912714412 electrons
E(X)               :      -71.064345140762 Eh       
E(C)               :       -4.322277926318 Eh       
E(XC)              :      -75.386623067080 Eh       
DFET-embed. en.    :        0.000000000000 Eh       

---------------
SCF CONVERGENCE
---------------

  Last Energy change         ...    1.9762e-09  Tolerance :   1.0000e-08
  Last MAX-Density change    ...    0.0000e+00  Tolerance :   1.0000e-07
  Last RMS-Density change    ...    0.0000e+00  Tolerance :   5.0000e-09
  Last DIIS Error            ...    7.7098e-07  Tolerance :   5.0000e-07

             **** THE GBW FILE WAS UPDATED (opt.gbw) ****
             **** DENSITY opt.scfp WAS UPDATED ****
             **** ENERGY FILE WAS UPDATED (opt.en.tmp) ****
----------------------
UHF SPIN CONTAMINATION
----------------------

Warning: in a DFT calculation there is little theoretical justification to 
         calculate <S**2> as in Hartree-Fock theory. We will do it anyways
         but you should keep in mind that the values have only limited relevance

Expectation value of <S**2>     :     0.753990
Ideal value S*(S+1) for S=0.5   :     0.750000
Deviation                       :     0.003990

             **** THE GBW FILE WAS UPDATED (opt.gbw) ****
             **** DENSITY opt.scfp WAS UPDATED ****
----------------
ORBITAL ENERGIES
----------------
                 SPIN UP ORBITALS
  NO   OCC          E(Eh)            E(eV) 
   0   1.0000     -19.248291      -523.7726 
   1   1.0000     -19.224702      -523.1307 
   2   1.0000     -14.586902      -396.9298 
   3   1.0000     -14.485452      -394.1692 
   4   1.0000     -14.469500      -393.7351 
   5   1.0000     -10.428750      -283.7807 
   6   1.0000     -10.404791      -283.1288 
   7   1.0000     -10.398346      -282.9534 
   8   1.0000     -10.364033      -282.0197 
   9   1.0000     -10.342138      -281.4239 
  10   1.0000     -10.332325      -281.1569 
  11   1.0000     -10.327417      -281.0233 
  12   1.0000     -10.309722      -280.5418 
  13   1.0000     -10.302676      -280.3501 
  14   1.0000      -1.176951       -32.0265 
  15   1.0000      -1.157978       -31.5102 
  16   1.0000      -1.143907       -31.1273 
  17   1.0000      -1.056339       -28.7444 
  18   1.0000      -1.034602       -28.1529 
  19   1.0000      -0.948898       -25.8208 
  20   1.0000      -0.908848       -24.7310 
  21   1.0000      -0.861971       -23.4554 
  22   1.0000      -0.838831       -22.8257 
  23   1.0000      -0.801255       -21.8033 
  24   1.0000      -0.779490       -21.2110 
  25   1.0000      -0.740121       -20.1397 
  26   1.0000      -0.731377       -19.9018 
  27   1.0000      -0.715207       -19.4618 
  28   1.0000      -0.703899       -19.1541 
  29   1.0000      -0.692774       -18.8514 
  30   1.0000      -0.652071       -17.7438 
  31   1.0000      -0.648513       -17.6469 
  32   1.0000      -0.620087       -16.8734 
  33   1.0000      -0.600946       -16.3526 
  34   1.0000      -0.595782       -16.2120 
  35   1.0000      -0.582735       -15.8570 
  36   1.0000      -0.568238       -15.4626 
  37   1.0000      -0.563363       -15.3299 
  38   1.0000      -0.556236       -15.1359 
  39   1.0000      -0.553799       -15.0696 
  40   1.0000      -0.537060       -14.6142 
  41   1.0000      -0.532881       -14.5004 
  42   1.0000      -0.516380       -14.0514 
  43   1.0000      -0.512619       -13.9491 
  44   1.0000      -0.503666       -13.7055 
  45   1.0000      -0.493440       -13.4272 
  46   1.0000      -0.491360       -13.3706 
  47   1.0000      -0.485882       -13.2215 
  48   1.0000      -0.480880       -13.0854 
  49   1.0000      -0.469285       -12.7699 
  50   1.0000      -0.405409       -11.0318 
  51   1.0000      -0.399883       -10.8814 
  52   1.0000      -0.374763       -10.1978 
  53   1.0000      -0.366232        -9.9657 
  54   1.0000      -0.333634        -9.0786 
  55   0.0000      -0.141382        -3.8472 
  56   0.0000      -0.112293        -3.0557 
  57   0.0000      -0.098251        -2.6735 
  58   0.0000      -0.096989        -2.6392 
  59   0.0000      -0.086308        -2.3486 
  60   0.0000      -0.083458        -2.2710 
  61   0.0000      -0.067690        -1.8419 
  62   0.0000      -0.059953        -1.6314 
  63   0.0000      -0.054728        -1.4892 
  64   0.0000      -0.046700        -1.2708 
  65   0.0000      -0.031445        -0.8557 
  66   0.0000      -0.027660        -0.7527 
  67   0.0000      -0.017666        -0.4807 
  68   0.0000      -0.006785        -0.1846 
  69   0.0000       0.001132         0.0308 
  70   0.0000       0.007158         0.1948 
  71   0.0000       0.013307         0.3621 
  72   0.0000       0.030623         0.8333 
  73   0.0000       0.038317         1.0426 
  74   0.0000       0.047848         1.3020 
  75   0.0000       0.056283         1.5315 
  76   0.0000       0.064649         1.7592 
  77   0.0000       0.066338         1.8052 
  78   0.0000       0.073117         1.9896 
  79   0.0000       0.083165         2.2630 
  80   0.0000       0.086070         2.3421 
  81   0.0000       0.093566         2.5461 
  82   0.0000       0.099367         2.7039 
  83   0.0000       0.108001         2.9389 
  84   0.0000       0.108337         2.9480 
  85   0.0000       0.113280         3.0825 
  86   0.0000       0.121049         3.2939 
  87   0.0000       0.127872         3.4796 
  88   0.0000       0.130713         3.5569 
  89   0.0000       0.137253         3.7349 
  90   0.0000       0.140662         3.8276 
  91   0.0000       0.149747         4.0748 
  92   0.0000       0.154634         4.2078 
  93   0.0000       0.159157         4.3309 
  94   0.0000       0.168356         4.5812 
  95   0.0000       0.175625         4.7790 
  96   0.0000       0.182797         4.9742 
  97   0.0000       0.187955         5.1145 
  98   0.0000       0.192548         5.2395 
  99   0.0000       0.196812         5.3555 
 100   0.0000       0.203911         5.5487 
 101   0.0000       0.208806         5.6819 
 102   0.0000       0.212245         5.7755 
 103   0.0000       0.220830         6.0091 
 104   0.0000       0.228562         6.2195 
 105   0.0000       0.240732         6.5507 
 106   0.0000       0.247237         6.7277 
 107   0.0000       0.249383         6.7861 
 108   0.0000       0.261950         7.1280 
 109   0.0000       0.264305         7.1921 
 110   0.0000       0.283034         7.7017 
 111   0.0000       0.295073         8.0293 
 112   0.0000       0.300631         8.1806 
 113   0.0000       0.309139         8.4121 
 114   0.0000       0.319249         8.6872 
 115   0.0000       0.329396         8.9633 
 116   0.0000       0.337517         9.1843 
 117   0.0000       0.344715         9.3802 
 118   0.0000       0.358943         9.7673 
 119   0.0000       0.361957         9.8493 
 120   0.0000       0.368094        10.0163 
 121   0.0000       0.374796        10.1987 
 122   0.0000       0.381369        10.3776 
 123   0.0000       0.390955        10.6384 
 124   0.0000       0.416375        11.3301 
 125   0.0000       0.421259        11.4630 
 126   0.0000       0.433738        11.8026 
 127   0.0000       0.447038        12.1645 
 128   0.0000       0.480538        13.0761 
 129   0.0000       0.485639        13.2149 
 130   0.0000       0.493017        13.4157 
 131   0.0000       0.504181        13.7195 
 132   0.0000       0.515724        14.0335 
 133   0.0000       0.550837        14.9890 
 134   0.0000       0.569238        15.4898 
 135   0.0000       0.577791        15.7225 
 136   0.0000       0.591382        16.0923 
 137   0.0000       0.604256        16.4426 
 138   0.0000       0.627468        17.0743 
 139   0.0000       0.634992        17.2790 
 140   0.0000       0.667809        18.1720 
 141   0.0000       0.677221        18.4281 
 142   0.0000       0.683849        18.6085 
 143   0.0000       0.695419        18.9233 
 144   0.0000       0.712036        19.3755 
 145   0.0000       0.720825        19.6146 
 146   0.0000       0.722910        19.6714 
 147   0.0000       0.731891        19.9158 
 148   0.0000       0.736677        20.0460 
 149   0.0000       0.744236        20.2517 
 150   0.0000       0.745823        20.2949 
 151   0.0000       0.757931        20.6243 
 152   0.0000       0.764965        20.8157 
 153   0.0000       0.774644        21.0791 
 154   0.0000       0.781763        21.2728 
 155   0.0000       0.784588        21.3497 
 156   0.0000       0.790447        21.5092 
 157   0.0000       0.803883        21.8748 
 158   0.0000       0.816229        22.2107 
 159   0.0000       0.816921        22.2295 
 160   0.0000       0.818958        22.2850 
 161   0.0000       0.833401        22.6780 
 162   0.0000       0.843977        22.9658 
 163   0.0000       0.849165        23.1070 
 164   0.0000       0.853353        23.2209 
 165   0.0000       0.869846        23.6697 
 166   0.0000       0.873646        23.7731 
 167   0.0000       0.891834        24.2680 
 168   0.0000       0.906825        24.6760 
 169   0.0000       0.912335        24.8259 
 170   0.0000       0.927725        25.2447 
 171   0.0000       0.935275        25.4501 
 172   0.0000       0.950764        25.8716 
 173   0.0000       0.961885        26.1742 
 174   0.0000       0.977664        26.6036 
 175   0.0000       0.987624        26.8746 
 176   0.0000       1.007420        27.4133 
 177   0.0000       1.031789        28.0764 
 178   0.0000       1.040141        28.3037 
 179   0.0000       1.056381        28.7456 
 180   0.0000       1.063582        28.9415 
 181   0.0000       1.075100        29.2550 
 182   0.0000       1.078586        29.3498 
 183   0.0000       1.098368        29.8881 
 184   0.0000       1.114995        30.3406 
 185   0.0000       1.127389        30.6778 
 186   0.0000       1.142718        31.0949 
 187   0.0000       1.188006        32.3273 
 188   0.0000       1.206361        32.8267 
 189   0.0000       1.222575        33.2680 
 190   0.0000       1.227809        33.4104 
 191   0.0000       1.236208        33.6389 
 192   0.0000       1.258218        34.2379 
 193   0.0000       1.278340        34.7854 
 194   0.0000       1.287438        35.0330 
 195   0.0000       1.299551        35.3626 
 196   0.0000       1.300964        35.4010 
 197   0.0000       1.314718        35.7753 
 198   0.0000       1.323465        36.0133 
 199   0.0000       1.330680        36.2096 
 200   0.0000       1.339477        36.4490 
 201   0.0000       1.343632        36.5621 
 202   0.0000       1.363151        37.0932 
 203   0.0000       1.381578        37.5946 
 204   0.0000       1.385291        37.6957 
 205   0.0000       1.397653        38.0321 
 206   0.0000       1.401457        38.1356 
 207   0.0000       1.409035        38.3418 
 208   0.0000       1.422522        38.7088 
 209   0.0000       1.431001        38.9395 
 210   0.0000       1.447373        39.3850 
 211   0.0000       1.453479        39.5512 
 212   0.0000       1.467429        39.9308 
 213   0.0000       1.474526        40.1239 
 214   0.0000       1.485854        40.4321 
 215   0.0000       1.492429        40.6111 
 216   0.0000       1.504564        40.9413 
 217   0.0000       1.520268        41.3686 
 218   0.0000       1.535968        41.7958 
 219   0.0000       1.553115        42.2624 
 220   0.0000       1.555224        42.3198 
 221   0.0000       1.565138        42.5896 
 222   0.0000       1.582709        43.0677 
 223   0.0000       1.591143        43.2972 
 224   0.0000       1.597979        43.4832 
 225   0.0000       1.613289        43.8998 
 226   0.0000       1.615665        43.9645 
 227   0.0000       1.619988        44.0821 
 228   0.0000       1.631616        44.3985 
 229   0.0000       1.644795        44.7571 
 230   0.0000       1.655291        45.0428 
 231   0.0000       1.668374        45.3988 
 232   0.0000       1.676847        45.6293 
 233   0.0000       1.690515        46.0013 
 234   0.0000       1.707001        46.4499 
 235   0.0000       1.726964        46.9931 
 236   0.0000       1.745021        47.4844 
 237   0.0000       1.748581        47.5813 
 238   0.0000       1.777108        48.3576 
 239   0.0000       1.782574        48.5063 
 240   0.0000       1.796177        48.8765 
 241   0.0000       1.806077        49.1459 
 242   0.0000       1.833215        49.8843 
 243   0.0000       1.854683        50.4685 
 244   0.0000       1.873678        50.9854 
 245   0.0000       1.887517        51.3619 
 246   0.0000       1.897515        51.6340 
 247   0.0000       1.920098        52.2485 
 248   0.0000       1.923546        52.3424 
 249   0.0000       1.938894        52.7600 
 250   0.0000       1.944615        52.9157 
 251   0.0000       1.956762        53.2462 
 252   0.0000       1.992908        54.2298 
 253   0.0000       2.008991        54.6674 
 254   0.0000       2.011816        54.7443 
 255   0.0000       2.031294        55.2743 
 256   0.0000       2.061915        56.1076 
 257   0.0000       2.078517        56.5593 
 258   0.0000       2.087264        56.7974 
 259   0.0000       2.111102        57.4460 
 260   0.0000       2.117323        57.6153 
 261   0.0000       2.148490        58.4634 
 262   0.0000       2.162100        58.8337 
 263   0.0000       2.166455        58.9522 
 264   0.0000       2.183239        59.4090 
 265   0.0000       2.200520        59.8792 
 266   0.0000       2.219816        60.4043 
 267   0.0000       2.243559        61.0503 
 268   0.0000       2.261062        61.5266 
 269   0.0000       2.277843        61.9833 
 270   0.0000       2.286685        62.2239 
 271   0.0000       2.293249        62.4025 
 272   0.0000       2.299320        62.5677 
 273   0.0000       2.305610        62.7388 
 274   0.0000       2.335410        63.5497 
 275   0.0000       2.339281        63.6551 
 276   0.0000       2.352520        64.0153 
 277   0.0000       2.362210        64.2790 
 278   0.0000       2.384807        64.8939 
 279   0.0000       2.386243        64.9330 
 280   0.0000       2.395638        65.1886 
 281   0.0000       2.413622        65.6780 
 282   0.0000       2.428108        66.0722 
 283   0.0000       2.435072        66.2617 
 284   0.0000       2.452041        66.7234 
 285   0.0000       2.457325        66.8672 
 286   0.0000       2.504632        68.1545 
 287   0.0000       2.525611        68.7254 
 288   0.0000       2.556174        69.5570 
 289   0.0000       2.573426        70.0265 
 290   0.0000       2.583385        70.2975 
 291   0.0000       2.609908        71.0192 
 292   0.0000       2.633905        71.6722 
 293   0.0000       2.654192        72.2242 
 294   0.0000       2.661352        72.4191 
 295   0.0000       2.689478        73.1844 
 296   0.0000       2.722126        74.0728 
 297   0.0000       2.888743        78.6067 
 298   0.0000       2.917456        79.3880 
 299   0.0000       2.998367        81.5897 
 300   0.0000       3.047984        82.9399 
 301   0.0000       3.260880        88.7330 
 302   0.0000       3.319265        90.3218 
 303   0.0000       3.353599        91.2561 
 304   0.0000       3.407070        92.7111 
 305   0.0000       4.707507       128.0978 
 306   0.0000       4.851570       132.0179 
 307   0.0000       4.857341       132.1750 
 308   0.0000       4.872167       132.5784 
 309   0.0000       4.874849       132.6514 
 310   0.0000       4.899045       133.3098 
 311   0.0000       4.906985       133.5258 
 312   0.0000       4.915133       133.7476 
 313   0.0000       4.921688       133.9259 
 314   0.0000       4.948081       134.6441 
 315   0.0000       4.998567       136.0179 
 316   0.0000       5.036358       137.0463 
 317   0.0000       5.053970       137.5255 
 318   0.0000       5.074239       138.0771 
 319   0.0000       5.094183       138.6198 
 320   0.0000       5.126080       139.4877 
 321   0.0000       5.154712       140.2668 
 322   0.0000       5.186859       141.1416 
 323   0.0000       5.199252       141.4788 
 324   0.0000       5.217684       141.9804 
 325   0.0000       5.246246       142.7576 
 326   0.0000       5.256818       143.0453 
 327   0.0000       5.313141       144.5779 
 328   0.0000       5.452935       148.3819 
 329   0.0000       5.530090       150.4814 
 330   0.0000       5.604319       152.5013 
 331   0.0000       5.640518       153.4863 
 332   0.0000       5.699681       155.0962 
 333   0.0000       7.141627       194.3336 
 334   0.0000       7.203664       196.0217 
 335   0.0000       7.227931       196.6820 
 336   0.0000       8.950747       243.5622 
 337   0.0000       9.009003       245.1474 
 338   0.0000      29.449756       801.3686 
 339   0.0000      29.520522       803.2942 
 340   0.0000      29.625047       806.1385 
 341   0.0000      29.732694       809.0677 
 342   0.0000      29.830656       811.7334 
 343   0.0000      29.907485       813.8240 
 344   0.0000      29.974119       815.6372 
 345   0.0000      30.051719       817.7488 
 346   0.0000      30.094139       818.9032 
 347   0.0000      36.309106       988.0210 
 348   0.0000      36.464281       992.2435 
 349   0.0000      36.474413       992.5192 
 350   0.0000      36.491009       992.9708 
 351   0.0000      36.519129       993.7360 
 352   0.0000      36.521842       993.8099 
 353   0.0000      36.526223       993.9291 
 354   0.0000      36.528430       993.9891 
 355   0.0000      36.563293       994.9378 
 356   0.0000      36.595705       995.8198 
 357   0.0000      36.606040       996.1010 
 358   0.0000      36.636186       996.9213 
 359   0.0000      36.654468       997.4188 
 360   0.0000      36.695782       998.5430 
 361   0.0000      36.712976       999.0109 
 362   0.0000      36.740099       999.7489 
 363   0.0000      36.794582      1001.2315 
 364   0.0000      36.806212      1001.5479 
 365   0.0000      36.816320      1001.8230 
 366   0.0000      41.063370      1117.3911 
 367   0.0000      41.138546      1119.4367 
 368   0.0000      41.169151      1120.2696 
 369   0.0000      53.493646      1455.6361 
 370   0.0000      53.545359      1457.0433 

                 SPIN DOWN ORBITALS
  NO   OCC          E(Eh)            E(eV) 
   0   1.0000     -19.248074      -523.7667 
   1   1.0000     -19.224663      -523.1297 
   2   1.0000     -14.586899      -396.9297 
   3   1.0000     -14.483921      -394.1275 
   4   1.0000     -14.469254      -393.7284 
   5   1.0000     -10.428794      -283.7819 
   6   1.0000     -10.404718      -283.1268 
   7   1.0000     -10.398318      -282.9526 
   8   1.0000     -10.364775      -282.0399 
   9   1.0000     -10.341375      -281.4031 
  10   1.0000     -10.328229      -281.0454 
  11   1.0000     -10.318523      -280.7813 
  12   1.0000     -10.309725      -280.5419 
  13   1.0000     -10.302619      -280.3485 
  14   1.0000      -1.176343       -32.0099 
  15   1.0000      -1.157809       -31.5056 
  16   1.0000      -1.143849       -31.1257 
  17   1.0000      -1.053612       -28.6702 
  18   1.0000      -1.034095       -28.1392 
  19   1.0000      -0.943768       -25.6812 
  20   1.0000      -0.901770       -24.5384 
  21   1.0000      -0.857950       -23.3460 
  22   1.0000      -0.837991       -22.8029 
  23   1.0000      -0.797880       -21.7114 
  24   1.0000      -0.775867       -21.1124 
  25   1.0000      -0.738249       -20.0888 
  26   1.0000      -0.729258       -19.8441 
  27   1.0000      -0.713334       -19.4108 
  28   1.0000      -0.698372       -19.0037 
  29   1.0000      -0.686845       -18.6900 
  30   1.0000      -0.650948       -17.7132 
  31   1.0000      -0.647191       -17.6110 
  32   1.0000      -0.616783       -16.7835 
  33   1.0000      -0.597725       -16.2649 
  34   1.0000      -0.593651       -16.1541 
  35   1.0000      -0.580325       -15.7915 
  36   1.0000      -0.566145       -15.4056 
  37   1.0000      -0.562841       -15.3157 
  38   1.0000      -0.554976       -15.1017 
  39   1.0000      -0.551627       -15.0105 
  40   1.0000      -0.535265       -14.5653 
  41   1.0000      -0.530856       -14.4453 
  42   1.0000      -0.514982       -14.0134 
  43   1.0000      -0.510492       -13.8912 
  44   1.0000      -0.499367       -13.5885 
  45   1.0000      -0.492462       -13.4006 
  46   1.0000      -0.490530       -13.3480 
  47   1.0000      -0.484418       -13.1817 
  48   1.0000      -0.476632       -12.9698 
  49   1.0000      -0.467496       -12.7212 
  50   1.0000      -0.403075       -10.9682 
  51   1.0000      -0.396589       -10.7917 
  52   1.0000      -0.373746       -10.1702 
  53   1.0000      -0.365141        -9.9360 
  54   0.0000      -0.193013        -5.2521 
  55   0.0000      -0.141123        -3.8401 
  56   0.0000      -0.110695        -3.0122 
  57   0.0000      -0.097708        -2.6588 
  58   0.0000      -0.096642        -2.6298 
  59   0.0000      -0.085308        -2.3214 
  60   0.0000      -0.082249        -2.2381 
  61   0.0000      -0.065309        -1.7772 
  62   0.0000      -0.059301        -1.6137 
  63   0.0000      -0.053842        -1.4651 
  64   0.0000      -0.046045        -1.2529 
  65   0.0000      -0.029650        -0.8068 
  66   0.0000      -0.026571        -0.7230 
  67   0.0000      -0.016902        -0.4599 
  68   0.0000      -0.006570        -0.1788 
  69   0.0000       0.002272         0.0618 
  70   0.0000       0.008072         0.2197 
  71   0.0000       0.014979         0.4076 
  72   0.0000       0.031196         0.8489 
  73   0.0000       0.039713         1.0806 
  74   0.0000       0.050968         1.3869 
  75   0.0000       0.057683         1.5696 
  76   0.0000       0.065469         1.7815 
  77   0.0000       0.069636         1.8949 
  78   0.0000       0.074427         2.0253 
  79   0.0000       0.085060         2.3146 
  80   0.0000       0.087863         2.3909 
  81   0.0000       0.094273         2.5653 
  82   0.0000       0.102859         2.7989 
  83   0.0000       0.108329         2.9478 
  84   0.0000       0.109395         2.9768 
  85   0.0000       0.114562         3.1174 
  86   0.0000       0.123073         3.3490 
  87   0.0000       0.131322         3.5735 
  88   0.0000       0.131829         3.5872 
  89   0.0000       0.139424         3.7939 
  90   0.0000       0.142658         3.8819 
  91   0.0000       0.150966         4.1080 
  92   0.0000       0.155719         4.2373 
  93   0.0000       0.160778         4.3750 
  94   0.0000       0.169620         4.6156 
  95   0.0000       0.177424         4.8280 
  96   0.0000       0.185951         5.0600 
  97   0.0000       0.190213         5.1760 
  98   0.0000       0.194742         5.2992 
  99   0.0000       0.198532         5.4023 
 100   0.0000       0.206372         5.6157 
 101   0.0000       0.209250         5.6940 
 102   0.0000       0.213722         5.8157 
 103   0.0000       0.221740         6.0339 
 104   0.0000       0.231893         6.3101 
 105   0.0000       0.244163         6.6440 
 106   0.0000       0.249351         6.7852 
 107   0.0000       0.250343         6.8122 
 108   0.0000       0.265885         7.2351 
 109   0.0000       0.268626         7.3097 
 110   0.0000       0.285547         7.7701 
 111   0.0000       0.296807         8.0765 
 112   0.0000       0.302751         8.2383 
 113   0.0000       0.311142         8.4666 
 114   0.0000       0.328237         8.9318 
 115   0.0000       0.329893         8.9768 
 116   0.0000       0.339119         9.2279 
 117   0.0000       0.347253         9.4492 
 118   0.0000       0.362464         9.8632 
 119   0.0000       0.366676         9.9778 
 120   0.0000       0.369822        10.0634 
 121   0.0000       0.378757        10.3065 
 122   0.0000       0.382566        10.4101 
 123   0.0000       0.396926        10.8009 
 124   0.0000       0.418768        11.3952 
 125   0.0000       0.424212        11.5434 
 126   0.0000       0.437188        11.8965 
 127   0.0000       0.448491        12.2041 
 128   0.0000       0.482455        13.1283 
 129   0.0000       0.487840        13.2748 
 130   0.0000       0.496153        13.5010 
 131   0.0000       0.505949        13.7676 
 132   0.0000       0.518341        14.1048 
 133   0.0000       0.552454        15.0330 
 134   0.0000       0.570552        15.5255 
 135   0.0000       0.581982        15.8365 
 136   0.0000       0.592854        16.1324 
 137   0.0000       0.606352        16.4997 
 138   0.0000       0.628563        17.1041 
 139   0.0000       0.636427        17.3181 
 140   0.0000       0.669737        18.2245 
 141   0.0000       0.677821        18.4444 
 142   0.0000       0.685147        18.6438 
 143   0.0000       0.697397        18.9771 
 144   0.0000       0.713739        19.4218 
 145   0.0000       0.722268        19.6539 
 146   0.0000       0.725995        19.7553 
 147   0.0000       0.732413        19.9300 
 148   0.0000       0.738297        20.0901 
 149   0.0000       0.745910        20.2973 
 150   0.0000       0.747018        20.3274 
 151   0.0000       0.758915        20.6511 
 152   0.0000       0.766072        20.8459 
 153   0.0000       0.775139        21.0926 
 154   0.0000       0.782702        21.2984 
 155   0.0000       0.787153        21.4195 
 156   0.0000       0.792713        21.5708 
 157   0.0000       0.805094        21.9077 
 158   0.0000       0.817151        22.2358 
 159   0.0000       0.820121        22.3166 
 160   0.0000       0.820458        22.3258 
 161   0.0000       0.834162        22.6987 
 162   0.0000       0.848031        23.0761 
 163   0.0000       0.850327        23.1386 
 164   0.0000       0.855986        23.2926 
 165   0.0000       0.872974        23.7548 
 166   0.0000       0.875086        23.8123 
 167   0.0000       0.897299        24.4167 
 168   0.0000       0.907988        24.7076 
 169   0.0000       0.914069        24.8731 
 170   0.0000       0.929395        25.2901 
 171   0.0000       0.938518        25.5384 
 172   0.0000       0.953217        25.9383 
 173   0.0000       0.962484        26.1905 
 174   0.0000       0.982409        26.7327 
 175   0.0000       0.988354        26.8945 
 176   0.0000       1.007864        27.4254 
 177   0.0000       1.035567        28.1792 
 178   0.0000       1.041797        28.3487 
 179   0.0000       1.057337        28.7716 
 180   0.0000       1.065005        28.9803 
 181   0.0000       1.075808        29.2742 
 182   0.0000       1.079549        29.3760 
 183   0.0000       1.100670        29.9507 
 184   0.0000       1.117077        30.3972 
 185   0.0000       1.129520        30.7358 
 186   0.0000       1.146676        31.2026 
 187   0.0000       1.189298        32.3624 
 188   0.0000       1.213148        33.0114 
 189   0.0000       1.224573        33.3223 
 190   0.0000       1.229943        33.4685 
 191   0.0000       1.239508        33.7287 
 192   0.0000       1.260021        34.2869 
 193   0.0000       1.280192        34.8358 
 194   0.0000       1.293044        35.1855 
 195   0.0000       1.300333        35.3839 
 196   0.0000       1.305362        35.5207 
 197   0.0000       1.318722        35.8843 
 198   0.0000       1.324332        36.0369 
 199   0.0000       1.333001        36.2728 
 200   0.0000       1.340775        36.4843 
 201   0.0000       1.349823        36.7306 
 202   0.0000       1.365530        37.1580 
 203   0.0000       1.383676        37.6517 
 204   0.0000       1.386438        37.7269 
 205   0.0000       1.398021        38.0421 
 206   0.0000       1.402870        38.1740 
 207   0.0000       1.409863        38.3643 
 208   0.0000       1.425905        38.8009 
 209   0.0000       1.432584        38.9826 
 210   0.0000       1.449010        39.4296 
[...]
      py      :     0.997306
      dz2     :     0.028921  d :     0.190143
      dxz     :     0.052482
      dyz     :     0.047796
      dx2y2   :     0.018843
      dxy     :     0.042100
  8 N s       :     3.044033  s :     3.044033
      pz      :     1.189236  p :     3.589011
      px      :     1.199872
      py      :     1.199903
      dz2     :     0.005847  d :     0.050852
      dxz     :     0.014565
      dyz     :     0.013434
      dx2y2   :     0.003423
      dxy     :     0.013582
  9 H s       :     0.862601  s :     0.862601
      pz      :     0.034301  p :     0.081097
      px      :     0.016636
      py      :     0.030159
 10 H s       :     0.856646  s :     0.856646
      pz      :     0.022142  p :     0.083702
      px      :     0.043579
      py      :     0.017982
 11 H s       :     0.868720  s :     0.868720
      pz      :     0.021659  p :     0.082121
      px      :     0.020901
      py      :     0.039561
 12 H s       :     0.857785  s :     0.857785
      pz      :     0.022874  p :     0.082256
      px      :     0.038725
      py      :     0.020657
 13 H s       :     0.865829  s :     0.865829
      pz      :     0.021775  p :     0.082311
      px      :     0.037397
      py      :     0.023140
 14 H s       :     0.858499  s :     0.858499
      pz      :     0.021315  p :     0.081666
      px      :     0.024953
      py      :     0.035398
 15 H s       :     0.756970  s :     0.756970
      pz      :     0.039172  p :     0.131861
      px      :     0.044203
      py      :     0.048486
 16 H s       :     0.684509  s :     0.684509
      pz      :     0.043082  p :     0.219607
      px      :     0.074441
      py      :     0.102085
 17 H s       :     0.735806  s :     0.735806
      pz      :     0.047213  p :     0.157387
      px      :     0.030497
      py      :     0.079677
 18 C s       :     2.839845  s :     2.839845
      pz      :     0.871813  p :     2.743224
      px      :     1.000043
      py      :     0.871368
      dz2     :     0.121042  d :     0.477545
      dxz     :     0.081052
      dyz     :     0.086570
      dx2y2   :     0.089537
      dxy     :     0.099343
 19 N s       :     3.061915  s :     3.061915
      pz      :     1.441791  p :     3.800317
      px      :     1.165346
      py      :     1.193180
      dz2     :     0.009118  d :     0.081404
      dxz     :     0.014734
      dyz     :     0.007946
      dx2y2   :     0.024397
      dxy     :     0.025209
 20 H s       :     0.770721  s :     0.770721
      pz      :     0.042867  p :     0.146001
      px      :     0.040538
      py      :     0.062595
 21 O s       :     3.543172  s :     3.543172
      pz      :     1.564194  p :     4.672168
      px      :     1.654160
      py      :     1.453813
      dz2     :     0.003785  d :     0.027531
      dxz     :     0.003918
      dyz     :     0.008893
      dx2y2   :     0.004417
      dxy     :     0.006519
 22 H s       :     0.756496  s :     0.756496
      pz      :     0.049401  p :     0.130944
      px      :     0.042336
      py      :     0.039207
 23 C s       :     2.855434  s :     2.855434
      pz      :     1.000832  p :     2.961326
      px      :     1.023845
      py      :     0.936649
      dz2     :     0.033855  d :     0.154345
      dxz     :     0.024804
      dyz     :     0.035773
      dx2y2   :     0.018626
      dxy     :     0.041288
 24 H s       :     0.857585  s :     0.857585
      pz      :     0.016290  p :     0.084447
      px      :     0.036713
      py      :     0.031444
 25 H s       :     0.881933  s :     0.881933
      pz      :     0.023795  p :     0.079952
      px      :     0.035491
      py      :     0.020666
 26 H s       :     0.881387  s :     0.881387
      pz      :     0.044267  p :     0.080022
      px      :     0.019799
      py      :     0.015956
 27 C s       :     2.862989  s :     2.862989
      pz      :     1.039173  p :     3.047992
      px      :     0.976595
      py      :     1.032223
      dz2     :     0.023075  d :     0.105273
      dxz     :     0.012423
      dyz     :     0.016870
      dx2y2   :     0.024373
      dxy     :     0.028532
 28 H s       :     0.856080  s :     0.856080
      pz      :     0.017426  p :     0.082085
      px      :     0.028350
      py      :     0.036309
 29 H s       :     0.853867  s :     0.853867
      pz      :     0.046076  p :     0.082143
      px      :     0.016029
      py      :     0.020038
 30 H s       :     0.872002  s :     0.872002
      pz      :     0.028702  p :     0.082067
      px      :     0.019352
      py      :     0.034013
 31 H s       :     0.851631  s :     0.851631
      pz      :     0.042100  p :     0.082165
      px      :     0.022270
      py      :     0.017795
 32 H s       :     0.854603  s :     0.854603
      pz      :     0.051769  p :     0.091262
      px      :     0.024139
      py      :     0.015354

SPIN
  0 N s       :     0.010266  s :     0.010266
      pz      :     0.008811  p :     0.034999
      px      :     0.016051
      py      :     0.010136
      dz2     :    -0.000110  d :    -0.000305
      dxz     :    -0.000011
      dyz     :    -0.000057
      dx2y2   :    -0.000095
      dxy     :    -0.000032
  1 C s       :    -0.002684  s :    -0.002684
      pz      :    -0.004891  p :    -0.013670
      px      :     0.000732
      py      :    -0.009511
      dz2     :     0.002279  d :     0.032060
      dxz     :     0.008583
      dyz     :     0.001474
      dx2y2   :     0.009373
      dxy     :     0.010352
  2 C s       :     0.001243  s :     0.001243
      pz      :     0.000127  p :     0.003294
      px      :     0.000255
      py      :     0.002912
      dz2     :     0.000059  d :    -0.000467
      dxz     :    -0.000065
      dyz     :    -0.000226
      dx2y2   :    -0.000175
      dxy     :    -0.000060
  3 O s       :     0.000345  s :     0.000345
      pz      :    -0.001444  p :     0.002176
      px      :     0.001321
      py      :     0.002299
      dz2     :    -0.000001  d :     0.000018
      dxz     :     0.000000
      dyz     :     0.000003
      dx2y2   :     0.000013
      dxy     :     0.000002
  4 C s       :     0.032551  s :     0.032551
      pz      :     0.016188  p :     0.781898
      px      :     0.743023
      py      :     0.022687
      dz2     :    -0.001123  d :    -0.003094
      dxz     :     0.000185
      dyz     :    -0.001142
      dx2y2   :    -0.001229
      dxy     :     0.000215
  5 C s       :    -0.001954  s :    -0.001954
      pz      :    -0.003912  p :    -0.020346
      px      :    -0.004053
      py      :    -0.012382
      dz2     :     0.000873  d :     0.033767
      dxz     :     0.011872
      dyz     :     0.001104
      dx2y2   :     0.001432
      dxy     :     0.018486
  6 C s       :     0.009263  s :     0.009263
      pz      :     0.007673  p :     0.020372
      px      :     0.009551
      py      :     0.003148
      dz2     :    -0.000130  d :    -0.000621
      dxz     :    -0.000103
      dyz     :    -0.000148
      dx2y2   :    -0.000111
      dxy     :    -0.000129
  7 C s       :     0.000032  s :     0.000032
      pz      :     0.000336  p :     0.001802
      px      :     0.000412
      py      :     0.001054
      dz2     :     0.000092  d :     0.000375
      dxz     :    -0.000064
      dyz     :     0.000119
      dx2y2   :     0.000159
      dxy     :     0.000070
  8 N s       :     0.000116  s :     0.000116
      pz      :     0.000045  p :     0.000136
      px      :     0.000039
      py      :     0.000051
      dz2     :     0.000009  d :     0.000017
      dxz     :    -0.000007
      dyz     :    -0.000000
      dx2y2   :     0.000006
      dxy     :     0.000009
  9 H s       :     0.002214  s :     0.002214
      pz      :    -0.000238  p :    -0.000628
      px      :    -0.000075
      py      :    -0.000315
 10 H s       :     0.040289  s :     0.040289
      pz      :    -0.000292  p :    -0.000585
      px      :    -0.000663
      py      :     0.000371
 11 H s       :    -0.000445  s :    -0.000445
      pz      :     0.000104  p :     0.000775
      px      :     0.000615
      py      :     0.000056
 12 H s       :    -0.000906  s :    -0.000906
      pz      :     0.000233  p :     0.000863
      px      :     0.000591
      py      :     0.000038
 13 H s       :    -0.000024  s :    -0.000024
      pz      :     0.000008  p :     0.000150
      px      :     0.000074
      py      :     0.000068
 14 H s       :    -0.000054  s :    -0.000054
      pz      :     0.000132  p :     0.000209
      px      :     0.000059
      py      :     0.000018
 15 H s       :     0.000003  s :     0.000003
      pz      :     0.000006  p :    -0.000002
      px      :    -0.000005
      py      :    -0.000002
 16 H s       :     0.000005  s :     0.000005
      pz      :     0.000013  p :     0.000011
      px      :    -0.000000
      py      :    -0.000002
 17 H s       :    -0.000318  s :    -0.000318
      pz      :     0.000664  p :     0.001705
      px      :     0.000811
      py      :     0.000230
 18 C s       :    -0.000156  s :    -0.000156
      pz      :    -0.001616  p :    -0.001471
      px      :     0.000040
      py      :     0.000106
      dz2     :     0.000198  d :     0.002884
      dxz     :     0.000313
      dyz     :     0.000453
      dx2y2   :     0.001874
      dxy     :     0.000046
 19 N s       :     0.001279  s :     0.001279
      pz      :     0.002002  p :     0.007891
      px      :     0.000529
      py      :     0.005359
      dz2     :    -0.000010  d :     0.000038
      dxz     :    -0.000013
      dyz     :    -0.000010
      dx2y2   :     0.000064
      dxy     :     0.000007
 20 H s       :     0.000593  s :     0.000593
      pz      :     0.000277  p :     0.001505
      px      :     0.000063
      py      :     0.001165
 21 O s       :     0.000178  s :     0.000178
      pz      :     0.001258  p :     0.004803
      px      :     0.001976
      py      :     0.001569
      dz2     :    -0.000010  d :    -0.000016
      dxz     :     0.000000
      dyz     :    -0.000004
      dx2y2   :    -0.000008
      dxy     :     0.000005
 22 H s       :     0.000039  s :     0.000039
      pz      :     0.000007  p :     0.000011
      px      :     0.000004
      py      :    -0.000000
 23 C s       :    -0.000019  s :    -0.000019
      pz      :    -0.000186  p :    -0.000181
      px      :    -0.000054
      py      :     0.000059
      dz2     :     0.000228  d :     0.000471
      dxz     :     0.000139
      dyz     :    -0.000003
      dx2y2   :     0.000091
      dxy     :     0.000017
 24 H s       :     0.000326  s :     0.000326
      pz      :    -0.000010  p :    -0.000002
      px      :    -0.000008
      py      :     0.000015
 25 H s       :     0.000098  s :     0.000098
      pz      :    -0.000004  p :    -0.000005
      px      :    -0.000004
      py      :     0.000002
 26 H s       :     0.000293  s :     0.000293
      pz      :    -0.000008  p :    -0.000017
      px      :    -0.000002
      py      :    -0.000008
 27 C s       :     0.000517  s :     0.000517
      pz      :     0.000253  p :     0.001399
      px      :     0.001164
      py      :    -0.000018
      dz2     :    -0.000027  d :     0.000046
      dxz     :    -0.000012
      dyz     :    -0.000007
      dx2y2   :    -0.000015
      dxy     :     0.000107
 28 H s       :     0.000469  s :     0.000469
      pz      :     0.000017  p :     0.000046
      px      :     0.000032
      py      :    -0.000004
 29 H s       :    -0.000252  s :    -0.000252
      pz      :     0.000014  p :     0.000055
      px      :     0.000042
      py      :    -0.000001
 30 H s       :     0.000064  s :     0.000064
      pz      :     0.000005  p :     0.000026
      px      :     0.000004
      py      :     0.000017
 31 H s       :     0.008283  s :     0.008283
      pz      :    -0.000413  p :    -0.000825
      px      :    -0.000117
      py      :    -0.000296
 32 H s       :    -0.018720  s :    -0.018720
      pz      :     0.003451  p :     0.025499
      px      :     0.021598
      py      :     0.000450


                      *****************************
                      * MAYER POPULATION ANALYSIS *
                      *****************************

  NA   - Mulliken gross atomic population
  ZA   - Total nuclear charge
  QA   - Mulliken gross atomic charge
  VA   - Mayer's total valence
  BVA  - Mayer's bonded valence
  FA   - Mayer's free valence

  ATOM       NA         ZA         QA         VA         BVA        FA
  0 N      7.0606     7.0000    -0.0606     3.4122     3.4103     0.0019
  1 C      6.1146     6.0000    -0.1146     4.1641     4.1628     0.0014
  2 C      5.9284     6.0000     0.0716     4.0215     4.0214     0.0001
  3 O      8.3137     8.0000    -0.3137     2.1609     2.1609     0.0000
  4 C      6.1178     6.0000    -0.1178     3.9372     3.1849     0.7522
  5 C      6.2619     6.0000    -0.2619     3.9454     3.9429     0.0025
  6 C      6.2518     6.0000    -0.2518     3.8933     3.8923     0.0010
  7 C      6.2768     6.0000    -0.2768     3.8318     3.8317     0.0000
  8 N      7.3611     7.0000    -0.3611     3.4427     3.4427     0.0000
  9 H      0.8345     1.0000     0.1655     0.9634     0.9634     0.0000
 10 H      0.8432     1.0000     0.1568     0.9725     0.9701     0.0024
 11 H      0.8490     1.0000     0.1510     0.9715     0.9715     0.0000
 12 H      0.8204     1.0000     0.1796     0.9614     0.9614     0.0000
 13 H      0.8082     1.0000     0.1918     0.9462     0.9462     0.0000
 14 H      0.7932     1.0000     0.2068     0.9462     0.9462     0.0000
 15 H      0.6852     1.0000     0.3148     0.9050     0.9050    -0.0000
 16 H      0.6654     1.0000     0.3346     0.9419     0.9419     0.0000
 17 H      0.7269     1.0000     0.2731     0.9671     0.9671     0.0000
 18 C      5.8396     6.0000     0.1604     4.0341     4.0341    -0.0000
 19 N      7.0808     7.0000    -0.0808     3.2389     3.2387     0.0002
 20 H      0.7664     1.0000     0.2336     0.9603     0.9603     0.0000
 21 O      8.3448     8.0000    -0.3448     2.0370     2.0369     0.0000
 22 H      0.6887     1.0000     0.3113     0.9063     0.9063     0.0000
 23 C      6.4438     6.0000    -0.4438     3.8679     3.8679     0.0000
 24 H      0.7928     1.0000     0.2072     0.9607     0.9607     0.0000
 25 H      0.8242     1.0000     0.1758     0.9541     0.9541     0.0000
 26 H      0.8236     1.0000     0.1764     0.9542     0.9542     0.0000
 27 C      6.5282     6.0000    -0.5282     3.8375     3.8375     0.0000
 28 H      0.8085     1.0000     0.1915     0.9571     0.9571     0.0000
 29 H      0.8043     1.0000     0.1957     0.9561     0.9561     0.0000
 30 H      0.8308     1.0000     0.1692     0.9663     0.9663     0.0000
 31 H      0.8483     1.0000     0.1517     0.9552     0.9551     0.0001
 32 H      0.8625     1.0000     0.1375     0.9634     0.9604     0.0030

  Mayer bond orders larger than 0.100000
B(  0-N ,  1-C ) :   1.0110 B(  0-N , 17-H ) :   0.8659 B(  0-N , 18-C ) :   1.3796 
B(  1-C ,  2-C ) :   0.8945 B(  1-C ,  4-C ) :   1.0228 B(  1-C , 21-O ) :   0.1152 
B(  1-C , 31-H ) :   0.9596 B(  2-C ,  3-O ) :   1.8705 B(  2-C , 19-N ) :   1.2203 
B(  4-C ,  5-C ) :   1.0166 B(  4-C , 32-H ) :   0.9624 B(  5-C ,  6-C ) :   0.9450 
B(  5-C ,  9-H ) :   0.9630 B(  5-C , 10-H ) :   0.9428 B(  6-C ,  7-C ) :   0.9566 
B(  6-C , 11-H ) :   0.9656 B(  6-C , 12-H ) :   0.9617 B(  7-C ,  8-N ) :   0.9243 
B(  7-C , 13-H ) :   0.9531 B(  7-C , 14-H ) :   0.9474 B(  8-N , 15-H ) :   0.9009 
B(  8-N , 16-H ) :   0.7152 B(  8-N , 22-H ) :   0.9043 B( 16-H , 21-O ) :   0.1820 
B( 18-C , 21-O ) :   1.6333 B( 18-C , 27-C ) :   0.9315 B( 19-N , 20-H ) :   0.9266 
B( 19-N , 23-C ) :   0.9589 B( 23-C , 24-H ) :   0.9436 B( 23-C , 25-H ) :   0.9563 
B( 23-C , 26-H ) :   0.9542 B( 27-C , 28-H ) :   0.9469 B( 27-C , 29-H ) :   0.9451 
B( 27-C , 30-H ) :   0.9665 

-------
TIMINGS
-------

Total SCF time: 0 days 0 hours 0 min 16 sec 

Total time                  ....      16.456 sec
Sum of individual times     ....      15.598 sec  ( 94.8%)

Fock matrix formation       ....      13.432 sec  ( 81.6%)
  Split-RI-J                ....       1.069 sec  (  8.0% of F)
  Chain of spheres X        ....       9.452 sec  ( 70.4% of F)
  XC integration            ....       2.644 sec  ( 19.7% of F)
    Basis function eval.    ....       0.272 sec  ( 10.3% of XC)
    Density eval.           ....       0.388 sec  ( 14.7% of XC)
    XC-Functional eval.     ....       0.058 sec  (  2.2% of XC)
    XC-Potential eval.      ....       0.220 sec  (  8.3% of XC)
Diagonalization             ....       0.445 sec  (  2.7%)
Density matrix formation    ....       0.026 sec  (  0.2%)
Population analysis         ....       0.075 sec  (  0.5%)
Initial guess               ....       0.061 sec  (  0.4%)
Orbital Transformation      ....       0.000 sec  (  0.0%)
Orbital Orthonormalization  ....       0.043 sec  (  0.3%)
DIIS solution               ....       0.210 sec  (  1.3%)
Grid generation             ....       1.350 sec  (  8.2%)

Maximum memory used throughout the entire SCF-calculation: 86.3 MB

-------------------------   --------------------
FINAL SINGLE POINT ENERGY      -668.619555656279
-------------------------   --------------------

                                *** OPTIMIZATION RUN DONE ***

                            ***************************************
                            *     ORCA property calculations      *
                            ***************************************

                                    ---------------------
                                    Active property flags
                                    ---------------------
   (+) Dipole Moment


------------------------------------------------------------------------------
                       ORCA ELECTRIC PROPERTIES CALCULATION
------------------------------------------------------------------------------

Dipole Moment Calculation                       ... on
Quadrupole Moment Calculation                   ... off
Polarizability Calculation                      ... off
GBWName                                         ... opt.gbw
Electron density                                ... opt.scfp
The origin for moment calculation is the CENTER OF MASS  = (-12.390427,  4.278746  0.566591)

-------------
DIPOLE MOMENT
-------------
                                X             Y             Z
Electronic contribution:     -2.92599      -5.52581       0.95555
Nuclear contribution   :      4.06053       8.73655      -3.12713
                        -----------------------------------------
Total Dipole Moment    :      1.13455       3.21074      -2.17158
                        -----------------------------------------
Magnitude (a.u.)       :      4.03879
Magnitude (Debye)      :     10.26579



--------------------
Rotational spectrum 
--------------------
 
Rotational constants in cm-1:     0.027127     0.014227     0.010242 
Rotational constants in MHz :   813.261796   426.524177   307.059305 

 Dipole components along the rotational axes: 
x,y,z [a.u.] :     3.526427     1.782153    -0.836709 
x,y,z [Debye]:     8.963464     4.529874    -2.126746 

 

Timings for individual modules:

Sum of individual times         ...     1022.606 sec (=  17.043 min)
GTO integral calculation        ...       80.707 sec (=   1.345 min)   7.9 %
SCF iterations                  ...      688.018 sec (=  11.467 min)  67.3 %
SCF Gradient evaluation         ...      252.408 sec (=   4.207 min)  24.7 %
Geometry relaxation             ...        1.473 sec (=   0.025 min)   0.1 %
                             ****ORCA TERMINATED NORMALLY****
TOTAL RUN TIME: 0 days 0 hours 18 minutes 15 seconds 811 msec
