
                                 *****************
                                 * O   R   C   A *
                                 *****************

                                            #,                                       
                                            ###                                      
                                            ####                                     
                                            #####                                    
                                            ######                                   
                                           ########,                                 
                                     ,,################,,,,,                         
                               ,,#################################,,                 
                          ,,##########################################,,             
                       ,#########################################, ''#####,          
                    ,#############################################,,   '####,        
                  ,##################################################,,,,####,       
                ,###########''''           ''''###############################       
              ,#####''   ,,,,##########,,,,          '''####'''          '####       
            ,##' ,,,,###########################,,,                        '##       
           ' ,,###''''                  '''############,,,                           
         ,,##''                                '''############,,,,        ,,,,,,###''
      ,#''                                            '''#######################'''  
     '                                                          ''''####''''         
             ,#######,   #######,   ,#######,      ##                                
            ,#'     '#,  ##    ##  ,#'     '#,    #''#        ######   ,####,        
            ##       ##  ##   ,#'  ##            #'  '#       #        #'  '#        
            ##       ##  #######   ##           ,######,      #####,   #    #        
            '#,     ,#'  ##    ##  '#,     ,#' ,#      #,         ##   #,  ,#        
             '#######'   ##     ##  '#######'  #'      '#     #####' # '####'        



                  #######################################################
                  #                        -***-                        #
                  #          Department of theory and spectroscopy      #
                  #    Directorship and core code : Frank Neese         #
                  #        Max Planck Institute fuer Kohlenforschung    #
                  #                Kaiser Wilhelm Platz 1               #
                  #                 D-45470 Muelheim/Ruhr               #
                  #                      Germany                        #
                  #                                                     #
                  #                  All rights reserved                #
                  #                        -***-                        #
                  #######################################################


                         Program Version 5.0.4 -  RELEASE  -


 With contributions from (in alphabetic order):
   Daniel Aravena         : Magnetic Suceptibility
   Michael Atanasov       : Ab Initio Ligand Field Theory (pilot matlab implementation)
   Alexander A. Auer      : GIAO ZORA, VPT2 properties, NMR spectrum
   Ute Becker             : Parallelization
   Giovanni Bistoni       : ED, misc. LED, open-shell LED, HFLD
   Martin Brehm           : Molecular dynamics
   Dmytro Bykov           : SCF Hessian
   Vijay G. Chilkuri      : MRCI spin determinant printing, contributions to CSF-ICE
   Dipayan Datta          : RHF DLPNO-CCSD density
   Achintya Kumar Dutta   : EOM-CC, STEOM-CC
   Dmitry Ganyushin       : Spin-Orbit,Spin-Spin,Magnetic field MRCI
   Miquel Garcia          : C-PCM and meta-GGA Hessian, CC/C-PCM, Gaussian charge scheme
   Yang Guo               : DLPNO-NEVPT2, F12-NEVPT2, CIM, IAO-localization
   Andreas Hansen         : Spin unrestricted coupled pair/coupled cluster methods
   Benjamin Helmich-Paris : MC-RPA, TRAH-SCF, COSX integrals
   Lee Huntington         : MR-EOM, pCC
   Robert Izsak           : Overlap fitted RIJCOSX, COSX-SCS-MP3, EOM
   Marcus Kettner         : VPT2
   Christian Kollmar      : KDIIS, OOCD, Brueckner-CCSD(T), CCSD density, CASPT2, CASPT2-K
   Simone Kossmann        : Meta GGA functionals, TD-DFT gradient, OOMP2, MP2 Hessian
   Martin Krupicka        : Initial AUTO-CI
   Lucas Lang             : DCDCAS
   Marvin Lechner         : AUTO-CI (C++ implementation), FIC-MRCC
   Dagmar Lenk            : GEPOL surface, SMD
   Dimitrios Liakos       : Extrapolation schemes; Compound Job, initial MDCI parallelization
   Dimitrios Manganas     : Further ROCIS development; embedding schemes
   Dimitrios Pantazis     : SARC Basis sets
   Anastasios Papadopoulos: AUTO-CI, single reference methods and gradients
   Taras Petrenko         : DFT Hessian,TD-DFT gradient, ASA, ECA, R-Raman, ABS, FL, XAS/XES, NRVS
   Peter Pinski           : DLPNO-MP2, DLPNO-MP2 Gradient
   Christoph Reimann      : Effective Core Potentials
   Marius Retegan         : Local ZFS, SOC
   Christoph Riplinger    : Optimizer, TS searches, QM/MM, DLPNO-CCSD(T), (RO)-DLPNO pert. Triples
   Tobias Risthaus        : Range-separated hybrids, TD-DFT gradient, RPA, STAB
   Michael Roemelt        : Original ROCIS implementation
   Masaaki Saitow         : Open-shell DLPNO-CCSD energy and density
   Barbara Sandhoefer     : DKH picture change effects
   Avijit Sen             : IP-ROCIS
   Kantharuban Sivalingam : CASSCF convergence, NEVPT2, FIC-MRCI
   Bernardo de Souza      : ESD, SOC TD-DFT
   Georgi Stoychev        : AutoAux, RI-MP2 NMR, DLPNO-MP2 response
   Willem Van den Heuvel  : Paramagnetic NMR
   Boris Wezisla          : Elementary symmetry handling
   Frank Wennmohs         : Technical directorship


 We gratefully acknowledge several colleagues who have allowed us to
 interface, adapt or use parts of their codes:
   Stefan Grimme, W. Hujo, H. Kruse, P. Pracht,  : VdW corrections, initial TS optimization,
                  C. Bannwarth, S. Ehlert          DFT functionals, gCP, sTDA/sTD-DF
   Ed Valeev, F. Pavosevic, A. Kumar             : LibInt (2-el integral package), F12 methods
   Garnet Chan, S. Sharma, J. Yang, R. Olivares  : DMRG
   Ulf Ekstrom                                   : XCFun DFT Library
   Mihaly Kallay                                 : mrcc  (arbitrary order and MRCC methods)
   Jiri Pittner, Ondrej Demel                    : Mk-CCSD
   Frank Weinhold                                : gennbo (NPA and NBO analysis)
   Christopher J. Cramer and Donald G. Truhlar   : smd solvation model
   Lars Goerigk                                  : TD-DFT with DH, B97 family of functionals
   V. Asgeirsson, H. Jonsson                     : NEB implementation
   FAccTs GmbH                                   : IRC, NEB, NEB-TS, DLPNO-Multilevel, CI-OPT
                                                   MM, QMMM, 2- and 3-layer-ONIOM, Crystal-QMMM,
                                                   LR-CPCM, SF, NACMEs, symmetry and pop. for TD-DFT,
                                                   nearIR, NL-DFT gradient (VV10), updates on ESD,
                                                   ML-optimized integration grids
   S Lehtola, MJT Oliveira, MAL Marques          : LibXC Library
   Liviu Ungur et al                             : ANISO software


 Your calculation uses the libint2 library for the computation of 2-el integrals
 For citations please refer to: http://libint.valeyev.net

 Your ORCA version has been built with support for libXC version: 5.1.0
 For citations please refer to: https://tddft.org/programs/libxc/

 This ORCA versions uses:
   CBLAS   interface :  Fast vector & matrix operations
   LAPACKE interface :  Fast linear algebra routines
   SCALAPACK package :  Parallel linear algebra routines
   Shared memory     :  Shared parallel matrices
   BLAS/LAPACK       :  OpenBLAS 0.3.15  USE64BITINT DYNAMIC_ARCH NO_AFFINITY Zen SINGLE_THREADED
        Core in use  :  Zen
   Copyright (c) 2011-2014, The OpenBLAS Project




***************************************
The coordinates will be read from file: opt.xyz
***************************************


================================================================================

----- Orbital basis set information -----
Your calculation utilizes the basis: EPR-II
   V. Barone, in Recent Advances in Density Functional Methods, Part 1 (ed. D. P. Chong), World Scientific, Singapore, 1995, p. 287.

----- AuxJ basis set information -----
Your calculation utilizes the AutoAux generation procedure.
  G. L. Stoychev, A. A. Auer, F. Neese, J. Chem. Theory Comput. 13, 554 (2017)

----- AuxC basis set information -----
Your calculation utilizes the AutoAux generation procedure.
  G. L. Stoychev, A. A. Auer, F. Neese, J. Chem. Theory Comput. 13, 554 (2017)

----- AuxJK basis set information -----
Your calculation utilizes the AutoAux generation procedure.
  G. L. Stoychev, A. A. Auer, F. Neese, J. Chem. Theory Comput. 13, 554 (2017)

================================================================================
                                        WARNINGS
                       Please study these warnings very carefully!
================================================================================


WARNING: your system is open-shell and RHF/RKS was chosen
  ===> : WILL SWITCH to UHF/UKS


INFO   : the flag for use of the SHARK integral package has been found!

================================================================================
                                       INPUT FILE
================================================================================
NAME = epr_info.inp
|  1> ! B3LYP EPR-II AUTOAUX
|  2> %pal nprocs 16 end
|  3> *XYZFile 1 2 opt.xyz
|  4> %EPRNMR
|  5>         GTENSOR   TRUE
|  6>         NUCLEI    = 9,10,16,30,31,32,33 {SHIFT, AISO, ADIP, AORB}
|  7>         ORI       GIAO
|  8> END
|  9> 
| 10>                          ****END OF INPUT****
================================================================================

                       ****************************
                       * Single Point Calculation *
                       ****************************

---------------------------------
CARTESIAN COORDINATES (ANGSTROEM)
---------------------------------
  N     -7.877822    0.868081    0.069798
  C     -6.446808    0.881222    0.175807
  C     -6.112596    0.859714    1.684091
  O     -6.890456    1.371222    2.490157
  C     -5.761349    2.129137   -0.519886
  C     -6.182959    3.485647    0.052513
  C     -5.539998    4.616540   -0.778935
  C     -6.021734    6.023916   -0.243127
  N     -5.455340    7.100302   -0.996140
  H     -5.853674    7.359766   -1.890585
  H     -8.383843    1.137654    0.909474
  C     -8.538825    0.533321   -1.104459
  N     -4.925612    0.290700    2.011777
  H     -4.413769   -0.195659    1.288829
  O     -7.893841    0.278941   -2.117906
  H     -4.489297    7.368281   -0.850836
  C     -4.478392    0.132906    3.398599
  H     -4.696129   -0.873968    3.769004
  H     -3.402475    0.313082    3.456881
  H     -5.008880    0.857811    4.015584
  C    -10.053034    0.484525   -1.034380
  H    -10.463890    0.932778   -1.940942
  H    -10.360476   -0.566264   -1.015388
  H    -10.460539    0.984245   -0.152376
  H     -6.055080    0.008472   -0.360192
  H     -4.677062    1.996200   -0.440467
  H     -6.027440    2.045483   -1.579102
  H     -5.882787    3.584280    1.100923
  H     -7.274453    3.578607    0.021471
  H     -4.447681    4.577103   -0.713422
  H     -5.817493    4.528532   -1.834544
  H     -5.721622    6.120131    0.804710
  H     -7.111711    6.075265   -0.311696

----------------------------
CARTESIAN COORDINATES (A.U.)
----------------------------
  NO LB      ZA    FRAG     MASS         X           Y           Z
   0 N     7.0000    0    14.007  -14.886926    1.640435    0.131899
   1 C     6.0000    0    12.011  -12.182702    1.665269    0.332227
   2 C     6.0000    0    12.011  -11.551132    1.624623    3.182471
   3 O     8.0000    0    15.999  -13.021074    2.591234    4.705715
   4 C     6.0000    0    12.011  -10.887372    4.023485   -0.982443
   5 C     6.0000    0    12.011  -11.684099    6.586917    0.099235
   6 C     6.0000    0    12.011  -10.469080    8.723997   -1.471975
   7 C     6.0000    0    12.011  -11.379428   11.383552   -0.459444
   8 N     7.0000    0    14.007  -10.309099   13.417626   -1.882431
   9 H     1.0000    0     1.008  -11.061841   13.907942   -3.572688
  10 H     1.0000    0     1.008  -15.843167    2.149855    1.718657
  11 C     6.0000    0    12.011  -16.136040    1.007830   -2.087124
  12 N     7.0000    0    14.007   -9.308057    0.549344    3.801709
  13 H     1.0000    0     1.008   -8.340815   -0.369741    2.435534
  14 O     8.0000    0    15.999  -14.917198    0.527122   -4.002263
  15 H     1.0000    0     1.008   -8.483542   13.924033   -1.607846
  16 C     6.0000    0    12.011   -8.462934    0.251155    6.422421
  17 H     1.0000    0     1.008   -8.874398   -1.651561    7.122385
  18 H     1.0000    0     1.008   -6.429745    0.591639    6.532559
  19 H     1.0000    0     1.008   -9.465412    1.621028    7.588353
  20 C     6.0000    0    12.011  -18.997481    0.915620   -1.954695
  21 H     1.0000    0     1.008  -19.773886    1.762696   -3.667849
  22 H     1.0000    0     1.008  -19.578461   -1.070084   -1.918805
  23 H     1.0000    0     1.008  -19.767554    1.859953   -0.287949
  24 H     1.0000    0     1.008  -11.442443    0.016009   -0.680664
  25 H     1.0000    0     1.008   -8.838366    3.772270   -0.832363
  26 H     1.0000    0     1.008  -11.390211    3.865402   -2.984070
  27 H     1.0000    0     1.008  -11.116856    6.773307    2.080442
  28 H     1.0000    0     1.008  -13.746724    6.762586    0.040575
  29 H     1.0000    0     1.008   -8.404898    8.649471   -1.348173
  30 H     1.0000    0     1.008  -10.993469    8.557685   -3.466785
  31 H     1.0000    0     1.008  -10.812299   11.565371    1.520681
  32 H     1.0000    0     1.008  -13.439186   11.480587   -0.589020

--------------------------------
INTERNAL COORDINATES (ANGSTROEM)
--------------------------------
 N      0   0   0     0.000000000000     0.00000000     0.00000000
 C      1   0   0     1.434995049227     0.00000000     0.00000000
 C      2   1   0     1.545018317142   106.72066532     0.00000000
 O      3   2   1     1.231442099476   119.77436884   330.09771403
 C      2   1   3     1.584655608781   113.96259112   238.07322563
 C      5   2   1     1.531507549666   114.47855582    60.69337967
 C      6   5   2     1.543899604019   109.44307312   184.57562298
 C      7   6   5     1.581096496559   110.03669578   177.28318145
 N      8   7   6     1.430536686930   111.76155593   180.47649863
 H      9   8   7     1.012928175360   120.12255967    80.14595852
 H      1   2   3     1.016751333313   115.64965220    18.35960636
 C      1   2   3     1.388476863760   122.64462307   197.27907153
 N      3   2   1     1.356497413129   115.52778269   151.93821715
 H     13   3   2     1.010535563577   118.18225238   351.02609239
 O     12   1   2     1.227920773350   119.86033909   357.43387621
 H      9   8   7     1.012998720328   120.07435605   283.84080813
 C     13   3   2     1.465666715791   122.73363550   182.77483345
 H     17  13   3     1.094716703571   111.00728721    97.29105507
 H     17  13   3     1.092454862462   109.46527757   217.96244269
 H     17  13   3     1.089759536668   108.39447684   337.76520441
 C     12   1   2     1.516615081504   116.35854655   176.43146729
 H     21  12   1     1.091599171030   108.91687073   138.88422938
 H     21  12   1     1.095006309846   108.17968344   255.59142936
 H     21  12   1     1.092570895200   113.26427409    16.12364294
 H      2   1   3     1.096557608888   108.23074736   121.76208462
 H      5   2   1     1.095289296463   107.50579237   184.07504732
 H      5   2   1     1.095326486697   105.02957390   298.39657323
 H      6   5   2     1.094986035321   111.23346963    63.32085089
 H      6   5   2     1.095885272372   109.79981008   305.06422237
 H      7   6   5     1.094991138373   110.90584527   297.22065542
 H      7   6   5     1.095014945134   110.77810065    57.02848839
 H      8   7   6     1.094205719839   108.61612926    59.90333717
 H      8   7   6     1.093338237235   108.92314218   301.02967335

---------------------------
INTERNAL COORDINATES (A.U.)
---------------------------
 N      0   0   0     0.000000000000     0.00000000     0.00000000
 C      1   0   0     2.711747646571     0.00000000     0.00000000
 C      2   1   0     2.919661491290   106.72066532     0.00000000
 O      3   2   1     2.327088317791   119.77436884   330.09771403
 C      2   1   3     2.994565117179   113.96259112   238.07322563
 C      5   2   1     2.894129840902   114.47855582    60.69337967
 C      6   5   2     2.917547429866   109.44307312   184.57562298
 C      7   6   5     2.987839369799   110.03669578   177.28318145
 N      8   7   6     2.703322562825   111.76155593   180.47649863
 H      9   8   7     1.914156844762   120.12255967    80.14595852
 H      1   2   3     1.921381566261   115.64965220    18.35960636
 C      1   2   3     2.623841015792   122.64462307   197.27907153
 N      3   2   1     2.563408612187   115.52778269   151.93821715
 H     13   3   2     1.909635463748   118.18225238   351.02609239
 O     12   1   2     2.320433975785   119.86033909   357.43387621
 H      9   8   7     1.914290155433   120.07435605   283.84080813
 C     13   3   2     2.769708696449   122.73363550   182.77483345
 H     17  13   3     2.068714763978   111.00728721    97.29105507
 H     17  13   3     2.064440503723   109.46527757   217.96244269
 H     17  13   3     2.059347076132   108.39447684   337.76520441
 C     12   1   2     2.865987154618   116.35854655   176.43146729
 H     21  12   1     2.062823481263   108.91687073   138.88422938
 H     21  12   1     2.069262040525   108.17968344   255.59142936
 H     21  12   1     2.064659773821   113.26427409    16.12364294
 H      2   1   3     2.072193570865   108.23074736   121.76208462
 H      5   2   1     2.069796807730   107.50579237   184.07504732
 H      5   2   1     2.069867087088   105.02957390   298.39657323
 H      6   5   2     2.069223727224   111.23346963    63.32085089
 H      6   5   2     2.070923038981   109.79981008   305.06422237
 H      7   6   5     2.069233370595   110.90584527   297.22065542
 H      7   6   5     2.069278358854   110.77810065    57.02848839
 H      8   7   6     2.067749144666   108.61612926    59.90333717
 H      8   7   6     2.066109840119   108.92314218   301.02967335

---------------------
BASIS SET INFORMATION
---------------------
There are 4 groups of distinct atoms

 Group   1 Type N   : 10s5p1d contracted to 6s2p1d pattern {511111/41/1}
 Group   2 Type C   : 10s5p1d contracted to 6s2p1d pattern {511111/41/1}
 Group   3 Type O   : 10s5p1d contracted to 6s2p1d pattern {511111/41/1}
 Group   4 Type H   : 6s1p contracted to 4s1p pattern {3111/1}

Atom   0N    basis set group =>   1
Atom   1C    basis set group =>   2
Atom   2C    basis set group =>   2
Atom   3O    basis set group =>   3
Atom   4C    basis set group =>   2
Atom   5C    basis set group =>   2
Atom   6C    basis set group =>   2
Atom   7C    basis set group =>   2
Atom   8N    basis set group =>   1
Atom   9H    basis set group =>   4
Atom  10H    basis set group =>   4
Atom  11C    basis set group =>   2
Atom  12N    basis set group =>   1
Atom  13H    basis set group =>   4
Atom  14O    basis set group =>   3
Atom  15H    basis set group =>   4
Atom  16C    basis set group =>   2
Atom  17H    basis set group =>   4
Atom  18H    basis set group =>   4
Atom  19H    basis set group =>   4
Atom  20C    basis set group =>   2
Atom  21H    basis set group =>   4
Atom  22H    basis set group =>   4
Atom  23H    basis set group =>   4
Atom  24H    basis set group =>   4
Atom  25H    basis set group =>   4
Atom  26H    basis set group =>   4
Atom  27H    basis set group =>   4
Atom  28H    basis set group =>   4
Atom  29H    basis set group =>   4
Atom  30H    basis set group =>   4
Atom  31H    basis set group =>   4
Atom  32H    basis set group =>   4
---------------------------------
AUXILIARY/J BASIS SET INFORMATION
---------------------------------
There are 4 groups of distinct atoms

 Group   1 Type N   : 17s13p12d2f contracted to 17s13p12d2f pattern {11111111111111111/1111111111111/111111111111/11}
 Group   2 Type C   : 17s13p12d2f contracted to 17s13p12d2f pattern {11111111111111111/1111111111111/111111111111/11}
 Group   3 Type O   : 17s13p12d2f contracted to 17s13p12d2f pattern {11111111111111111/1111111111111/111111111111/11}
 Group   4 Type H   : 15s6p1d contracted to 15s6p1d pattern {111111111111111/111111/1}

Atom   0N    basis set group =>   1
Atom   1C    basis set group =>   2
Atom   2C    basis set group =>   2
Atom   3O    basis set group =>   3
Atom   4C    basis set group =>   2
Atom   5C    basis set group =>   2
Atom   6C    basis set group =>   2
Atom   7C    basis set group =>   2
Atom   8N    basis set group =>   1
Atom   9H    basis set group =>   4
Atom  10H    basis set group =>   4
Atom  11C    basis set group =>   2
Atom  12N    basis set group =>   1
Atom  13H    basis set group =>   4
Atom  14O    basis set group =>   3
Atom  15H    basis set group =>   4
Atom  16C    basis set group =>   2
Atom  17H    basis set group =>   4
Atom  18H    basis set group =>   4
Atom  19H    basis set group =>   4
Atom  20C    basis set group =>   2
Atom  21H    basis set group =>   4
Atom  22H    basis set group =>   4
Atom  23H    basis set group =>   4
Atom  24H    basis set group =>   4
Atom  25H    basis set group =>   4
Atom  26H    basis set group =>   4
Atom  27H    basis set group =>   4
Atom  28H    basis set group =>   4
Atom  29H    basis set group =>   4
Atom  30H    basis set group =>   4
Atom  31H    basis set group =>   4
Atom  32H    basis set group =>   4
---------------------------------
AUXILIARY/C BASIS SET INFORMATION
---------------------------------
There are 4 groups of distinct atoms

 Group   1 Type N   : 17s13p12d2f contracted to 17s13p12d2f pattern {11111111111111111/1111111111111/111111111111/11}
 Group   2 Type C   : 17s13p12d2f contracted to 17s13p12d2f pattern {11111111111111111/1111111111111/111111111111/11}
 Group   3 Type O   : 17s13p12d2f contracted to 17s13p12d2f pattern {11111111111111111/1111111111111/111111111111/11}
 Group   4 Type H   : 15s6p1d contracted to 15s6p1d pattern {111111111111111/111111/1}

Atom   0N    basis set group =>   1
Atom   1C    basis set group =>   2
Atom   2C    basis set group =>   2
Atom   3O    basis set group =>   3
Atom   4C    basis set group =>   2
Atom   5C    basis set group =>   2
Atom   6C    basis set group =>   2
Atom   7C    basis set group =>   2
Atom   8N    basis set group =>   1
Atom   9H    basis set group =>   4
Atom  10H    basis set group =>   4
Atom  11C    basis set group =>   2
Atom  12N    basis set group =>   1
Atom  13H    basis set group =>   4
Atom  14O    basis set group =>   3
Atom  15H    basis set group =>   4
Atom  16C    basis set group =>   2
Atom  17H    basis set group =>   4
Atom  18H    basis set group =>   4
Atom  19H    basis set group =>   4
Atom  20C    basis set group =>   2
Atom  21H    basis set group =>   4
Atom  22H    basis set group =>   4
Atom  23H    basis set group =>   4
Atom  24H    basis set group =>   4
Atom  25H    basis set group =>   4
Atom  26H    basis set group =>   4
Atom  27H    basis set group =>   4
Atom  28H    basis set group =>   4
Atom  29H    basis set group =>   4
Atom  30H    basis set group =>   4
Atom  31H    basis set group =>   4
Atom  32H    basis set group =>   4
----------------------------------
AUXILIARY/JK BASIS SET INFORMATION
----------------------------------
There are 4 groups of distinct atoms

 Group   1 Type N   : 17s13p12d2f contracted to 17s13p12d2f pattern {11111111111111111/1111111111111/111111111111/11}
 Group   2 Type C   : 17s13p12d2f contracted to 17s13p12d2f pattern {11111111111111111/1111111111111/111111111111/11}
 Group   3 Type O   : 17s13p12d2f contracted to 17s13p12d2f pattern {11111111111111111/1111111111111/111111111111/11}
 Group   4 Type H   : 15s6p1d contracted to 15s6p1d pattern {111111111111111/111111/1}

Atom   0N    basis set group =>   1
Atom   1C    basis set group =>   2
Atom   2C    basis set group =>   2
Atom   3O    basis set group =>   3
Atom   4C    basis set group =>   2
Atom   5C    basis set group =>   2
Atom   6C    basis set group =>   2
Atom   7C    basis set group =>   2
Atom   8N    basis set group =>   1
Atom   9H    basis set group =>   4
Atom  10H    basis set group =>   4
Atom  11C    basis set group =>   2
Atom  12N    basis set group =>   1
Atom  13H    basis set group =>   4
Atom  14O    basis set group =>   3
Atom  15H    basis set group =>   4
Atom  16C    basis set group =>   2
Atom  17H    basis set group =>   4
Atom  18H    basis set group =>   4
Atom  19H    basis set group =>   4
Atom  20C    basis set group =>   2
Atom  21H    basis set group =>   4
Atom  22H    basis set group =>   4
Atom  23H    basis set group =>   4
Atom  24H    basis set group =>   4
Atom  25H    basis set group =>   4
Atom  26H    basis set group =>   4
Atom  27H    basis set group =>   4
Atom  28H    basis set group =>   4
Atom  29H    basis set group =>   4
Atom  30H    basis set group =>   4
Atom  31H    basis set group =>   4
Atom  32H    basis set group =>   4


           ************************************************************
           *        Program running with 16 parallel MPI-processes    *
           *              working on a common directory               *
           ************************************************************
------------------------------------------------------------------------------
                           ORCA GTO INTEGRAL CALCULATION
                           -- RI-GTO INTEGRALS CHOSEN --
------------------------------------------------------------------------------
------------------------------------------------------------------------------
                   ___                                                        
                  /   \      - P O W E R E D   B Y -                         
                 /     \                                                     
                 |  |  |   _    _      __       _____    __    __             
                 |  |  |  | |  | |    /  \     |  _  \  |  |  /  |          
                  \  \/   | |  | |   /    \    | | | |  |  | /  /          
                 / \  \   | |__| |  /  /\  \   | |_| |  |  |/  /          
                |  |  |   |  __  | /  /__\  \  |    /   |      \           
                |  |  |   | |  | | |   __   |  |    \   |  |\   \          
                \     /   | |  | | |  |  |  |  | |\  \  |  | \   \       
                 \___/    |_|  |_| |__|  |__|  |_| \__\ |__|  \__/        
                                                                              
                      - O R C A' S   B I G   F R I E N D -                    
                                      &                                       
                       - I N T E G R A L  F E E D E R -                       
                                                                              
 v1 FN, 2020, v2 2021                                                         
------------------------------------------------------------------------------


Reading SHARK input file epr_info.SHARKINP.tmp ... ok
----------------------
SHARK INTEGRAL PACKAGE
----------------------

Number of atoms                             ...     33
Number of basis functions                   ...    371
Number of shells                            ...    221
Maximum angular momentum                    ...      2
Integral batch strategy                     ... SHARK/LIBINT Hybrid
RI-J (if used) integral strategy            ... SPLIT-RIJ (Revised 2003 algorithm where possible)
Printlevel                                  ...      1
Contraction scheme used                     ... SEGMENTED contraction
Coulomb Range Separation                    ... NOT USED
Exchange Range Separation                   ... NOT USED
Finite Nucleus Model                        ... NOT USED
Auxiliary Coulomb fitting basis             ... AVAILABLE
   # of basis functions in Aux-J            ...   2542
   # of shells in Aux-J                     ...   1034
   Maximum angular momentum in Aux-J        ...      3
Auxiliary J/K fitting basis                 ... AVAILABLE
   # of basis functions in Aux-JK           ...   2542
   # of shells in Aux-JK                    ...   1034
   Maximum angular momentum in Aux-JK       ...      3
Auxiliary Correlation fitting basis         ... AVAILABLE
   # of basis functions in Aux-C            ...   2542
   # of shells in Aux-C                     ...   1034
   Maximum angular momentum in Aux-C        ...      3
Auxiliary 'external' fitting basis          ... NOT available
Integral threshold                          ...     1.000000e-10
Primitive cut-off                           ...     1.000000e-11
Primitive pair pre-selection threshold      ...     1.000000e-11

Calculating pre-screening integrals         ... done (  0.0 sec) Dimension = 221
Organizing shell pair data                  ... done (  0.0 sec)
Shell pair information
Total number of shell pairs                 ...     24531
Shell pairs after pre-screening             ...     15566
Total number of primitive shell pairs       ...     64184
Primitive shell pairs kept                  ...     29493
          la=0 lb=0:   7366 shell pairs
          la=1 lb=0:   5304 shell pairs
          la=1 lb=1:    909 shell pairs
          la=2 lb=0:   1404 shell pairs
          la=2 lb=1:    503 shell pairs
          la=2 lb=2:     80 shell pairs

Calculating one electron integrals          ... done (  0.0 sec)
Calculating RI/J V-Matrix + Cholesky decomp.... done (  0.3 sec)
Calculating RI/JK V-Matrix + Cholesky decomp... done (  0.4 sec)
Calculating RI/C V-Matrix + Cholesky decomp.... done (  0.3 sec)
Calculating Nuclear repulsion               ... done (  0.0 sec) ENN=    931.164790344700 Eh

SHARK setup successfully completed in   1.2 seconds

Maximum memory used throughout the entire GTOINT-calculation: 28.8 MB


           ************************************************************
           *        Program running with 16 parallel MPI-processes    *
           *              working on a common directory               *
           ************************************************************
-------------------------------------------------------------------------------
                                 ORCA SCF
-------------------------------------------------------------------------------

------------
SCF SETTINGS
------------
Hamiltonian:
 Density Functional     Method          .... DFT(GTOs)
 Exchange Functional    Exchange        .... B88
   X-Alpha parameter    XAlpha          ....  0.666667
   Becke's b parameter  XBeta           ....  0.004200
 Correlation Functional Correlation     .... LYP
 LDA part of GGA corr.  LDAOpt          .... VWN-5
 Gradients option       PostSCFGGA      .... off
 Hybrid DFT is turned on
   Fraction HF Exchange ScalHFX         ....  0.200000
   Scaling of DF-GGA-X  ScalDFX         ....  0.720000
   Scaling of DF-GGA-C  ScalDFC         ....  0.810000
   Scaling of DF-LDA-C  ScalLDAC        ....  1.000000
   Perturbative correction              ....  0.000000
   Density functional embedding theory  .... OFF
   NL short-range parameter             ....  4.800000
 RI-approximation to the Coulomb term is turned on
   Number of AuxJ basis functions       .... 2542
   RIJ-COSX (HFX calculated with COS-X)).... on


General Settings:
 Integral files         IntName         .... epr_info
 Hartree-Fock type      HFTyp           .... UHF
 Total Charge           Charge          ....    1
 Multiplicity           Mult            ....    2
 Number of Electrons    NEL             ....  109
 Basis Dimension        Dim             ....  371
 Nuclear Repulsion      ENuc            ....    931.1647903447 Eh

Convergence Acceleration:
 DIIS                   CNVDIIS         .... on
   Start iteration      DIISMaxIt       ....    12
   Startup error        DIISStart       ....  0.200000
   # of expansion vecs  DIISMaxEq       ....     5
   Bias factor          DIISBfac        ....   1.050
   Max. coefficient     DIISMaxC        ....  10.000
 Trust-Rad. Augm. Hess. CNVTRAH         .... auto
   Auto Start mean grad. ratio tolernc. ....  1.125000
   Auto Start start iteration           ....    20
   Auto Start num. interpolation iter.  ....    10
   Max. Number of Micro iterations      ....    16
   Max. Number of Macro iterations      .... Maxiter - #DIIS iter
   Number of Davidson start vectors     ....     2
   Converg. threshold I  (grad. norm)   ....   5.000e-05
   Converg. threshold II (energy diff.) ....   1.000e-06
   Grad. Scal. Fac. for Micro threshold ....   0.100
   Minimum threshold for Micro iter.    ....   0.010
   NR start threshold (gradient norm)   ....   0.001
   Initial trust radius                 ....   0.400
   Minimum AH scaling param. (alpha)    ....   1.000
   Maximum AH scaling param. (alpha)    .... 1000.000
   Orbital update algorithm             .... Taylor
   White noise on init. David. guess    .... on
   Maximum white noise                  ....   0.010
   Quad. conv. algorithm                .... NR
 SOSCF                  CNVSOSCF        .... off
 Level Shifting         CNVShift        .... on
   Level shift para.    LevelShift      ....    0.2500
   Turn off err/grad.   ShiftErr        ....    0.0010
 Zerner damping         CNVZerner       .... off
 Static damping         CNVDamp         .... on
   Fraction old density DampFac         ....    0.7000
   Max. Damping (<1)    DampMax         ....    0.9800
   Min. Damping (>=0)   DampMin         ....    0.0000
   Turn off err/grad.   DampErr         ....    0.1000
 Fernandez-Rico         CNVRico         .... off

SCF Procedure:
 Maximum # iterations   MaxIter         ....   125
 SCF integral mode      SCFMode         .... Direct
   Integral package                     .... SHARK and LIBINT hybrid scheme
 Reset frequency        DirectResetFreq ....    20
 Integral Threshold     Thresh          ....  1.000e-10 Eh
 Primitive CutOff       TCut            ....  1.000e-11 Eh

Convergence Tolerance:
 Convergence Check Mode ConvCheckMode   .... Total+1el-Energy
 Convergence forced     ConvForced      .... 0
 Energy Change          TolE            ....  1.000e-06 Eh
 1-El. energy change                    ....  1.000e-03 Eh
 DIIS Error             TolErr          ....  1.000e-06


Diagonalization of the overlap matrix:
Smallest eigenvalue                        ... 1.089e-03
Time for diagonalization                   ...    0.015 sec
Threshold for overlap eigenvalues          ... 1.000e-08
Number of eigenvalues below threshold      ... 0
Time for construction of square roots      ...    0.011 sec
Total time needed                          ...    0.027 sec

Time for model grid setup =    0.116 sec

------------------------------
INITIAL GUESS: MODEL POTENTIAL
------------------------------
Loading Hartree-Fock densities                     ... done
Calculating cut-offs                               ... done
Initializing the effective Hamiltonian             ... done
Setting up the integral package (SHARK)            ... done
Starting the Coulomb interaction                   ... done (   0.0 sec)
Reading the grid                                   ... done
Mapping shells                                     ... done
Starting the XC term evaluation                    ... done (   0.0 sec)
  promolecular density results
     # of electrons  =    109.995620629
     EX              =    -88.041557173
     EC              =     -3.685189454
     EX+EC           =    -91.726746627
Transforming the Hamiltonian                       ... done (   0.0 sec)
Diagonalizing the Hamiltonian                      ... done (   0.0 sec)
Back transforming the eigenvectors                 ... done (   0.0 sec)
Now organizing SCF variables                       ... done
                      ------------------
                      INITIAL GUESS DONE (   0.3 sec)
                      ------------------
-------------------
DFT GRID GENERATION
-------------------

General Integration Accuracy     IntAcc      ... 4.388
Radial Grid Type                 RadialGrid  ... OptM3 with GC (2021)
Angular Grid (max. ang.)         AngularGrid ... 4 (Lebedev-302)
Angular grid pruning method      GridPruning ... 4 (adaptive)
Weight generation scheme         WeightScheme... Becke
Basis function cutoff            BFCut       ... 1.0000e-10
Integration weight cutoff        WCut        ... 1.0000e-14
Angular grids for H and He will be reduced by one unit
Partially contracted basis set               ... off
Rotationally invariant grid construction     ... off

Total number of grid points                  ...   144729
Total number of batches                      ...     2279
Average number of points per batch           ...       63
Average number of grid points per atom       ...     4386
Time for grid setup =    0.602 sec

--------------------
COSX GRID GENERATION
--------------------

GRIDX 1
-------
General Integration Accuracy     IntAcc      ... 3.816
Radial Grid Type                 RadialGrid  ... OptM3 with GC (2021)
Angular Grid (max. ang.)         AngularGrid ... 1 (Lebedev-50)
Angular grid pruning method      GridPruning ... 4 (adaptive)
Weight generation scheme         WeightScheme... Becke
Basis function cutoff            BFCut       ... 1.0000e-10
Integration weight cutoff        WCut        ... 1.0000e-14
Angular grids for H and He will be reduced by one unit
Partially contracted basis set               ... on
Rotationally invariant grid construction     ... off

Total number of grid points                  ...    18464
Total number of batches                      ...      312
Average number of points per batch           ...       59
Average number of grid points per atom       ...      560
UseSFitting                                  ... on

GRIDX 2
-------
General Integration Accuracy     IntAcc      ... 4.020
Radial Grid Type                 RadialGrid  ... OptM3 with GC (2021)
Angular Grid (max. ang.)         AngularGrid ... 2 (Lebedev-110)
Angular grid pruning method      GridPruning ... 4 (adaptive)
Weight generation scheme         WeightScheme... Becke
Basis function cutoff            BFCut       ... 1.0000e-10
Integration weight cutoff        WCut        ... 1.0000e-14
Angular grids for H and He will be reduced by one unit
Partially contracted basis set               ... on
Rotationally invariant grid construction     ... off

Total number of grid points                  ...    38973
Total number of batches                      ...      624
Average number of points per batch           ...       62
Average number of grid points per atom       ...     1181
UseSFitting                                  ... on

GRIDX 3
-------
General Integration Accuracy     IntAcc      ... 4.338
Radial Grid Type                 RadialGrid  ... OptM3 with GC (2021)
Angular Grid (max. ang.)         AngularGrid ... 3 (Lebedev-194)
Angular grid pruning method      GridPruning ... 4 (adaptive)
Weight generation scheme         WeightScheme... Becke
Basis function cutoff            BFCut       ... 1.0000e-10
Integration weight cutoff        WCut        ... 1.0000e-14
Angular grids for H and He will be reduced by one unit
Partially contracted basis set               ... on
Rotationally invariant grid construction     ... off

Total number of grid points                  ...    85038
Total number of batches                      ...     1345
Average number of points per batch           ...       63
Average number of grid points per atom       ...     2577
UseSFitting                                  ... on

Time for X-Grid setup             =    0.703 sec

--------------
SCF ITERATIONS
--------------
ITER       Energy         Delta-E        Max-DP      RMS-DP      [F,P]     Damp
               ***  Starting incremental Fock matrix formation  ***
  0   -668.1629856196   0.000000000000 0.06820309  0.00085358  0.1261782 0.7000
  1   -668.3689997661  -0.206014146486 0.04317809  0.00057672  0.0479658 0.7000
                               ***Turning on DIIS***
  2   -668.4428031398  -0.073803373744 0.05912987  0.00088114  0.0185252 0.0000
  3   -668.5645948875  -0.121791747655 0.03061516  0.00044356  0.0260695 0.0000
  4   -668.5911440970  -0.026549209482 0.01061410  0.00015411  0.0101597 0.0000
  5   -668.5931155288  -0.001971431822 0.00480640  0.00005744  0.0063048 0.0000
  6   -668.5935106369  -0.000395108097 0.00186906  0.00002095  0.0012873 0.0000
  7   -668.5935439123  -0.000033275403 0.00323755  0.00003388  0.0007093 0.0000
               *** Restarting incremental Fock matrix formation ***
                                   *** Resetting DIIS ***
  8   -668.5935776890  -0.000033776743 0.00271210  0.00002181  0.0010424 0.0000
  9   -668.5935767694   0.000000919640 0.00076337  0.00000698  0.0014092 0.0000
 10   -668.5935977006  -0.000020931198 0.00099130  0.00001282  0.0006640 0.0000
 11   -668.5936098419  -0.000012141291 0.00063214  0.00000733  0.0001860 0.0000
 12   -668.5936110511  -0.000001209195 0.00046477  0.00000491  0.0002234 0.0000
 13   -668.5936127827  -0.000001731634 0.00046442  0.00000379  0.0001571 0.0000
 14   -668.5936126298   0.000000152927 0.00048904  0.00000519  0.0001641 0.0000
 15   -668.5936137605  -0.000001130715 0.00030272  0.00000275  0.0000566 0.0000
                 **** Energy Check signals convergence ****

               *****************************************************
               *                     SUCCESS                       *
               *           SCF CONVERGED AFTER  16 CYCLES          *
               *****************************************************

Old exchange energy                            =    -17.853580273 Eh
New exchange energy                            =    -17.853597406 Eh
Exchange energy change after final integration =     -0.000017133 Eh
Total energy after final integration           =   -668.593631175 Eh
Final COS-X integration done in                =     2.212 sec

----------------
TOTAL SCF ENERGY
----------------

Total Energy       :         -668.59363118 Eh          -18193.35764 eV

Components:
Nuclear Repulsion  :          931.16479034 Eh           25338.28212 eV
Electronic Energy  :        -1599.75842152 Eh          -43531.63976 eV
One Electron Energy:        -2741.25678112 Eh          -74593.38927 eV
Two Electron Energy:         1141.49835960 Eh           31061.74951 eV
Max COSX asymmetry :            0.00000107 Eh               0.00003 eV

Virial components:
Potential Energy   :        -1332.57415766 Eh          -36261.18631 eV
Kinetic Energy     :          663.98052648 Eh           18067.82868 eV
Virial Ratio       :            2.00694765


DFT components:
N(Alpha)           :       55.000068271512 electrons
N(Beta)            :       54.000070051258 electrons
N(Total)           :      109.000138322770 electrons
E(X)               :      -70.981728083355 Eh       
E(C)               :       -4.314987894336 Eh       
E(XC)              :      -75.296715977691 Eh       
DFET-embed. en.    :        0.000000000000 Eh       

---------------
SCF CONVERGENCE
---------------

  Last Energy change         ...   -2.8225e-07  Tolerance :   1.0000e-06
  Last MAX-Density change    ...    0.0000e+00  Tolerance :   1.0000e-05
  Last RMS-Density change    ...    0.0000e+00  Tolerance :   1.0000e-06
  Last DIIS Error            ...    3.4739e-05  Tolerance :   1.0000e-06

             **** THE GBW FILE WAS UPDATED (epr_info.gbw) ****
             **** DENSITY epr_info.scfp WAS UPDATED ****
             **** ENERGY FILE WAS UPDATED (epr_info.en.tmp) ****
----------------------
UHF SPIN CONTAMINATION
----------------------

Warning: in a DFT calculation there is little theoretical justification to 
         calculate <S**2> as in Hartree-Fock theory. We will do it anyways
         but you should keep in mind that the values have only limited relevance

Expectation value of <S**2>     :     0.755703
Ideal value S*(S+1) for S=0.5   :     0.750000
Deviation                       :     0.005703

             **** THE GBW FILE WAS UPDATED (epr_info.gbw) ****
             **** DENSITY epr_info.scfp WAS UPDATED ****
----------------
ORBITAL ENERGIES
----------------
                 SPIN UP ORBITALS
  NO   OCC          E(Eh)            E(eV) 
   0   1.0000     -19.249790      -523.8134 
   1   1.0000     -19.249045      -523.7931 
   2   1.0000     -14.540651      -395.6712 
   3   1.0000     -14.509813      -394.8321 
   4   1.0000     -14.498130      -394.5142 
   5   1.0000     -10.429313      -283.7960 
   6   1.0000     -10.425894      -283.7030 
   7   1.0000     -10.383636      -282.5531 
   8   1.0000     -10.381109      -282.4843 
   9   1.0000     -10.344178      -281.4794 
  10   1.0000     -10.333784      -281.1966 
  11   1.0000     -10.328341      -281.0484 
  12   1.0000     -10.328000      -281.0392 
  13   1.0000     -10.300658      -280.2952 
  14   1.0000      -1.176315       -32.0092 
  15   1.0000      -1.167022       -31.7563 
  16   1.0000      -1.087738       -29.5989 
  17   1.0000      -1.065694       -28.9990 
  18   1.0000      -1.054563       -28.6961 
  19   1.0000      -0.945879       -25.7387 
  20   1.0000      -0.903581       -24.5877 
  21   1.0000      -0.857784       -23.3415 
  22   1.0000      -0.842744       -22.9322 
  23   1.0000      -0.809816       -22.0362 
  24   1.0000      -0.771548       -20.9949 
  25   1.0000      -0.741326       -20.1725 
  26   1.0000      -0.719836       -19.5877 
  27   1.0000      -0.707340       -19.2477 
  28   1.0000      -0.706307       -19.2196 
  29   1.0000      -0.666046       -18.1240 
  30   1.0000      -0.634710       -17.2713 
  31   1.0000      -0.615599       -16.7513 
  32   1.0000      -0.611640       -16.6436 
  33   1.0000      -0.601988       -16.3809 
  34   1.0000      -0.594787       -16.1850 
  35   1.0000      -0.580479       -15.7956 
  36   1.0000      -0.571190       -15.5429 
  37   1.0000      -0.564987       -15.3741 
  38   1.0000      -0.556319       -15.1382 
  39   1.0000      -0.548277       -14.9194 
  40   1.0000      -0.533684       -14.5223 
  41   1.0000      -0.527310       -14.3488 
  42   1.0000      -0.512923       -13.9573 
  43   1.0000      -0.510250       -13.8846 
  44   1.0000      -0.508500       -13.8370 
  45   1.0000      -0.504699       -13.7336 
  46   1.0000      -0.494270       -13.4498 
  47   1.0000      -0.489319       -13.3150 
  48   1.0000      -0.478575       -13.0227 
  49   1.0000      -0.472887       -12.8679 
  50   1.0000      -0.433965       -11.8088 
  51   1.0000      -0.409086       -11.1318 
  52   1.0000      -0.397540       -10.8176 
  53   1.0000      -0.386470       -10.5164 
  54   1.0000      -0.385652       -10.4941 
  55   0.0000      -0.121611        -3.3092 
  56   0.0000      -0.115207        -3.1349 
  57   0.0000      -0.105496        -2.8707 
  58   0.0000      -0.099105        -2.6968 
  59   0.0000      -0.090213        -2.4548 
  60   0.0000      -0.077035        -2.0962 
  61   0.0000      -0.071301        -1.9402 
  62   0.0000      -0.063049        -1.7157 
  63   0.0000      -0.037396        -1.0176 
  64   0.0000      -0.034133        -0.9288 
  65   0.0000      -0.028477        -0.7749 
  66   0.0000      -0.022050        -0.6000 
  67   0.0000      -0.010765        -0.2929 
  68   0.0000      -0.002615        -0.0712 
  69   0.0000      -0.000596        -0.0162 
  70   0.0000       0.018720         0.5094 
  71   0.0000       0.027701         0.7538 
  72   0.0000       0.037374         1.0170 
  73   0.0000       0.044373         1.2074 
  74   0.0000       0.051022         1.3884 
  75   0.0000       0.051812         1.4099 
  76   0.0000       0.058182         1.5832 
  77   0.0000       0.068481         1.8634 
  78   0.0000       0.072776         1.9803 
  79   0.0000       0.079343         2.1590 
  80   0.0000       0.080068         2.1788 
  81   0.0000       0.085680         2.3315 
  82   0.0000       0.089252         2.4287 
  83   0.0000       0.093026         2.5314 
  84   0.0000       0.095424         2.5966 
  85   0.0000       0.105293         2.8652 
  86   0.0000       0.113442         3.0869 
  87   0.0000       0.120644         3.2829 
  88   0.0000       0.127579         3.4716 
  89   0.0000       0.130208         3.5431 
  90   0.0000       0.136900         3.7252 
  91   0.0000       0.141987         3.8637 
  92   0.0000       0.146557         3.9880 
  93   0.0000       0.153584         4.1792 
  94   0.0000       0.158563         4.3147 
  95   0.0000       0.162309         4.4167 
  96   0.0000       0.163880         4.4594 
  97   0.0000       0.170917         4.6509 
  98   0.0000       0.177294         4.8244 
  99   0.0000       0.187108         5.0915 
 100   0.0000       0.189920         5.1680 
 101   0.0000       0.191879         5.2213 
 102   0.0000       0.202286         5.5045 
 103   0.0000       0.211154         5.7458 
 104   0.0000       0.230006         6.2588 
 105   0.0000       0.232795         6.3347 
 106   0.0000       0.242013         6.5855 
 107   0.0000       0.249681         6.7942 
 108   0.0000       0.255212         6.9447 
 109   0.0000       0.268488         7.3059 
 110   0.0000       0.272938         7.4270 
 111   0.0000       0.281490         7.6597 
 112   0.0000       0.287442         7.8217 
 113   0.0000       0.301992         8.2176 
 114   0.0000       0.313353         8.5268 
 115   0.0000       0.318664         8.6713 
 116   0.0000       0.334191         9.0938 
 117   0.0000       0.340957         9.2779 
 118   0.0000       0.350075         9.5260 
 119   0.0000       0.358089         9.7441 
 120   0.0000       0.367093         9.9891 
 121   0.0000       0.376848        10.2546 
 122   0.0000       0.392592        10.6830 
 123   0.0000       0.400427        10.8962 
 124   0.0000       0.421592        11.4721 
 125   0.0000       0.432966        11.7816 
 126   0.0000       0.440163        11.9774 
 127   0.0000       0.446761        12.1570 
 128   0.0000       0.459102        12.4928 
 129   0.0000       0.466024        12.6812 
 130   0.0000       0.482075        13.1179 
 131   0.0000       0.515602        14.0303 
 132   0.0000       0.529467        14.4075 
 133   0.0000       0.555003        15.1024 
 134   0.0000       0.557869        15.1804 
 135   0.0000       0.576268        15.6811 
 136   0.0000       0.589547        16.0424 
 137   0.0000       0.595774        16.2118 
 138   0.0000       0.614995        16.7349 
 139   0.0000       0.636079        17.3086 
 140   0.0000       0.665090        18.0980 
 141   0.0000       0.670702        18.2507 
 142   0.0000       0.680676        18.5221 
 143   0.0000       0.693515        18.8715 
 144   0.0000       0.706890        19.2354 
 145   0.0000       0.719304        19.5733 
 146   0.0000       0.731991        19.9185 
 147   0.0000       0.733942        19.9716 
 148   0.0000       0.737407        20.0659 
 149   0.0000       0.742181        20.1958 
 150   0.0000       0.746483        20.3128 
 151   0.0000       0.759977        20.6800 
 152   0.0000       0.760836        20.7034 
 153   0.0000       0.768458        20.9108 
 154   0.0000       0.773539        21.0491 
 155   0.0000       0.786364        21.3981 
 156   0.0000       0.789094        21.4723 
 157   0.0000       0.807325        21.9684 
 158   0.0000       0.814766        22.1709 
 159   0.0000       0.815716        22.1968 
 160   0.0000       0.819584        22.3020 
 161   0.0000       0.829788        22.5797 
 162   0.0000       0.841021        22.8853 
 163   0.0000       0.841664        22.9028 
 164   0.0000       0.853290        23.2192 
 165   0.0000       0.861455        23.4414 
 166   0.0000       0.870989        23.7008 
 167   0.0000       0.887731        24.1564 
 168   0.0000       0.894777        24.3481 
 169   0.0000       0.903910        24.5966 
 170   0.0000       0.915657        24.9163 
 171   0.0000       0.928574        25.2678 
 172   0.0000       0.933086        25.3906 
 173   0.0000       0.948660        25.8143 
 174   0.0000       0.954159        25.9640 
 175   0.0000       0.989369        26.9221 
 176   0.0000       1.009872        27.4800 
 177   0.0000       1.019376        27.7386 
 178   0.0000       1.030603        28.0441 
 179   0.0000       1.032783        28.1035 
 180   0.0000       1.034011        28.1369 
 181   0.0000       1.047135        28.4940 
 182   0.0000       1.048803        28.5394 
 183   0.0000       1.057159        28.7668 
 184   0.0000       1.082943        29.4684 
 185   0.0000       1.093280        29.7496 
 186   0.0000       1.112359        30.2688 
 187   0.0000       1.135532        30.8994 
 188   0.0000       1.152980        31.3742 
 189   0.0000       1.179549        32.0972 
 190   0.0000       1.208592        32.8875 
 191   0.0000       1.218212        33.1492 
 192   0.0000       1.237793        33.6821 
 193   0.0000       1.247350        33.9421 
 194   0.0000       1.273503        34.6538 
 195   0.0000       1.293859        35.2077 
 196   0.0000       1.301329        35.4110 
 197   0.0000       1.307227        35.5715 
 198   0.0000       1.311539        35.6888 
 199   0.0000       1.326283        36.0900 
 200   0.0000       1.342177        36.5225 
 201   0.0000       1.366350        37.1803 
 202   0.0000       1.375070        37.4175 
 203   0.0000       1.380314        37.5602 
 204   0.0000       1.388342        37.7787 
 205   0.0000       1.402812        38.1725 
 206   0.0000       1.404906        38.2294 
 207   0.0000       1.416224        38.5374 
 208   0.0000       1.426140        38.8073 
 209   0.0000       1.439026        39.1579 
 210   0.0000       1.448160        39.4064 
 211   0.0000       1.460067        39.7304 
 212   0.0000       1.462472        39.7959 
 213   0.0000       1.474163        40.1140 
 214   0.0000       1.489278        40.5253 
 215   0.0000       1.500178        40.8219 
 216   0.0000       1.505757        40.9737 
 217   0.0000       1.512031        41.1445 
 218   0.0000       1.521740        41.4086 
 219   0.0000       1.530441        41.6454 
 220   0.0000       1.546230        42.0751 
 221   0.0000       1.554567        42.3019 
 222   0.0000       1.567906        42.6649 
 223   0.0000       1.569713        42.7141 
 224   0.0000       1.577349        42.9218 
 225   0.0000       1.582962        43.0746 
 226   0.0000       1.590984        43.2929 
 227   0.0000       1.605955        43.7003 
 228   0.0000       1.614865        43.9427 
 229   0.0000       1.625417        44.2298 
 230   0.0000       1.636344        44.5272 
 231   0.0000       1.649871        44.8953 
 232   0.0000       1.664607        45.2963 
 233   0.0000       1.678420        45.6721 
 234   0.0000       1.691626        46.0315 
 235   0.0000       1.707267        46.4571 
 236   0.0000       1.713825        46.6356 
 237   0.0000       1.729679        47.0670 
 238   0.0000       1.748404        47.5765 
 239   0.0000       1.766428        48.0670 
 240   0.0000       1.774234        48.2794 
 241   0.0000       1.789760        48.7018 
 242   0.0000       1.821204        49.5575 
 243   0.0000       1.848270        50.2940 
 244   0.0000       1.864277        50.7296 
 245   0.0000       1.881599        51.2009 
 246   0.0000       1.902727        51.7758 
 247   0.0000       1.920034        52.2468 
 248   0.0000       1.921756        52.2936 
 249   0.0000       1.940049        52.7914 
 250   0.0000       1.942898        52.8689 
 251   0.0000       1.961045        53.3628 
 252   0.0000       1.979004        53.8514 
 253   0.0000       2.027337        55.1666 
 254   0.0000       2.045388        55.6578 
 255   0.0000       2.056278        55.9542 
 256   0.0000       2.076972        56.5173 
 257   0.0000       2.090769        56.8927 
 258   0.0000       2.097453        57.0746 
 259   0.0000       2.121762        57.7361 
 260   0.0000       2.123094        57.7723 
 261   0.0000       2.150572        58.5200 
 262   0.0000       2.153196        58.5914 
 263   0.0000       2.165052        58.9141 
 264   0.0000       2.175925        59.2099 
 265   0.0000       2.179758        59.3142 
 266   0.0000       2.201875        59.9161 
 267   0.0000       2.221758        60.4571 
 268   0.0000       2.229185        60.6592 
 269   0.0000       2.231764        60.7294 
 270   0.0000       2.270345        61.7792 
 271   0.0000       2.277299        61.9685 
 272   0.0000       2.280130        62.0455 
 273   0.0000       2.305598        62.7385 
 274   0.0000       2.317628        63.0659 
 275   0.0000       2.327713        63.3403 
 276   0.0000       2.344192        63.7887 
 277   0.0000       2.360926        64.2441 
 278   0.0000       2.368316        64.4452 
 279   0.0000       2.384289        64.8798 
 280   0.0000       2.391939        65.0880 
 281   0.0000       2.402751        65.3822 
 282   0.0000       2.417788        65.7914 
 283   0.0000       2.439332        66.3776 
 284   0.0000       2.455309        66.8124 
 285   0.0000       2.486238        67.6540 
 286   0.0000       2.489614        67.7458 
 287   0.0000       2.510920        68.3256 
 288   0.0000       2.518398        68.5291 
 289   0.0000       2.573325        70.0237 
 290   0.0000       2.579044        70.1794 
 291   0.0000       2.611920        71.0740 
 292   0.0000       2.622703        71.3674 
 293   0.0000       2.627479        71.4973 
 294   0.0000       2.652659        72.1825 
 295   0.0000       2.690759        73.2193 
 296   0.0000       2.756325        75.0034 
 297   0.0000       2.852498        77.6204 
 298   0.0000       2.893727        78.7423 
 299   0.0000       2.961925        80.5981 
 300   0.0000       2.976673        80.9994 
 301   0.0000       3.229137        87.8693 
 302   0.0000       3.287001        89.4438 
 303   0.0000       3.295653        89.6793 
 304   0.0000       3.313598        90.1676 
 305   0.0000       4.733681       128.8100 
 306   0.0000       4.858017       132.1934 
 307   0.0000       4.874598       132.6446 
 308   0.0000       4.881293       132.8267 
 309   0.0000       4.884947       132.9262 
 310   0.0000       4.902471       133.4030 
 311   0.0000       4.907799       133.5480 
 312   0.0000       4.910538       133.6225 
 313   0.0000       4.929816       134.1471 
 314   0.0000       4.947489       134.6280 
 315   0.0000       4.977176       135.4359 
 316   0.0000       4.987880       135.7271 
 317   0.0000       5.022776       136.6767 
 318   0.0000       5.055118       137.5567 
 319   0.0000       5.113796       139.1535 
 320   0.0000       5.128861       139.5634 
 321   0.0000       5.141383       139.9041 
 322   0.0000       5.169310       140.6641 
 323   0.0000       5.178068       140.9024 
 324   0.0000       5.202511       141.5675 
 325   0.0000       5.243797       142.6910 
 326   0.0000       5.257442       143.0623 
 327   0.0000       5.341386       145.3465 
 328   0.0000       5.466974       148.7639 
 329   0.0000       5.506807       149.8478 
 330   0.0000       5.570212       151.5732 
 331   0.0000       5.610210       152.6616 
 332   0.0000       5.710763       155.3978 
 333   0.0000       7.044034       191.6779 
 334   0.0000       7.150083       194.5636 
 335   0.0000       7.190836       195.6726 
 336   0.0000       8.936575       243.1766 
 337   0.0000       8.987349       244.5582 
 338   0.0000      29.453380       801.4672 
 339   0.0000      29.499283       802.7163 
 340   0.0000      29.634617       806.3989 
 341   0.0000      29.765610       809.9634 
 342   0.0000      29.821306       811.4790 
 343   0.0000      29.914863       814.0248 
 344   0.0000      29.964922       815.3870 
 345   0.0000      29.998954       816.3130 
 346   0.0000      30.132326       819.9423 
 347   0.0000      36.340692       988.8805 
 348   0.0000      36.480093       992.6738 
 349   0.0000      36.498438       993.1730 
 350   0.0000      36.501073       993.2447 
 351   0.0000      36.511454       993.5272 
 352   0.0000      36.521134       993.7906 
 353   0.0000      36.522825       993.8366 
 354   0.0000      36.537788       994.2437 
 355   0.0000      36.540761       994.3247 
 356   0.0000      36.572114       995.1778 
 357   0.0000      36.588438       995.6220 
 358   0.0000      36.605349       996.0822 
 359   0.0000      36.665984       997.7322 
 360   0.0000      36.669606       997.8307 
 361   0.0000      36.725058       999.3396 
 362   0.0000      36.749660      1000.0091 
 363   0.0000      36.784851      1000.9667 
 364   0.0000      36.806596      1001.5584 
 365   0.0000      36.817271      1001.8489 
 366   0.0000      40.971743      1114.8978 
 367   0.0000      41.082025      1117.8987 
 368   0.0000      41.134274      1119.3205 
 369   0.0000      53.472983      1455.0738 
 370   0.0000      53.519872      1456.3498 

                 SPIN DOWN ORBITALS
  NO   OCC          E(Eh)            E(eV) 
   0   1.0000     -19.248751      -523.7851 
   1   1.0000     -19.246361      -523.7201 
   2   1.0000     -14.531137      -395.4124 
   3   1.0000     -14.505672      -394.7194 
   4   1.0000     -14.497101      -394.4862 
   5   1.0000     -10.429411      -283.7987 
   6   1.0000     -10.426709      -283.7252 
   7   1.0000     -10.383349      -282.5453 
   8   1.0000     -10.380568      -282.4696 
   9   1.0000     -10.342497      -281.4337 
  10   1.0000     -10.332837      -281.1708 
  11   1.0000     -10.328329      -281.0481 
  12   1.0000     -10.327609      -281.0285 
  13   1.0000     -10.300630      -280.2944 
  14   1.0000      -1.173212       -31.9247 
  15   1.0000      -1.163003       -31.6469 
  16   1.0000      -1.068360       -29.0715 
  17   1.0000      -1.057437       -28.7743 
  18   1.0000      -1.052242       -28.6330 
  19   1.0000      -0.941403       -25.6169 
  20   1.0000      -0.898573       -24.4514 
  21   1.0000      -0.854372       -23.2486 
  22   1.0000      -0.840958       -22.8836 
  23   1.0000      -0.806619       -21.9492 
  24   1.0000      -0.767956       -20.8971 
  25   1.0000      -0.738482       -20.0951 
  26   1.0000      -0.718536       -19.5524 
  27   1.0000      -0.704773       -19.1778 
  28   1.0000      -0.700391       -19.0586 
  29   1.0000      -0.664392       -18.0790 
  30   1.0000      -0.629452       -17.1283 
  31   1.0000      -0.613178       -16.6854 
  32   1.0000      -0.607805       -16.5392 
  33   1.0000      -0.595286       -16.1985 
  34   1.0000      -0.592834       -16.1318 
  35   1.0000      -0.578031       -15.7290 
  36   1.0000      -0.568437       -15.4680 
  37   1.0000      -0.555010       -15.1026 
  38   1.0000      -0.552346       -15.0301 
  39   1.0000      -0.544468       -14.8157 
  40   1.0000      -0.531613       -14.4659 
  41   1.0000      -0.520857       -14.1732 
  42   1.0000      -0.512021       -13.9328 
  43   1.0000      -0.509662       -13.8686 
  44   1.0000      -0.504190       -13.7197 
  45   1.0000      -0.503694       -13.7062 
  46   1.0000      -0.488175       -13.2839 
  47   1.0000      -0.486422       -13.2362 
  48   1.0000      -0.476217       -12.9585 
  49   1.0000      -0.463572       -12.6144 
  50   1.0000      -0.397736       -10.8229 
  51   1.0000      -0.387892       -10.5551 
  52   1.0000      -0.381860       -10.3909 
  53   1.0000      -0.367281        -9.9942 
  54   0.0000      -0.338370        -9.2075 
  55   0.0000      -0.119007        -3.2383 
  56   0.0000      -0.112959        -3.0738 
  57   0.0000      -0.101230        -2.7546 
  58   0.0000      -0.097772        -2.6605 
  59   0.0000      -0.089352        -2.4314 
  60   0.0000      -0.075984        -2.0676 
  61   0.0000      -0.070336        -1.9139 
  62   0.0000      -0.062643        -1.7046 
  63   0.0000      -0.036906        -1.0043 
  64   0.0000      -0.033043        -0.8991 
  65   0.0000      -0.026981        -0.7342 
  66   0.0000      -0.021280        -0.5790 
  67   0.0000      -0.009004        -0.2450 
  68   0.0000      -0.001155        -0.0314 
  69   0.0000       0.000668         0.0182 
  70   0.0000       0.020461         0.5568 
  71   0.0000       0.029849         0.8122 
  72   0.0000       0.038719         1.0536 
  73   0.0000       0.046037         1.2527 
  74   0.0000       0.052086         1.4173 
  75   0.0000       0.052522         1.4292 
  76   0.0000       0.060563         1.6480 
  77   0.0000       0.069845         1.9006 
  78   0.0000       0.074174         2.0184 
  79   0.0000       0.080410         2.1881 
  80   0.0000       0.081300         2.2123 
  81   0.0000       0.086276         2.3477 
  82   0.0000       0.089812         2.4439 
  83   0.0000       0.094322         2.5666 
  84   0.0000       0.097981         2.6662 
  85   0.0000       0.109035         2.9670 
  86   0.0000       0.115363         3.1392 
  87   0.0000       0.122088         3.3222 
  88   0.0000       0.129176         3.5150 
  89   0.0000       0.131393         3.5754 
  90   0.0000       0.137594         3.7441 
  91   0.0000       0.142718         3.8835 
  92   0.0000       0.147871         4.0238 
  93   0.0000       0.154667         4.2087 
  94   0.0000       0.160133         4.3574 
  95   0.0000       0.163133         4.4391 
  96   0.0000       0.165706         4.5091 
  97   0.0000       0.171434         4.6650 
  98   0.0000       0.178851         4.8668 
  99   0.0000       0.187823         5.1109 
 100   0.0000       0.191045         5.1986 
 101   0.0000       0.192536         5.2392 
 102   0.0000       0.202617         5.5135 
 103   0.0000       0.211585         5.7575 
 104   0.0000       0.230690         6.2774 
 105   0.0000       0.233584         6.3561 
 106   0.0000       0.242632         6.6023 
 107   0.0000       0.250820         6.8251 
 108   0.0000       0.256321         6.9748 
 109   0.0000       0.269356         7.3296 
 110   0.0000       0.274464         7.4686 
 111   0.0000       0.283183         7.7058 
 112   0.0000       0.289355         7.8738 
 113   0.0000       0.302975         8.2444 
 114   0.0000       0.314488         8.5577 
 115   0.0000       0.319692         8.6993 
 116   0.0000       0.337843         9.1932 
 117   0.0000       0.342136         9.3100 
 118   0.0000       0.355670         9.6783 
 119   0.0000       0.359635         9.7862 
 120   0.0000       0.368880        10.0377 
 121   0.0000       0.378695        10.3048 
 122   0.0000       0.396392        10.7864 
 123   0.0000       0.403443        10.9782 
 124   0.0000       0.424692        11.5565 
 125   0.0000       0.435461        11.8495 
 126   0.0000       0.443487        12.0679 
 127   0.0000       0.453586        12.3427 
 128   0.0000       0.460267        12.5245 
 129   0.0000       0.470437        12.8012 
 130   0.0000       0.484202        13.1758 
 131   0.0000       0.518561        14.1108 
 132   0.0000       0.533569        14.5192 
 133   0.0000       0.558388        15.1945 
 134   0.0000       0.561754        15.2861 
 135   0.0000       0.578404        15.7392 
 136   0.0000       0.591926        16.1071 
 137   0.0000       0.598005        16.2725 
 138   0.0000       0.616097        16.7648 
 139   0.0000       0.637241        17.3402 
 140   0.0000       0.667619        18.1668 
 141   0.0000       0.673733        18.3332 
 142   0.0000       0.682002        18.5582 
 143   0.0000       0.695680        18.9304 
 144   0.0000       0.707772        19.2594 
 145   0.0000       0.720779        19.6134 
 146   0.0000       0.732696        19.9377 
 147   0.0000       0.734730        19.9930 
 148   0.0000       0.740261        20.1435 
 149   0.0000       0.743299        20.2262 
 150   0.0000       0.747516        20.3409 
 151   0.0000       0.760676        20.6990 
 152   0.0000       0.761674        20.7262 
 153   0.0000       0.770225        20.9589 
 154   0.0000       0.774472        21.0745 
 155   0.0000       0.788399        21.4534 
 156   0.0000       0.790326        21.5059 
 157   0.0000       0.808156        21.9911 
 158   0.0000       0.816029        22.2053 
 159   0.0000       0.816745        22.2248 
 160   0.0000       0.820431        22.3251 
 161   0.0000       0.831501        22.6263 
 162   0.0000       0.841926        22.9100 
 163   0.0000       0.843665        22.9573 
 164   0.0000       0.854696        23.2575 
 165   0.0000       0.862947        23.4820 
 166   0.0000       0.872162        23.7327 
 167   0.0000       0.889494        24.2044 
 168   0.0000       0.896740        24.4015 
 169   0.0000       0.905357        24.6360 
 170   0.0000       0.917454        24.9652 
 171   0.0000       0.929344        25.2887 
 172   0.0000       0.935246        25.4494 
 173   0.0000       0.952253        25.9121 
 174   0.0000       0.957149        26.0453 
 175   0.0000       0.990956        26.9653 
 176   0.0000       1.014084        27.5946 
 177   0.0000       1.021252        27.7897 
 178   0.0000       1.032110        28.0851 
 179   0.0000       1.037388        28.2288 
 180   0.0000       1.038500        28.2590 
 181   0.0000       1.049016        28.5452 
 182   0.0000       1.050050        28.5733 
 183   0.0000       1.058961        28.8158 
 184   0.0000       1.084792        29.5187 
 185   0.0000       1.094631        29.7864 
 186   0.0000       1.113427        30.2979 
 187   0.0000       1.136832        30.9348 
 188   0.0000       1.154863        31.4254 
 189   0.0000       1.182069        32.1657 
 190   0.0000       1.210386        32.9363 
 191   0.0000       1.219777        33.1918 
 192   0.0000       1.238359        33.6974 
 193   0.0000       1.248121        33.9631 
 194   0.0000       1.274321        34.6760 
 195   0.0000       1.295046        35.2400 
 196   0.0000       1.304312        35.4921 
 197   0.0000       1.308365        35.6024 
 198   0.0000       1.311946        35.6999 
 199   0.0000       1.328159        36.1411 
 200   0.0000       1.343510        36.5588 
 201   0.0000       1.368355        37.2348 
 202   0.0000       1.377674        37.4884 
 203   0.0000       1.380901        37.5762 
 204   0.0000       1.388676        37.7878 
 205   0.0000       1.404337        38.2140 
 206   0.0000       1.405498        38.2455 
 207   0.0000       1.417348        38.5680 
 208   0.0000       1.427394        38.8414 
 209   0.0000       1.440053        39.1858 
 210   0.0000       1.449014        39.4297 
 211   0.0000       1.461863        39.7793 
 212   0.0000       1.463796        39.8319 
 213   0.0000       1.475587        40.1528 
 214   0.0000       1.491303        40.5804 
 215   0.0000       1.501889        40.8685 
 216   0.0000       1.506901        41.0049 
 217   0.0000       1.512985        41.1704 
 218   0.0000       1.523192        41.4482 
 219   0.0000       1.532395        41.6986 
 220   0.0000       1.548132        42.1268 
 221   0.0000       1.555412        42.3249 
 222   0.0000       1.569124        42.6980 
 223   0.0000       1.571486        42.7623 
 224   0.0000       1.578746        42.9599 
 225   0.0000       1.584522        43.1170 
 226   0.0000       1.592891        43.3448 
 227   0.0000       1.606661        43.7195 
 228   0.0000       1.616593        43.9897 
 229   0.0000       1.626714        44.2651 
 230   0.0000       1.638397        44.5831 
 231   0.0000       1.651641        44.9434 
 232   0.0000       1.665750        45.3274 
 233   0.0000       1.680281        45.7228 
 234   0.0000       1.693635        46.0861 
 235   0.0000       1.708945        46.5028 
 236   0.0000       1.715828        46.6900 
 237   0.0000       1.731850        47.1260 
 238   0.0000       1.750799        47.6417 
 239   0.0000       1.768384        48.1202 
 240   0.0000       1.776185        48.3324 
 241   0.0000       1.792537        48.7774 
 242   0.0000       1.826014        49.6884 
 243   0.0000       1.850561        50.3563 
 244   0.0000       1.865622        50.7661 
 245   0.0000       1.890368        51.4395 
 246   0.0000       1.904406        51.8215 
 247   0.0000       1.921160        52.2774 
 248   0.0000       1.923478        52.3405 
 249   0.0000       1.941852        52.8405 
 250   0.0000       1.944761        52.9196 
 251   0.0000       1.963945        53.4417 
 252   0.0000       1.983163        53.9646 
 253   0.0000       2.029620        55.2288 
 254   0.0000       2.047837        55.7245 
 255   0.0000       2.058833        56.0237 
 256   0.0000       2.080004        56.5998 
 257   0.0000       2.097952        57.0882 
 258   0.0000       2.107546        57.3493 
 259   0.0000       2.123736        57.7898 
 260   0.0000       2.130341        57.9695 
 261   0.0000       2.152578        58.5746 
 262   0.0000       2.155086        58.6429 
 263   0.0000       2.167266        58.9743 
 264   0.0000       2.179150        59.2977 
 265   0.0000       2.182069        59.3771 
 266   0.0000       2.204900        59.9984 
 267   0.0000       2.224295        60.5261 
 268   0.0000       2.231029        60.7094 
 269   0.0000       2.239733        60.9462 
 270   0.0000       2.272633        61.8415 
 271   0.0000       2.277905        61.9849 
 272   0.0000       2.282586        62.1123 
 273   0.0000       2.307858        62.8000 
 274   0.0000       2.319434        63.1150 
 275   0.0000       2.330165        63.4070 
 276   0.0000       2.345436        63.8226 
 277   0.0000       2.362418        64.2847 
 278   0.0000       2.370897        64.5154 
 279   0.0000       2.385352        64.9087 
 280   0.0000       2.394937        65.1696 
 281   0.0000       2.403878        65.4128 
 282   0.0000       2.421550        65.8937 
 283   0.0000       2.442570        66.4657 
 284   0.0000       2.456673        66.8495 
 285   0.0000       2.490264        67.7635 
 286   0.0000       2.493685        67.8566 
 287   0.0000       2.514110        68.4124 
 288   0.0000       2.520950        68.5985 
 289   0.0000       2.578268        70.1582 
 290   0.0000       2.582971        70.2862 
 291   0.0000       2.619439        71.2786 
 292   0.0000       2.629390        71.5493 
 293   0.0000       2.633096        71.6502 
 294   0.0000       2.655615        72.2630 
 295   0.0000       2.692424        73.2646 
 296   0.0000       2.761708        75.1499 
 297   0.0000       2.855882        77.7125 
 298   0.0000       2.895163        78.7814 
 299   0.0000       2.967131        80.7397 
 300   0.0000       2.979197        81.0681 
 301   0.0000       3.231002        87.9200 
 302   0.0000       3.289623        89.5152 
 303   0.0000       3.297966        89.7422 
 304   0.0000       3.315001        90.2058 
 305   0.0000       4.732146       128.7682 
 306   0.0000       4.858617       132.2097 
 307   0.0000       4.875630       132.6726 
 308   0.0000       4.881262       132.8259 
 309   0.0000       4.885407       132.9387 
 310   0.0000       4.902298       133.3983 
 311   0.0000       4.908204       133.5590 
 312   0.0000       4.910700       133.6269 
 313   0.0000       4.930547       134.1670 
 314   0.0000       4.947648       134.6324 
 315   0.0000       4.976640       135.4212 
 316   0.0000       4.987114       135.7063 
 317   0.0000       5.023607       136.6993 
 318   0.0000       5.056673       137.5991 
 319   0.0000       5.115505       139.2000 
 320   0.0000       5.128698       139.5590 
 321   0.0000       5.141851       139.9169 
 322   0.0000       5.170296       140.6909 
 323   0.0000       5.178487       140.9138 
 324   0.0000       5.203293       141.5888 
 325   0.0000       5.243845       142.6923 
 326   0.0000       5.257783       143.0716 
 327   0.0000       5.342850       145.3864 
 328   0.0000       5.468062       148.7935 
 329   0.0000       5.507895       149.8774 
 330   0.0000       5.571662       151.6126 
 331   0.0000       5.610113       152.6589 
 332   0.0000       5.712683       155.4500 
 333   0.0000       7.065786       192.2698 
 334   0.0000       7.159209       194.8120 
 335   0.0000       7.193265       195.7387 
 336   0.0000       8.942607       243.3407 
 337   0.0000       8.989712       244.6225 
 338   0.0000      29.454017       801.4846 
 339   0.0000      29.498459       802.6939 
 340   0.0000      29.635326       806.4182 
 341   0.0000      29.766076       809.9761 
 342   0.0000      29.821641       811.4881 
 343   0.0000      29.915800       814.0503 
 344   0.0000      29.965113       815.3922 
 345   0.0000      29.999774       816.3353 
 346   0.0000      30.133511       819.9745 
 347   0.0000      36.335542       988.7404 
 348   0.0000      36.482682       992.7443 
 349   0.0000      36.499372       993.1984 
 350   0.0000      36.500585       993.2314 
 351   0.0000      36.511993       993.5418 
 352   0.0000      36.520800       993.7815 
 353   0.0000      36.522690       993.8329 
 354   0.0000      36.532960       994.1124 
 355   0.0000      36.541032       994.3320 
 356   0.0000      36.572045       995.1760 
 357   0.0000      36.586792       995.5772 
 358   0.0000      36.604772       996.0665 
 359   0.0000      36.669091       997.8167 
 360   0.0000      36.672552       997.9109 
 361   0.0000      36.726413       999.3765 
 362   0.0000      36.749814      1000.0133 
 363   0.0000      36.785815      1000.9929 
 364   0.0000      36.806579      1001.5579 
 365   0.0000      36.817347      1001.8510 
 366   0.0000      40.983983      1115.2309 
 367   0.0000      41.087241      1118.0407 
 368   0.0000      41.135628      1119.3573 
 369   0.0000      53.476126      1455.1594 
 370   0.0000      53.521141      1456.3843 

                    ********************************
                    * MULLIKEN POPULATION ANALYSIS *
                    ********************************

--------------------------------------------
MULLIKEN ATOMIC CHARGES AND SPIN POPULATIONS
--------------------------------------------
   0 N :   -0.061430    0.208929
   1 C :   -0.135854    0.018868
   2 C :    0.090803   -0.007250
   3 O :   -0.289389    0.040089
   4 C :   -0.266841    0.053050
   5 C :   -0.226111    0.017816
   6 C :   -0.293380    0.084908
   7 C :   -0.268715    0.004754
   8 N :   -0.291518    0.477507
   9 H :    0.292262   -0.015505
  10 H :    0.275397   -0.007930
  11 C :    0.168551   -0.045855
  12 N :   -0.092964    0.045458
  13 H :    0.248024   -0.001659
  14 O :   -0.240749    0.106124
  15 H :    0.290572   -0.015541
  16 C :   -0.435702    0.001049
  17 H :    0.191809    0.002845
  18 H :    0.173014    0.002386
  19 H :    0.202434    0.000204
  20 C :   -0.523552    0.002164
  21 H :    0.201927   -0.000734
  22 H :    0.207915   -0.001185
  23 H :    0.159040   -0.000377
  24 H :    0.184704    0.013538
  25 H :    0.163723   -0.001247
  26 H :    0.196246    0.002587
  27 H :    0.173598    0.000745
  28 H :    0.157243   -0.000752
  29 H :    0.175382   -0.001151
[...]
 -----------------------------------
                 0.1987              -1.9384               0.1341
                -1.9363              -3.0417              -0.3395
                 0.1421              -0.3407             -10.3377

 A(FC)          -4.3947              -4.3947              -4.3947
 A(SD)           5.5013               0.4562              -5.9576
 A(ORB+DIA)      0.0038               0.0012              -0.0015    A(PC) =   0.0012
 A(ORB)          0.0032               0.0011              -0.0015    A(PC) =   0.0010
 A(DIA)          0.0006               0.0001              -0.0000    A(PC) =   0.0002
             ----------           ----------           ----------
 A(Tot)          1.1104              -3.9373             -10.3538    A(iso)=   -4.3936
 Orientation: 
  X           0.9051673            0.4250329           -0.0043898
  Y          -0.4244224            0.9043342            0.0452253
  Z           0.0231921           -0.0390733            0.9989672

Notes:  (1) The A matrix conforms to the "SAI" spin Hamiltonian convention.
        (2) Tensor is right-handed.

 -----------------------------------------------------------
 Nucleus  30H : A:ISTP=    1 I=  0.5 P=533.5514 MHz/au**3
                Q:ISTP=    2 I=  1.0 Q=  0.0029 barn     
 -----------------------------------------------------------
 Solving for nuclear perturbation:
Forming RHS of the CP-SCF equations         ... 
Calc. nucleus orbit integrals (SHARK)       ... done

------------------------------------------------------------------------------
                           ORCA CP-SCF CALCULATION
------------------------------------------------------------------------------

Input orbitals are from        ... epr_info.gbw
Input Perturbation             ... epr_info.pin.tmp
Wavefunction output            ... epr_info.pout.tmp
Perturbation mode              ... Imaginary perturbation
Solver                         ... POPLE
Max. number of iterations      ... 64
Convergence tolerance          ... 1.000e-03
Integral handling              ... Direct
DFT GridXC                     ... 1
COSX GridX                     ... 1
COSX IntAccX                   ... 3.067
COSX Algorithm                 ... Auto
Number of perturbations        ... 3
Number of operators            ... 2
Orbital ranges used for CP-SCF:
 Operator 0:  Orbitals   0... 54  to  55...370
 Operator 1:  Orbitals   0... 53  to  54...370
Variables per perturbation     ... 34498
DFT calculation                         ... on
XC functional terms                     ... off
Hybrid DFT                              ... on
   Exchange mixing (SCF)                ...  0.200
   Exchange mixing (CP-SCF)             ...  0.200
   GGA exch. scaling(SCF)               ...  0.720
   GGA exch. scaling (CP-SCF)           ...  0.720
   GGA corr. scaling (SCF)              ...  0.810
   GGA corr. scaling (CP-SCF)           ...  0.810

CP-SCF GRID
-----------

General Integration Accuracy     IntAcc      ... 3.467
Radial Grid Type                 RadialGrid  ... OptM3 with GC (2021)
Angular Grid (max. ang.)         AngularGrid ... 1 (Lebedev-50)
Angular grid pruning method      GridPruning ... 4 (adaptive)
Weight generation scheme         WeightScheme... Becke
Basis function cutoff            BFCut       ... 1.0000e-10
Integration weight cutoff        WCut        ... 1.0000e-14
Angular grids for H and He will be reduced by one unit
Partially contracted basis set               ... off
Rotationally invariant grid construction     ... off

Total number of grid points                  ...    20316
Total number of batches                      ...      331
Average number of points per batch           ...       61
Average number of grid points per atom       ...      616

CP-SCF GRIDX
------------

General Integration Accuracy     IntAcc      ... 3.067
Radial Grid Type                 RadialGrid  ... OptM3 with GC (2021)
Angular Grid (max. ang.)         AngularGrid ... 1 (Lebedev-50)
Angular grid pruning method      GridPruning ... 4 (adaptive)
Weight generation scheme         WeightScheme... Becke
Basis function cutoff            BFCut       ... 1.0000e-10
Integration weight cutoff        WCut        ... 1.0000e-14
Angular grids for H and He will be reduced by one unit
Partially contracted basis set               ... on
Rotationally invariant grid construction     ... off

Total number of grid points                  ...     9603
Total number of batches                      ...      168
Average number of points per batch           ...       57
Average number of grid points per atom       ...      291

Memory available               ... 922.2 MB
Memory needed per perturbation ...   8.2 MB
Perturbations treated per batch... 3
Number of batches              ... 1
     CP-SCF ITERATION   0:   8.4218e-02 (   0.5 sec   0/  3 done)
     CP-SCF ITERATION   1:   2.2392e-02 (   0.5 sec   0/  3 done)
     CP-SCF ITERATION   2:   3.7638e-03 (   0.5 sec   1/  3 done)
     CP-SCF ITERATION   3:   1.1197e-03 (   0.4 sec   2/  3 done)
     CP-SCF ITERATION   4:   4.6794e-04 (   0.3 sec   3/  3 done)
                    *** THE CP-SCF HAS CONVERGED ***

Forming final perturbed densities           ... done
Transforming perturbed density to AO basis  ... done

 Raw HFC matrix (all values in MHz): 
 -----------------------------------
               -11.6204               0.8299               1.8382
                 0.8273              -4.1387               2.4404
                 1.8357               2.4406              -2.0866

 A(FC)          -5.9498              -5.9498              -5.9498
 A(SD)           5.8239               0.2052              -6.0291
 A(ORB+DIA)      0.0051               0.0006              -0.0021    A(PC) =   0.0012
 A(ORB)          0.0046               0.0005              -0.0020    A(PC) =   0.0010
 A(DIA)          0.0005               0.0001              -0.0000    A(PC) =   0.0002
             ----------           ----------           ----------
 A(Tot)         -0.1208              -5.7439             -11.9809    A(iso)=   -5.9486
 Orientation: 
  X           0.1707951           -0.0491305           -0.9840809
  Y           0.5370052            0.8420260            0.0511632
  Z           0.8261080           -0.5371949            0.1701973

Notes:  (1) The A matrix conforms to the "SAI" spin Hamiltonian convention.
        (2) Tensor is right-handed.

 -----------------------------------------------------------
 Nucleus  31H : A:ISTP=    1 I=  0.5 P=533.5514 MHz/au**3
                Q:ISTP=    2 I=  1.0 Q=  0.0029 barn     
 -----------------------------------------------------------
 Solving for nuclear perturbation:
Forming RHS of the CP-SCF equations         ... 
Calc. nucleus orbit integrals (SHARK)       ... done

------------------------------------------------------------------------------
                           ORCA CP-SCF CALCULATION
------------------------------------------------------------------------------

Input orbitals are from        ... epr_info.gbw
Input Perturbation             ... epr_info.pin.tmp
Wavefunction output            ... epr_info.pout.tmp
Perturbation mode              ... Imaginary perturbation
Solver                         ... POPLE
Max. number of iterations      ... 64
Convergence tolerance          ... 1.000e-03
Integral handling              ... Direct
DFT GridXC                     ... 1
COSX GridX                     ... 1
COSX IntAccX                   ... 3.067
COSX Algorithm                 ... Auto
Number of perturbations        ... 3
Number of operators            ... 2
Orbital ranges used for CP-SCF:
 Operator 0:  Orbitals   0... 54  to  55...370
 Operator 1:  Orbitals   0... 53  to  54...370
Variables per perturbation     ... 34498
DFT calculation                         ... on
XC functional terms                     ... off
Hybrid DFT                              ... on
   Exchange mixing (SCF)                ...  0.200
   Exchange mixing (CP-SCF)             ...  0.200
   GGA exch. scaling(SCF)               ...  0.720
   GGA exch. scaling (CP-SCF)           ...  0.720
   GGA corr. scaling (SCF)              ...  0.810
   GGA corr. scaling (CP-SCF)           ...  0.810

CP-SCF GRID
-----------

General Integration Accuracy     IntAcc      ... 3.467
Radial Grid Type                 RadialGrid  ... OptM3 with GC (2021)
Angular Grid (max. ang.)         AngularGrid ... 1 (Lebedev-50)
Angular grid pruning method      GridPruning ... 4 (adaptive)
Weight generation scheme         WeightScheme... Becke
Basis function cutoff            BFCut       ... 1.0000e-10
Integration weight cutoff        WCut        ... 1.0000e-14
Angular grids for H and He will be reduced by one unit
Partially contracted basis set               ... off
Rotationally invariant grid construction     ... off

Total number of grid points                  ...    20316
Total number of batches                      ...      331
Average number of points per batch           ...       61
Average number of grid points per atom       ...      616

CP-SCF GRIDX
------------

General Integration Accuracy     IntAcc      ... 3.067
Radial Grid Type                 RadialGrid  ... OptM3 with GC (2021)
Angular Grid (max. ang.)         AngularGrid ... 1 (Lebedev-50)
Angular grid pruning method      GridPruning ... 4 (adaptive)
Weight generation scheme         WeightScheme... Becke
Basis function cutoff            BFCut       ... 1.0000e-10
Integration weight cutoff        WCut        ... 1.0000e-14
Angular grids for H and He will be reduced by one unit
Partially contracted basis set               ... on
Rotationally invariant grid construction     ... off

Total number of grid points                  ...     9603
Total number of batches                      ...      168
Average number of points per batch           ...       57
Average number of grid points per atom       ...      291

Memory available               ... 921.8 MB
Memory needed per perturbation ...   8.2 MB
Perturbations treated per batch... 3
Number of batches              ... 1
     CP-SCF ITERATION   0:   6.2934e-02 (   0.5 sec   0/  3 done)
     CP-SCF ITERATION   1:   1.8310e-02 (   0.5 sec   0/  3 done)
     CP-SCF ITERATION   2:   2.5549e-03 (   0.5 sec   1/  3 done)
     CP-SCF ITERATION   3:   4.7393e-04 (   0.4 sec   3/  3 done)
                    *** THE CP-SCF HAS CONVERGED ***

Forming final perturbed densities           ... done
Transforming perturbed density to AO basis  ... done

 Raw HFC matrix (all values in MHz): 
 -----------------------------------
                27.5907               0.0604               1.2539
                 0.0600              29.1397              -3.0459
                 1.2456              -3.0419              36.0776

 A(FC)          30.9314              30.9314              30.9314
 A(SD)          -3.7665              -2.6488               6.4153
 A(ORB+DIA)     -0.0022               0.0036               0.0124    A(PC) =   0.0046
 A(ORB)         -0.0024               0.0032               0.0116    A(PC) =   0.0041
 A(DIA)          0.0002               0.0004               0.0008    A(PC) =   0.0005
             ----------           ----------           ----------
 A(Tot)         27.1627              28.2862              37.3591    A(iso)=   30.9360
 Orientation: 
  X           0.8536852            0.5073800            0.1174183
  Y          -0.4442462            0.8271266           -0.3442483
  Z          -0.2717845            0.2417171            0.9315074

Notes:  (1) The A matrix conforms to the "SAI" spin Hamiltonian convention.
        (2) Tensor is right-handed.

 -----------------------------------------------------------
 Nucleus  32H : A:ISTP=    1 I=  0.5 P=533.5514 MHz/au**3
                Q:ISTP=    2 I=  1.0 Q=  0.0029 barn     
 -----------------------------------------------------------
 Solving for nuclear perturbation:
Forming RHS of the CP-SCF equations         ... 
Calc. nucleus orbit integrals (SHARK)       ... done

------------------------------------------------------------------------------
                           ORCA CP-SCF CALCULATION
------------------------------------------------------------------------------

Input orbitals are from        ... epr_info.gbw
Input Perturbation             ... epr_info.pin.tmp
Wavefunction output            ... epr_info.pout.tmp
Perturbation mode              ... Imaginary perturbation
Solver                         ... POPLE
Max. number of iterations      ... 64
Convergence tolerance          ... 1.000e-03
Integral handling              ... Direct
DFT GridXC                     ... 1
COSX GridX                     ... 1
COSX IntAccX                   ... 3.067
COSX Algorithm                 ... Auto
Number of perturbations        ... 3
Number of operators            ... 2
Orbital ranges used for CP-SCF:
 Operator 0:  Orbitals   0... 54  to  55...370
 Operator 1:  Orbitals   0... 53  to  54...370
Variables per perturbation     ... 34498
DFT calculation                         ... on
XC functional terms                     ... off
Hybrid DFT                              ... on
   Exchange mixing (SCF)                ...  0.200
   Exchange mixing (CP-SCF)             ...  0.200
   GGA exch. scaling(SCF)               ...  0.720
   GGA exch. scaling (CP-SCF)           ...  0.720
   GGA corr. scaling (SCF)              ...  0.810
   GGA corr. scaling (CP-SCF)           ...  0.810

CP-SCF GRID
-----------

General Integration Accuracy     IntAcc      ... 3.467
Radial Grid Type                 RadialGrid  ... OptM3 with GC (2021)
Angular Grid (max. ang.)         AngularGrid ... 1 (Lebedev-50)
Angular grid pruning method      GridPruning ... 4 (adaptive)
Weight generation scheme         WeightScheme... Becke
Basis function cutoff            BFCut       ... 1.0000e-10
Integration weight cutoff        WCut        ... 1.0000e-14
Angular grids for H and He will be reduced by one unit
Partially contracted basis set               ... off
Rotationally invariant grid construction     ... off

Total number of grid points                  ...    20316
Total number of batches                      ...      331
Average number of points per batch           ...       61
Average number of grid points per atom       ...      616

CP-SCF GRIDX
------------

General Integration Accuracy     IntAcc      ... 3.067
Radial Grid Type                 RadialGrid  ... OptM3 with GC (2021)
Angular Grid (max. ang.)         AngularGrid ... 1 (Lebedev-50)
Angular grid pruning method      GridPruning ... 4 (adaptive)
Weight generation scheme         WeightScheme... Becke
Basis function cutoff            BFCut       ... 1.0000e-10
Integration weight cutoff        WCut        ... 1.0000e-14
Angular grids for H and He will be reduced by one unit
Partially contracted basis set               ... on
Rotationally invariant grid construction     ... off

Total number of grid points                  ...     9603
Total number of batches                      ...      168
Average number of points per batch           ...       57
Average number of grid points per atom       ...      291

Memory available               ... 921.4 MB
Memory needed per perturbation ...   8.2 MB
Perturbations treated per batch... 3
Number of batches              ... 1
     CP-SCF ITERATION   0:   6.6648e-02 (   0.5 sec   0/  3 done)
     CP-SCF ITERATION   1:   1.9085e-02 (   0.5 sec   0/  3 done)
     CP-SCF ITERATION   2:   3.0363e-03 (   0.5 sec   1/  3 done)
     CP-SCF ITERATION   3:   7.4211e-04 (   0.4 sec   3/  3 done)
                    *** THE CP-SCF HAS CONVERGED ***

Forming final perturbed densities           ... done
Transforming perturbed density to AO basis  ... done

 Raw HFC matrix (all values in MHz): 
 -----------------------------------
                27.4504               3.0767              -0.9117
                 3.0791              21.3372              -0.6557
                -0.9033              -0.6541              19.2667

 A(FC)          22.6801              22.6801              22.6801
 A(SD)          -3.6017              -2.5610               6.1628
 A(ORB+DIA)     -0.0015               0.0029               0.0127    A(PC) =   0.0047
 A(ORB)         -0.0017               0.0025               0.0118    A(PC) =   0.0042
 A(DIA)          0.0002               0.0004               0.0008    A(PC) =   0.0005
             ----------           ----------           ----------
 A(Tot)         19.0769              20.1219              28.8555    A(iso)=   22.6848
 Orientation: 
  X           0.0044921           -0.4010968           -0.9160247
  Y           0.2728635            0.8817639           -0.3847570
  Z           0.9620423           -0.2482214            0.1134057

Notes:  (1) The A matrix conforms to the "SAI" spin Hamiltonian convention.
        (2) Tensor is right-handed.


--------------------------------------------------------------------------------
----------------------------------------------------------------------------
                           ORCA EULER ANGLE PROGRAM
----------------------------------------------------------------------------

Only g-tensor available        -->  using g-tensor as reference tensor

Reference tensor               ...  g

g-tensor ordering              ...  |g_min> --> |gx>
                                    |g_mid> --> |gy>
                                    |g_max> --> |gz>

A- and EFG-tensor ordering     ...  the axes |Ax>, |Qx>, |Ay>, etc. are assigned
                                    such that the Euler rotation is minimal. You
                                    can find the respective eigenvalues as Ax,
                                    EFGx, Ay, etc. in the tables below.
                                    The relation of |Ax>, |Ay>,  etc. to Amin, Amid, etc.
                                    (as printed in the ORCA EPR/NMR CALCULATION Output)
                                    is obtained in the detailed printout.

Euler rotation around          ...  z - y - z
   First rotation              -->  by alpha around z
   Second rotation             -->  by beta around y'
   Third rotation              -->  by gamma around z''
   Positive / Negative angle   -->  clockwise / counterclockwise rotation

Plot EFG-tensors                    (-)
Plot HFC-tensors                    (-)
Detailed Printout                   (-)

-------------------------------------------------------------------------
          Euler rotation of hyperfine tensor to g-tensor
-------------------------------------------------------------------------

-------------------------------------------------------------------
 Atom  |   Alpha    Beta    Gamma   |   Ax       Ay       Az 
       |          [degrees]         |           [MHz]         
-------------------------------------------------------------------
  8N       15.9     36.0     -7.5      26.75    28.34   887.14
  9H       50.9     39.3    -11.0     -56.01     1.75   -36.75
 15H      -19.4     37.7     -1.4     -56.15     1.62   -36.88
 29H      -93.0     29.6    117.4      -3.94     1.11   -10.35
 30H      -70.5     38.9     61.1      -5.74   -11.98    -0.12
 31H     -106.0     49.3    139.3      28.29    27.16    37.36
 32H     -117.2     26.4     89.7      20.12    28.86    19.08
-------------------------------------------------------------------


Maximum memory used throughout the entire EPRNMR-calculation: 137.2 MB

Timings for individual modules:

Sum of individual times         ...      338.842 sec (=   5.647 min)
GTO integral calculation        ...       37.731 sec (=   0.629 min)  11.1 %
Spin-Orbit-Coupling Matrices    ...       21.367 sec (=   0.356 min)   6.3 %
SCF iterations                  ...       44.561 sec (=   0.743 min)  13.2 %
EPR/NMR calculation             ...      235.183 sec (=   3.920 min)  69.4 %
                             ****ORCA TERMINATED NORMALLY****
TOTAL RUN TIME: 0 days 0 hours 5 minutes 44 seconds 867 msec
