
                                 *****************
                                 * O   R   C   A *
                                 *****************

                                            #,                                       
                                            ###                                      
                                            ####                                     
                                            #####                                    
                                            ######                                   
                                           ########,                                 
                                     ,,################,,,,,                         
                               ,,#################################,,                 
                          ,,##########################################,,             
                       ,#########################################, ''#####,          
                    ,#############################################,,   '####,        
                  ,##################################################,,,,####,       
                ,###########''''           ''''###############################       
              ,#####''   ,,,,##########,,,,          '''####'''          '####       
            ,##' ,,,,###########################,,,                        '##       
           ' ,,###''''                  '''############,,,                           
         ,,##''                                '''############,,,,        ,,,,,,###''
      ,#''                                            '''#######################'''  
     '                                                          ''''####''''         
             ,#######,   #######,   ,#######,      ##                                
            ,#'     '#,  ##    ##  ,#'     '#,    #''#        ######   ,####,        
            ##       ##  ##   ,#'  ##            #'  '#       #        #'  '#        
            ##       ##  #######   ##           ,######,      #####,   #    #        
            '#,     ,#'  ##    ##  '#,     ,#' ,#      #,         ##   #,  ,#        
             '#######'   ##     ##  '#######'  #'      '#     #####' # '####'        



                  #######################################################
                  #                        -***-                        #
                  #          Department of theory and spectroscopy      #
                  #    Directorship and core code : Frank Neese         #
                  #        Max Planck Institute fuer Kohlenforschung    #
                  #                Kaiser Wilhelm Platz 1               #
                  #                 D-45470 Muelheim/Ruhr               #
                  #                      Germany                        #
                  #                                                     #
                  #                  All rights reserved                #
                  #                        -***-                        #
                  #######################################################


                         Program Version 5.0.4 -  RELEASE  -


 With contributions from (in alphabetic order):
   Daniel Aravena         : Magnetic Suceptibility
   Michael Atanasov       : Ab Initio Ligand Field Theory (pilot matlab implementation)
   Alexander A. Auer      : GIAO ZORA, VPT2 properties, NMR spectrum
   Ute Becker             : Parallelization
   Giovanni Bistoni       : ED, misc. LED, open-shell LED, HFLD
   Martin Brehm           : Molecular dynamics
   Dmytro Bykov           : SCF Hessian
   Vijay G. Chilkuri      : MRCI spin determinant printing, contributions to CSF-ICE
   Dipayan Datta          : RHF DLPNO-CCSD density
   Achintya Kumar Dutta   : EOM-CC, STEOM-CC
   Dmitry Ganyushin       : Spin-Orbit,Spin-Spin,Magnetic field MRCI
   Miquel Garcia          : C-PCM and meta-GGA Hessian, CC/C-PCM, Gaussian charge scheme
   Yang Guo               : DLPNO-NEVPT2, F12-NEVPT2, CIM, IAO-localization
   Andreas Hansen         : Spin unrestricted coupled pair/coupled cluster methods
   Benjamin Helmich-Paris : MC-RPA, TRAH-SCF, COSX integrals
   Lee Huntington         : MR-EOM, pCC
   Robert Izsak           : Overlap fitted RIJCOSX, COSX-SCS-MP3, EOM
   Marcus Kettner         : VPT2
   Christian Kollmar      : KDIIS, OOCD, Brueckner-CCSD(T), CCSD density, CASPT2, CASPT2-K
   Simone Kossmann        : Meta GGA functionals, TD-DFT gradient, OOMP2, MP2 Hessian
   Martin Krupicka        : Initial AUTO-CI
   Lucas Lang             : DCDCAS
   Marvin Lechner         : AUTO-CI (C++ implementation), FIC-MRCC
   Dagmar Lenk            : GEPOL surface, SMD
   Dimitrios Liakos       : Extrapolation schemes; Compound Job, initial MDCI parallelization
   Dimitrios Manganas     : Further ROCIS development; embedding schemes
   Dimitrios Pantazis     : SARC Basis sets
   Anastasios Papadopoulos: AUTO-CI, single reference methods and gradients
   Taras Petrenko         : DFT Hessian,TD-DFT gradient, ASA, ECA, R-Raman, ABS, FL, XAS/XES, NRVS
   Peter Pinski           : DLPNO-MP2, DLPNO-MP2 Gradient
   Christoph Reimann      : Effective Core Potentials
   Marius Retegan         : Local ZFS, SOC
   Christoph Riplinger    : Optimizer, TS searches, QM/MM, DLPNO-CCSD(T), (RO)-DLPNO pert. Triples
   Tobias Risthaus        : Range-separated hybrids, TD-DFT gradient, RPA, STAB
   Michael Roemelt        : Original ROCIS implementation
   Masaaki Saitow         : Open-shell DLPNO-CCSD energy and density
   Barbara Sandhoefer     : DKH picture change effects
   Avijit Sen             : IP-ROCIS
   Kantharuban Sivalingam : CASSCF convergence, NEVPT2, FIC-MRCI
   Bernardo de Souza      : ESD, SOC TD-DFT
   Georgi Stoychev        : AutoAux, RI-MP2 NMR, DLPNO-MP2 response
   Willem Van den Heuvel  : Paramagnetic NMR
   Boris Wezisla          : Elementary symmetry handling
   Frank Wennmohs         : Technical directorship


 We gratefully acknowledge several colleagues who have allowed us to
 interface, adapt or use parts of their codes:
   Stefan Grimme, W. Hujo, H. Kruse, P. Pracht,  : VdW corrections, initial TS optimization,
                  C. Bannwarth, S. Ehlert          DFT functionals, gCP, sTDA/sTD-DF
   Ed Valeev, F. Pavosevic, A. Kumar             : LibInt (2-el integral package), F12 methods
   Garnet Chan, S. Sharma, J. Yang, R. Olivares  : DMRG
   Ulf Ekstrom                                   : XCFun DFT Library
   Mihaly Kallay                                 : mrcc  (arbitrary order and MRCC methods)
   Jiri Pittner, Ondrej Demel                    : Mk-CCSD
   Frank Weinhold                                : gennbo (NPA and NBO analysis)
   Christopher J. Cramer and Donald G. Truhlar   : smd solvation model
   Lars Goerigk                                  : TD-DFT with DH, B97 family of functionals
   V. Asgeirsson, H. Jonsson                     : NEB implementation
   FAccTs GmbH                                   : IRC, NEB, NEB-TS, DLPNO-Multilevel, CI-OPT
                                                   MM, QMMM, 2- and 3-layer-ONIOM, Crystal-QMMM,
                                                   LR-CPCM, SF, NACMEs, symmetry and pop. for TD-DFT,
                                                   nearIR, NL-DFT gradient (VV10), updates on ESD,
                                                   ML-optimized integration grids
   S Lehtola, MJT Oliveira, MAL Marques          : LibXC Library
   Liviu Ungur et al                             : ANISO software


 Your calculation uses the libint2 library for the computation of 2-el integrals
 For citations please refer to: http://libint.valeyev.net

 Your ORCA version has been built with support for libXC version: 5.1.0
 For citations please refer to: https://tddft.org/programs/libxc/

 This ORCA versions uses:
   CBLAS   interface :  Fast vector & matrix operations
   LAPACKE interface :  Fast linear algebra routines
   SCALAPACK package :  Parallel linear algebra routines
   Shared memory     :  Shared parallel matrices
   BLAS/LAPACK       :  OpenBLAS 0.3.15  USE64BITINT DYNAMIC_ARCH NO_AFFINITY Zen SINGLE_THREADED
        Core in use  :  Zen
   Copyright (c) 2011-2014, The OpenBLAS Project




***************************************
The coordinates will be read from file: opt.xyz
***************************************


XCFun DFT library Copyright 2009-2010 Ulf Ekstrom and contributors.
See http://admol.org/xcfun for more information.
This is free software; see the source code for copying conditions.
There is ABSOLUTELY NO WARRANTY; not even for MERCHANTABILITY or FITNESS FOR A PARTICULAR PURPOSE.
For details see the documentation.
Scientific users of this library should cite U. Ekstrom, L. Visscher, R. Bast, A. J. Thorvaldsen and K. Ruud;
J.Chem.Theor.Comp. 2010, DOI: 10.1021/ct100117s
XCFun Version 0.99 

================================================================================

----- Orbital basis set information -----
Your calculation utilizes the basis: def2-TZVP
   F. Weigend and R. Ahlrichs, Phys. Chem. Chem. Phys. 7, 3297 (2005).

----- AuxJ basis set information -----
Your calculation utilizes the auxiliary basis: def2/J
   F. Weigend, Phys. Chem. Chem. Phys. 8, 1057 (2006).

================================================================================
                                        WARNINGS
                       Please study these warnings very carefully!
================================================================================


WARNING: your system is open-shell and RHF/RKS was chosen
  ===> : WILL SWITCH to UHF/UKS


WARNING: Geometry Optimization
  ===> : Switching off AutoStart
         For restart on a previous wavefunction, please use MOREAD

WARNING: Minnesota functionals are quite sensitive to the integration grid.
         see SE Wheeler, KN Houk, JCTC 2010, 6, 395,
             N Mardirossian, M Head-Gordon, JCTC 2016, 12, 4303.
         DEFGRID3 seems to be a minimum grid for reliable results with these functionals!
  ===> : Please increase the integration grid!


INFO   : the flag for use of the SHARK integral package has been found!

================================================================================
                                       INPUT FILE
================================================================================
NAME = freq.inp
|  1> ! M062X def2-TZVP OPT FREQ
|  2> %pal nprocs 16 end
|  3> *XYZFile 1 2 opt.xyz
|  4> 
|  5>                          ****END OF INPUT****
================================================================================

                       *****************************
                       * Geometry Optimization Run *
                       *****************************

Geometry optimization settings:
Update method            Update   .... BFGS
Choice of coordinates    CoordSys .... Z-matrix Internals
Initial Hessian          InHess   .... Almoef's Model

Convergence Tolerances:
Energy Change            TolE     ....  5.0000e-06 Eh
Max. Gradient            TolMAXG  ....  3.0000e-04 Eh/bohr
RMS Gradient             TolRMSG  ....  1.0000e-04 Eh/bohr
Max. Displacement        TolMAXD  ....  4.0000e-03 bohr
RMS Displacement         TolRMSD  ....  2.0000e-03 bohr
Strict Convergence                ....  False
------------------------------------------------------------------------------
                        ORCA OPTIMIZATION COORDINATE SETUP
------------------------------------------------------------------------------

The optimization will be done in new redundant internal coordinates
Making redundant internal coordinates   ...  (new redundants) done
Evaluating the initial hessian          ...  (Almloef) done
Evaluating the coordinates              ...  done
Calculating the B-matrix                .... done
Calculating the G-matrix                .... done
Diagonalizing the G-matrix              .... done
Small eigenvalue found = 6.201e-03
Small eigenvalue found = 6.574e-03
Small eigenvalue found = 1.030e-02
Small eigenvalue found = 2.351e-02
Small eigenvalue found = 2.462e-02
The first mode is                       ....   70
The number of degrees of freedom        ....   93

    -----------------------------------------------------------------
                    Redundant Internal Coordinates


    -----------------------------------------------------------------
         Definition                    Initial Value    Approx d2E/dq
    -----------------------------------------------------------------
      1. B(C   1,N   0)                  1.4350         0.474339   
      2. B(C   2,C   1)                  1.5450         0.353522   
      3. B(O   3,C   2)                  1.2314         1.001946   
      4. B(C   4,C   1)                  1.5847         0.305617   
      5. B(C   5,C   4)                  1.5315         0.371512   
      6. B(C   6,C   5)                  1.5439         0.354978   
      7. B(C   7,C   6)                  1.5811         0.309639   
      8. B(N   8,C   7)                  1.4305         0.482172   
      9. B(H   9,N   8)                  1.0129         0.428078   
     10. B(H  10,N   0)                  1.0168         0.422108   
     11. B(C  11,N   0)                  1.3885         0.562737   
     12. B(N  12,C   2)                  1.3565         0.632888   
     13. B(H  13,N  12)                  1.0105         0.431858   
     14. B(O  14,C  11)                  1.2279         1.014992   
     15. B(H  15,N   8)                  1.0130         0.427967   
     16. B(C  16,N  12)                  1.4657         0.423793   
     17. B(H  17,C  16)                  1.0947         0.353914   
     18. B(H  18,C  16)                  1.0925         0.356867   
     19. B(H  19,C  16)                  1.0898         0.360418   
     20. B(C  20,C  11)                  1.5166         0.392403   
     21. B(H  21,C  20)                  1.0916         0.357991   
     22. B(H  22,C  20)                  1.0950         0.353538   
     23. B(H  23,C  20)                  1.0926         0.356715   
     24. B(H  24,C   1)                  1.0966         0.351529   
     25. B(H  25,C   4)                  1.0953         0.353170   
     26. B(H  26,C   4)                  1.0953         0.353122   
     27. B(H  27,C   5)                  1.0950         0.353564   
     28. B(H  28,C   5)                  1.0959         0.352398   
     29. B(H  29,C   6)                  1.0950         0.353558   
     30. B(H  30,C   6)                  1.0950         0.353527   
     31. B(H  31,C   7)                  1.0942         0.354579   
     32. B(H  32,C   7)                  1.0933         0.355711   
     33. A(C   1,N   0,C  11)          122.6446         0.401519   
     34. A(H  10,N   0,C  11)          121.6966         0.351341   
     35. A(C   1,N   0,H  10)          115.6497         0.341388   
     36. A(N   0,C   1,C   4)          113.9626         0.363446   
     37. A(N   0,C   1,C   2)          106.7207         0.372641   
     38. A(C   4,C   1,H  24)          104.9308         0.312641   
     39. A(N   0,C   1,H  24)          108.2307         0.334004   
     40. A(C   2,C   1,H  24)          112.8813         0.320135   
     41. A(C   2,C   1,C   4)          110.2412         0.347909   
     42. A(C   1,C   2,N  12)          115.5278         0.391772   
     43. A(C   1,C   2,O   3)          119.7744         0.424949   
     44. A(O   3,C   2,N  12)          124.6697         0.469127   
     45. A(H  25,C   4,H  26)          107.5383         0.289066   
     46. A(C   5,C   4,H  26)          111.2351         0.322985   
     47. A(C   1,C   4,C   5)          114.4786         0.350834   
     48. A(C   1,C   4,H  25)          107.5058         0.312877   
     49. A(C   1,C   4,H  26)          105.0296         0.312870   
     50. A(C   5,C   4,H  25)          110.6665         0.322993   
     51. A(H  27,C   5,H  28)          107.0086         0.289023   
     52. A(C   6,C   5,H  27)          109.6021         0.320652   
     53. A(C   4,C   5,H  27)          111.2335         0.323052   
     54. A(C   6,C   5,H  28)          109.7182         0.320479   
     55. A(C   4,C   5,C   6)          109.4431         0.359859   
     56. A(C   4,C   5,H  28)          109.7998         0.322877   
     57. A(C   5,C   6,H  30)          110.7781         0.320647   
     58. A(C   7,C   6,H  29)          108.4046         0.313597   
     59. A(C   5,C   6,H  29)          110.9058         0.320651   
     60. A(C   5,C   6,C   7)          110.0367         0.348918   
     61. A(H  29,C   6,H  30)          107.9134         0.289167   
     62. A(C   7,C   6,H  30)          108.7245         0.313592   
     63. A(C   6,C   7,H  32)          108.9231         0.313905   
     64. A(N   8,C   7,H  31)          109.2277         0.335396   
     65. A(N   8,C   7,H  32)          109.0482         0.335574   
     66. A(C   6,C   7,H  31)          108.6161         0.313743   
     67. A(H  31,C   7,H  32)          109.2298         0.289577   
     68. A(C   6,C   7,N   8)          111.7616         0.365281   
     69. A(C   7,N   8,H   9)          120.1226         0.343132   
     70. A(H   9,N   8,H  15)          115.7166         0.302204   
     71. A(C   7,N   8,H  15)          120.0744         0.343117   
     72. A(O  14,C  11,C  20)          123.7729         0.433986   
     73. A(N   0,C  11,C  20)          116.3585         0.390873   
     74. A(N   0,C  11,O  14)          119.8603         0.460238   
     75. A(C   2,N  12,H  13)          118.1823         0.359807   
     76. A(H  13,N  12,C  16)          118.0706         0.336308   
     77. A(C   2,N  12,C  16)          122.7336         0.401859   
     78. A(H  18,C  16,H  19)          109.8470         0.290468   
     79. A(H  17,C  16,H  19)          108.8706         0.290090   
     80. A(N  12,C  16,H  19)          108.3945         0.329189   
     81. A(H  17,C  16,H  18)          109.2402         0.289639   
     82. A(N  12,C  16,H  18)          109.4653         0.328651   
     83. A(N  12,C  16,H  17)          111.0073         0.328201   
     84. A(H  21,C  20,H  22)          107.6250         0.289734   
     85. A(C  11,C  20,H  22)          108.1797         0.325964   
     86. A(C  11,C  20,H  21)          108.9169         0.326636   
     87. A(H  22,C  20,H  23)          108.6743         0.289572   
     88. A(H  21,C  20,H  23)          110.0130         0.290141   
     89. A(C  11,C  20,H  23)          113.2643         0.326444   
     90. D(C   2,C   1,N   0,H  10)     18.3596         0.019232   
     91. D(C   2,C   1,N   0,C  11)   -162.7209         0.019232   
     92. D(C   4,C   1,N   0,C  11)     75.3523         0.019232   
     93. D(C   4,C   1,N   0,H  10)   -103.5672         0.019232   
     94. D(H  24,C   1,N   0,C  11)    -40.9588         0.019232   
     95. D(H  24,C   1,N   0,H  10)    140.1217         0.019232   
     96. D(O   3,C   2,C   1,N   0)    -29.9023         0.009427   
     97. D(N  12,C   2,C   1,N   0)    151.9382         0.009427   
     98. D(N  12,C   2,C   1,C   4)    -83.8151         0.009427   
     99. D(N  12,C   2,C   1,H  24)     33.1654         0.009427   
    100. D(O   3,C   2,C   1,C   4)     94.3444         0.009427   
    101. D(O   3,C   2,C   1,H  24)   -148.6751         0.009427   
    102. D(C   5,C   4,C   1,N   0)     60.6934         0.007743   
    103. D(C   5,C   4,C   1,C   2)    -59.2704         0.007743   
    104. D(H  26,C   4,C   1,C   2)    178.4328         0.007743   
    105. D(C   5,C   4,C   1,H  24)    178.9114         0.007743   
    106. D(H  25,C   4,C   1,H  24)    -57.7069         0.007743   
    107. D(H  25,C   4,C   1,C   2)     64.1112         0.007743   
    108. D(H  25,C   4,C   1,N   0)   -175.9250         0.007743   
    109. D(H  26,C   4,C   1,H  24)     56.6146         0.007743   
    110. D(H  26,C   4,C   1,N   0)    -61.6034         0.007743   
    111. D(H  28,C   5,C   4,H  26)     63.9192         0.011028   
    112. D(H  28,C   5,C   4,H  25)   -176.6020         0.011028   
    113. D(H  28,C   5,C   4,C   1)    -54.9358         0.011028   
    114. D(H  27,C   5,C   4,H  25)    -58.3454         0.011028   
    115. D(H  27,C   5,C   4,C   1)     63.3209         0.011028   
    116. D(C   6,C   5,C   4,H  26)    -56.5694         0.011028   
    117. D(H  27,C   5,C   4,H  26)   -177.8242         0.011028   
    118. D(C   6,C   5,C   4,H  25)     62.9094         0.011028   
    119. D(C   6,C   5,C   4,C   1)   -175.4244         0.011028   
    120. D(C   7,C   6,C   5,C   4)    177.2832         0.010130   
    121. D(H  30,C   6,C   5,H  27)    179.2648         0.010130   
    122. D(H  30,C   6,C   5,C   4)     57.0285         0.010130   
    123. D(H  29,C   6,C   5,H  28)    176.6823         0.010130   
    124. D(H  29,C   6,C   5,H  27)     59.4570         0.010130   
    125. D(H  29,C   6,C   5,C   4)    -62.7793         0.010130   
    126. D(C   7,C   6,C   5,H  28)     56.7448         0.010130   
    127. D(H  30,C   6,C   5,H  28)    -63.5098         0.010130   
    128. D(C   7,C   6,C   5,H  27)    -60.4805         0.010130   
    129. D(H  32,C   7,C   6,H  30)     62.5179         0.007922   
    130. D(H  32,C   7,C   6,C   5)    -58.9703         0.007922   
    131. D(H  31,C   7,C   6,H  30)   -178.6084         0.007922   
    132. D(H  31,C   7,C   6,H  29)    -61.5395         0.007922   
    133. D(H  31,C   7,C   6,C   5)     59.9033         0.007922   
    134. D(N   8,C   7,C   6,H  30)    -58.0353         0.007922   
    135. D(H  32,C   7,C   6,H  29)    179.5868         0.007922   
    136. D(N   8,C   7,C   6,H  29)     59.0336         0.007922   
    137. D(N   8,C   7,C   6,C   5)   -179.5235         0.007922   
    138. D(H  15,N   8,C   7,H  32)    163.3606         0.019891   
    139. D(H  15,N   8,C   7,H  31)     44.0566         0.019891   
    140. D(H  15,N   8,C   7,C   6)    -76.1592         0.019891   
    141. D(H   9,N   8,C   7,H  32)    -40.3342         0.019891   
    142. D(H   9,N   8,C   7,H  31)   -159.6383         0.019891   
    143. D(H   9,N   8,C   7,C   6)     80.1460         0.019891   
    144. D(C  20,C  11,N   0,H  10)     -4.7134         0.025305   
    145. D(C  20,C  11,N   0,C   1)    176.4315         0.025305   
    146. D(O  14,C  11,N   0,H  10)    176.2891         0.025305   
    147. D(O  14,C  11,N   0,C   1)     -2.5661         0.025305   
    148. D(C  16,N  12,C   2,O   3)      4.7173         0.032541   
    149. D(C  16,N  12,C   2,C   1)   -177.2252         0.032541   
    150. D(H  13,N  12,C   2,O   3)    172.9686         0.032541   
    151. D(H  13,N  12,C   2,C   1)     -8.9739         0.032541   
    152. D(H  17,C  16,N  12,C   2)     97.2911         0.015313   
    153. D(H  19,C  16,N  12,H  13)    169.5015         0.015313   
    154. D(H  19,C  16,N  12,C   2)    -22.2348         0.015313   
    155. D(H  18,C  16,N  12,H  13)     49.6988         0.015313   
    156. D(H  18,C  16,N  12,C   2)   -142.0376         0.015313   
    157. D(H  17,C  16,N  12,H  13)    -70.9726         0.015313   
    158. D(H  23,C  20,C  11,O  14)   -164.9222         0.011448   
    159. D(H  23,C  20,C  11,N   0)     16.1236         0.011448   
    160. D(H  22,C  20,C  11,O  14)     74.5456         0.011448   
    161. D(H  22,C  20,C  11,N   0)   -104.4086         0.011448   
    162. D(H  21,C  20,C  11,O  14)    -42.1616         0.011448   
    163. D(H  21,C  20,C  11,N   0)    138.8842         0.011448   
    -----------------------------------------------------------------

Number of atoms                         .... 33
Number of degrees of freedom            .... 163

         *************************************************************
         *                GEOMETRY OPTIMIZATION CYCLE   1            *
         *************************************************************
---------------------------------
CARTESIAN COORDINATES (ANGSTROEM)
---------------------------------
  N     -7.877822    0.868081    0.069798
  C     -6.446808    0.881222    0.175807
  C     -6.112596    0.859714    1.684091
  O     -6.890456    1.371222    2.490157
  C     -5.761349    2.129137   -0.519886
  C     -6.182959    3.485647    0.052513
  C     -5.539998    4.616540   -0.778935
  C     -6.021734    6.023916   -0.243127
  N     -5.455340    7.100302   -0.996140
  H     -5.853674    7.359766   -1.890585
  H     -8.383843    1.137654    0.909474
  C     -8.538825    0.533321   -1.104459
  N     -4.925612    0.290700    2.011777
  H     -4.413769   -0.195659    1.288829
  O     -7.893841    0.278941   -2.117906
  H     -4.489297    7.368281   -0.850836
  C     -4.478392    0.132906    3.398599
  H     -4.696129   -0.873968    3.769004
  H     -3.402475    0.313082    3.456881
  H     -5.008880    0.857811    4.015584
  C    -10.053034    0.484525   -1.034380
  H    -10.463890    0.932778   -1.940942
  H    -10.360476   -0.566264   -1.015388
  H    -10.460539    0.984245   -0.152376
  H     -6.055080    0.008472   -0.360192
  H     -4.677062    1.996200   -0.440467
  H     -6.027440    2.045483   -1.579102
  H     -5.882787    3.584280    1.100923
  H     -7.274453    3.578607    0.021471
  H     -4.447681    4.577103   -0.713422
  H     -5.817493    4.528532   -1.834544
  H     -5.721622    6.120131    0.804710
  H     -7.111711    6.075265   -0.311696

----------------------------
CARTESIAN COORDINATES (A.U.)
----------------------------
  NO LB      ZA    FRAG     MASS         X           Y           Z
   0 N     7.0000    0    14.007  -14.886926    1.640435    0.131899
   1 C     6.0000    0    12.011  -12.182702    1.665269    0.332227
   2 C     6.0000    0    12.011  -11.551132    1.624623    3.182471
   3 O     8.0000    0    15.999  -13.021074    2.591234    4.705715
   4 C     6.0000    0    12.011  -10.887372    4.023485   -0.982443
   5 C     6.0000    0    12.011  -11.684099    6.586917    0.099235
   6 C     6.0000    0    12.011  -10.469080    8.723997   -1.471975
   7 C     6.0000    0    12.011  -11.379428   11.383552   -0.459444
   8 N     7.0000    0    14.007  -10.309099   13.417626   -1.882431
   9 H     1.0000    0     1.008  -11.061841   13.907942   -3.572688
  10 H     1.0000    0     1.008  -15.843167    2.149855    1.718657
  11 C     6.0000    0    12.011  -16.136040    1.007830   -2.087124
  12 N     7.0000    0    14.007   -9.308057    0.549344    3.801709
  13 H     1.0000    0     1.008   -8.340815   -0.369741    2.435534
  14 O     8.0000    0    15.999  -14.917198    0.527122   -4.002263
  15 H     1.0000    0     1.008   -8.483542   13.924033   -1.607846
  16 C     6.0000    0    12.011   -8.462934    0.251155    6.422421
  17 H     1.0000    0     1.008   -8.874398   -1.651561    7.122385
  18 H     1.0000    0     1.008   -6.429745    0.591639    6.532559
  19 H     1.0000    0     1.008   -9.465412    1.621028    7.588353
  20 C     6.0000    0    12.011  -18.997481    0.915620   -1.954695
  21 H     1.0000    0     1.008  -19.773886    1.762696   -3.667849
  22 H     1.0000    0     1.008  -19.578461   -1.070084   -1.918805
  23 H     1.0000    0     1.008  -19.767554    1.859953   -0.287949
  24 H     1.0000    0     1.008  -11.442443    0.016009   -0.680664
  25 H     1.0000    0     1.008   -8.838366    3.772270   -0.832363
  26 H     1.0000    0     1.008  -11.390211    3.865402   -2.984070
  27 H     1.0000    0     1.008  -11.116856    6.773307    2.080442
  28 H     1.0000    0     1.008  -13.746724    6.762586    0.040575
  29 H     1.0000    0     1.008   -8.404898    8.649471   -1.348173
  30 H     1.0000    0     1.008  -10.993469    8.557685   -3.466785
  31 H     1.0000    0     1.008  -10.812299   11.565371    1.520681
  32 H     1.0000    0     1.008  -13.439186   11.480587   -0.589020

--------------------------------
INTERNAL COORDINATES (ANGSTROEM)
--------------------------------
 N      0   0   0     0.000000000000     0.00000000     0.00000000
 C      1   0   0     1.434995049227     0.00000000     0.00000000
 C      2   1   0     1.545018317142   106.72066532     0.00000000
 O      3   2   1     1.231442099476   119.77436884   330.09771403
 C      2   1   3     1.584655608781   113.96259112   238.07322563
 C      5   2   1     1.531507549666   114.47855582    60.69337967
 C      6   5   2     1.543899604019   109.44307312   184.57562298
 C      7   6   5     1.581096496559   110.03669578   177.28318145
 N      8   7   6     1.430536686930   111.76155593   180.47649863
 H      9   8   7     1.012928175360   120.12255967    80.14595852
 H      1   2   3     1.016751333313   115.64965220    18.35960636
 C      1   2   3     1.388476863760   122.64462307   197.27907153
 N      3   2   1     1.356497413129   115.52778269   151.93821715
 H     13   3   2     1.010535563577   118.18225238   351.02609239
 O     12   1   2     1.227920773350   119.86033909   357.43387621
 H      9   8   7     1.012998720328   120.07435605   283.84080813
 C     13   3   2     1.465666715791   122.73363550   182.77483345
 H     17  13   3     1.094716703571   111.00728721    97.29105507
 H     17  13   3     1.092454862462   109.46527757   217.96244269
 H     17  13   3     1.089759536668   108.39447684   337.76520441
 C     12   1   2     1.516615081504   116.35854655   176.43146729
 H     21  12   1     1.091599171030   108.91687073   138.88422938
 H     21  12   1     1.095006309846   108.17968344   255.59142936
 H     21  12   1     1.092570895200   113.26427409    16.12364294
 H      2   1   3     1.096557608888   108.23074736   121.76208462
 H      5   2   1     1.095289296463   107.50579237   184.07504732
 H      5   2   1     1.095326486697   105.02957390   298.39657323
 H      6   5   2     1.094986035321   111.23346963    63.32085089
 H      6   5   2     1.095885272372   109.79981008   305.06422237
 H      7   6   5     1.094991138373   110.90584527   297.22065542
 H      7   6   5     1.095014945134   110.77810065    57.02848839
 H      8   7   6     1.094205719839   108.61612926    59.90333717
 H      8   7   6     1.093338237235   108.92314218   301.02967335

---------------------------
INTERNAL COORDINATES (A.U.)
---------------------------
 N      0   0   0     0.000000000000     0.00000000     0.00000000
 C      1   0   0     2.711747646571     0.00000000     0.00000000
 C      2   1   0     2.919661491290   106.72066532     0.00000000
 O      3   2   1     2.327088317791   119.77436884   330.09771403
 C      2   1   3     2.994565117179   113.96259112   238.07322563
 C      5   2   1     2.894129840902   114.47855582    60.69337967
 C      6   5   2     2.917547429866   109.44307312   184.57562298
 C      7   6   5     2.987839369799   110.03669578   177.28318145
 N      8   7   6     2.703322562825   111.76155593   180.47649863
 H      9   8   7     1.914156844762   120.12255967    80.14595852
 H      1   2   3     1.921381566261   115.64965220    18.35960636
 C      1   2   3     2.623841015792   122.64462307   197.27907153
 N      3   2   1     2.563408612187   115.52778269   151.93821715
 H     13   3   2     1.909635463748   118.18225238   351.02609239
 O     12   1   2     2.320433975785   119.86033909   357.43387621
 H      9   8   7     1.914290155433   120.07435605   283.84080813
 C     13   3   2     2.769708696449   122.73363550   182.77483345
 H     17  13   3     2.068714763978   111.00728721    97.29105507
 H     17  13   3     2.064440503723   109.46527757   217.96244269
 H     17  13   3     2.059347076132   108.39447684   337.76520441
 C     12   1   2     2.865987154618   116.35854655   176.43146729
 H     21  12   1     2.062823481263   108.91687073   138.88422938
 H     21  12   1     2.069262040525   108.17968344   255.59142936
 H     21  12   1     2.064659773821   113.26427409    16.12364294
 H      2   1   3     2.072193570865   108.23074736   121.76208462
 H      5   2   1     2.069796807730   107.50579237   184.07504732
 H      5   2   1     2.069867087088   105.02957390   298.39657323
 H      6   5   2     2.069223727224   111.23346963    63.32085089
 H      6   5   2     2.070923038981   109.79981008   305.06422237
 H      7   6   5     2.069233370595   110.90584527   297.22065542
 H      7   6   5     2.069278358854   110.77810065    57.02848839
 H      8   7   6     2.067749144666   108.61612926    59.90333717
 H      8   7   6     2.066109840119   108.92314218   301.02967335

---------------------
BASIS SET INFORMATION
---------------------
There are 4 groups of distinct atoms

 Group   1 Type N   : 11s6p2d1f contracted to 5s3p2d1f pattern {62111/411/11/1}
 Group   2 Type C   : 11s6p2d1f contracted to 5s3p2d1f pattern {62111/411/11/1}
 Group   3 Type O   : 11s6p2d1f contracted to 5s3p2d1f pattern {62111/411/11/1}
 Group   4 Type H   : 5s1p contracted to 3s1p pattern {311/1}

Atom   0N    basis set group =>   1
Atom   1C    basis set group =>   2
Atom   2C    basis set group =>   2
Atom   3O    basis set group =>   3
Atom   4C    basis set group =>   2
Atom   5C    basis set group =>   2
Atom   6C    basis set group =>   2
Atom   7C    basis set group =>   2
Atom   8N    basis set group =>   1
Atom   9H    basis set group =>   4
Atom  10H    basis set group =>   4
Atom  11C    basis set group =>   2
Atom  12N    basis set group =>   1
Atom  13H    basis set group =>   4
Atom  14O    basis set group =>   3
Atom  15H    basis set group =>   4
Atom  16C    basis set group =>   2
Atom  17H    basis set group =>   4
Atom  18H    basis set group =>   4
Atom  19H    basis set group =>   4
Atom  20C    basis set group =>   2
Atom  21H    basis set group =>   4
Atom  22H    basis set group =>   4
Atom  23H    basis set group =>   4
Atom  24H    basis set group =>   4
Atom  25H    basis set group =>   4
Atom  26H    basis set group =>   4
Atom  27H    basis set group =>   4
Atom  28H    basis set group =>   4
Atom  29H    basis set group =>   4
Atom  30H    basis set group =>   4
Atom  31H    basis set group =>   4
Atom  32H    basis set group =>   4
---------------------------------
AUXILIARY/J BASIS SET INFORMATION
---------------------------------
There are 4 groups of distinct atoms

 Group   1 Type N   : 12s5p4d2f1g contracted to 6s4p3d1f1g pattern {711111/2111/211/2/1}
 Group   2 Type C   : 12s5p4d2f1g contracted to 6s4p3d1f1g pattern {711111/2111/211/2/1}
 Group   3 Type O   : 12s5p4d2f1g contracted to 6s4p3d1f1g pattern {711111/2111/211/2/1}
 Group   4 Type H   : 5s2p1d contracted to 3s1p1d pattern {311/2/1}

Atom   0N    basis set group =>   1
Atom   1C    basis set group =>   2
Atom   2C    basis set group =>   2
Atom   3O    basis set group =>   3
Atom   4C    basis set group =>   2
Atom   5C    basis set group =>   2
Atom   6C    basis set group =>   2
Atom   7C    basis set group =>   2
Atom   8N    basis set group =>   1
Atom   9H    basis set group =>   4
Atom  10H    basis set group =>   4
Atom  11C    basis set group =>   2
Atom  12N    basis set group =>   1
Atom  13H    basis set group =>   4
Atom  14O    basis set group =>   3
Atom  15H    basis set group =>   4
Atom  16C    basis set group =>   2
Atom  17H    basis set group =>   4
Atom  18H    basis set group =>   4
Atom  19H    basis set group =>   4
Atom  20C    basis set group =>   2
Atom  21H    basis set group =>   4
Atom  22H    basis set group =>   4
Atom  23H    basis set group =>   4
Atom  24H    basis set group =>   4
Atom  25H    basis set group =>   4
Atom  26H    basis set group =>   4
Atom  27H    basis set group =>   4
Atom  28H    basis set group =>   4
Atom  29H    basis set group =>   4
Atom  30H    basis set group =>   4
Atom  31H    basis set group =>   4
Atom  32H    basis set group =>   4


           ************************************************************
           *        Program running with 16 parallel MPI-processes    *
           *              working on a common directory               *
           ************************************************************
------------------------------------------------------------------------------
                           ORCA GTO INTEGRAL CALCULATION
                           -- RI-GTO INTEGRALS CHOSEN --
------------------------------------------------------------------------------
------------------------------------------------------------------------------
                   ___                                                        
                  /   \      - P O W E R E D   B Y -                         
                 /     \                                                     
                 |  |  |   _    _      __       _____    __    __             
                 |  |  |  | |  | |    /  \     |  _  \  |  |  /  |          
                  \  \/   | |  | |   /    \    | | | |  |  | /  /          
                 / \  \   | |__| |  /  /\  \   | |_| |  |  |/  /          
                |  |  |   |  __  | /  /__\  \  |    /   |      \           
                |  |  |   | |  | | |   __   |  |    \   |  |\   \          
                \     /   | |  | | |  |  |  |  | |\  \  |  | \   \       
                 \___/    |_|  |_| |__|  |__|  |_| \__\ |__|  \__/        
                                                                              
                      - O R C A' S   B I G   F R I E N D -                    
                                      &                                       
                       - I N T E G R A L  F E E D E R -                       
                                                                              
 v1 FN, 2020, v2 2021                                                         
------------------------------------------------------------------------------


Reading SHARK input file freq.SHARKINP.tmp ... ok
----------------------
SHARK INTEGRAL PACKAGE
----------------------

Number of atoms                             ...     33
Number of basis functions                   ...    548
Number of shells                            ...    230
Maximum angular momentum                    ...      3
Integral batch strategy                     ... SHARK/LIBINT Hybrid
RI-J (if used) integral strategy            ... SPLIT-RIJ (Revised 2003 algorithm where possible)
Printlevel                                  ...      1
Contraction scheme used                     ... SEGMENTED contraction
Coulomb Range Separation                    ... NOT USED
Exchange Range Separation                   ... NOT USED
Finite Nucleus Model                        ... NOT USED
Auxiliary Coulomb fitting basis             ... AVAILABLE
   # of basis functions in Aux-J            ...    895
   # of shells in Aux-J                     ...    305
   Maximum angular momentum in Aux-J        ...      4
Auxiliary J/K fitting basis                 ... NOT available
Auxiliary Correlation fitting basis         ... NOT available
Auxiliary 'external' fitting basis          ... NOT available
Integral threshold                          ...     2.500000e-11
Primitive cut-off                           ...     2.500000e-12
Primitive pair pre-selection threshold      ...     2.500000e-12

Calculating pre-screening integrals         ... done (  0.0 sec) Dimension = 230
Organizing shell pair data                  ... done (  0.1 sec)
Shell pair information
Total number of shell pairs                 ...     26565
Shell pairs after pre-screening             ...     19931
Total number of primitive shell pairs       ...     78180
Primitive shell pairs kept                  ...     40871
          la=0 lb=0:   6052 shell pairs
          la=1 lb=0:   5922 shell pairs
          la=1 lb=1:   1497 shell pairs
          la=2 lb=0:   2624 shell pairs
          la=2 lb=1:   1309 shell pairs
          la=2 lb=2:    305 shell pairs
          la=3 lb=0:   1250 shell pairs
          la=3 lb=1:    624 shell pairs
          la=3 lb=2:    276 shell pairs
          la=3 lb=3:     72 shell pairs

Calculating one electron integrals          ... done (  0.0 sec)
Calculating RI/J V-Matrix + Cholesky decomp.... done (  0.0 sec)
Calculating Nuclear repulsion               ... done (  0.0 sec) ENN=    931.164790344700 Eh

SHARK setup successfully completed in   0.4 seconds

Maximum memory used throughout the entire GTOINT-calculation: 31.5 MB


           ************************************************************
           *        Program running with 16 parallel MPI-processes    *
           *              working on a common directory               *
           ************************************************************
-------------------------------------------------------------------------------
                                 ORCA SCF
-------------------------------------------------------------------------------

------------
SCF SETTINGS
------------
Hamiltonian:
 Density Functional     Method          .... DFT(GTOs)
 Exchange Functional    Exchange        .... M062X
 Correlation Functional Correlation     .... M062X
 Gradients option       PostSCFGGA      .... off
 Hybrid DFT is turned on
   Fraction HF Exchange ScalHFX         ....  0.540000
   Scaling of DF-GGA-X  ScalDFX         ....  0.460000
   Scaling of DF-GGA-C  ScalDFC         ....  1.000000
   Scaling of DF-LDA-C  ScalLDAC        ....  1.000000
   Perturbative correction              ....  0.000000
   Density functional embedding theory  .... OFF
 RI-approximation to the Coulomb term is turned on
   Number of AuxJ basis functions       .... 895
   RIJ-COSX (HFX calculated with COS-X)).... on


General Settings:
 Integral files         IntName         .... freq
 Hartree-Fock type      HFTyp           .... UHF
 Total Charge           Charge          ....    1
 Multiplicity           Mult            ....    2
 Number of Electrons    NEL             ....  109
 Basis Dimension        Dim             ....  548
 Nuclear Repulsion      ENuc            ....    931.1647903447 Eh

Convergence Acceleration:
 DIIS                   CNVDIIS         .... on
   Start iteration      DIISMaxIt       ....    12
   Startup error        DIISStart       ....  0.200000
   # of expansion vecs  DIISMaxEq       ....     5
   Bias factor          DIISBfac        ....   1.050
   Max. coefficient     DIISMaxC        ....  10.000
 Trust-Rad. Augm. Hess. CNVTRAH         .... auto
   Auto Start mean grad. ratio tolernc. ....  1.125000
   Auto Start start iteration           ....    20
   Auto Start num. interpolation iter.  ....    10
   Max. Number of Micro iterations      ....    16
   Max. Number of Macro iterations      .... Maxiter - #DIIS iter
   Number of Davidson start vectors     ....     2
   Converg. threshold I  (grad. norm)   ....   1.000e-05
   Converg. threshold II (energy diff.) ....   1.000e-08
   Grad. Scal. Fac. for Micro threshold ....   0.100
   Minimum threshold for Micro iter.    ....   0.010
   NR start threshold (gradient norm)   ....   0.001
   Initial trust radius                 ....   0.400
   Minimum AH scaling param. (alpha)    ....   1.000
   Maximum AH scaling param. (alpha)    .... 1000.000
   Orbital update algorithm             .... Taylor
   White noise on init. David. guess    .... on
   Maximum white noise                  ....   0.010
   Quad. conv. algorithm                .... NR
 SOSCF                  CNVSOSCF        .... off
 Level Shifting         CNVShift        .... on
   Level shift para.    LevelShift      ....    0.2500
   Turn off err/grad.   ShiftErr        ....    0.0010
 Zerner damping         CNVZerner       .... off
 Static damping         CNVDamp         .... on
   Fraction old density DampFac         ....    0.7000
   Max. Damping (<1)    DampMax         ....    0.9800
   Min. Damping (>=0)   DampMin         ....    0.0000
   Turn off err/grad.   DampErr         ....    0.1000
 Fernandez-Rico         CNVRico         .... off

SCF Procedure:
 Maximum # iterations   MaxIter         ....   125
 SCF integral mode      SCFMode         .... Direct
   Integral package                     .... SHARK and LIBINT hybrid scheme
 Reset frequency        DirectResetFreq ....    20
 Integral Threshold     Thresh          ....  2.500e-11 Eh
 Primitive CutOff       TCut            ....  2.500e-12 Eh

Convergence Tolerance:
 Convergence Check Mode ConvCheckMode   .... Total+1el-Energy
 Convergence forced     ConvForced      .... 0
 Energy Change          TolE            ....  1.000e-08 Eh
 1-El. energy change                    ....  1.000e-05 Eh
 DIIS Error             TolErr          ....  5.000e-07


Diagonalization of the overlap matrix:
Smallest eigenvalue                        ... 6.054e-05
Time for diagonalization                   ...    0.036 sec
Threshold for overlap eigenvalues          ... 1.000e-08
Number of eigenvalues below threshold      ... 0
Time for construction of square roots      ...    0.024 sec
Total time needed                          ...    0.062 sec

Time for model grid setup =    0.128 sec

------------------------------
INITIAL GUESS: MODEL POTENTIAL
------------------------------
Loading Hartree-Fock densities                     ... done
Calculating cut-offs                               ... done
Initializing the effective Hamiltonian             ... done
Setting up the integral package (SHARK)            ... done
Starting the Coulomb interaction                   ... done (   0.1 sec)
Reading the grid                                   ... done
Mapping shells                                     ... done
Starting the XC term evaluation                    ... done (   0.1 sec)
  promolecular density results
     # of electrons  =    109.995621449
     EX              =    -87.557355008
     EC              =     -3.646586781
     EX+EC           =    -91.203941789
Transforming the Hamiltonian                       ... done (   0.0 sec)
Diagonalizing the Hamiltonian                      ... done (   0.0 sec)
Back transforming the eigenvectors                 ... done (   0.0 sec)
Now organizing SCF variables                       ... done
                      ------------------
                      INITIAL GUESS DONE (   0.4 sec)
                      ------------------
-------------------
DFT GRID GENERATION
-------------------

General Integration Accuracy     IntAcc      ... 4.388
Radial Grid Type                 RadialGrid  ... OptM3 with GC (2021)
Angular Grid (max. ang.)         AngularGrid ... 4 (Lebedev-302)
Angular grid pruning method      GridPruning ... 4 (adaptive)
Weight generation scheme         WeightScheme... Becke
Basis function cutoff            BFCut       ... 1.0000e-11
Integration weight cutoff        WCut        ... 1.0000e-14
Angular grids for H and He will be reduced by one unit
Partially contracted basis set               ... off
Rotationally invariant grid construction     ... off

Total number of grid points                  ...   144729
Total number of batches                      ...     2279
Average number of points per batch           ...       63
Average number of grid points per atom       ...     4386
Time for grid setup =    0.633 sec

--------------------
COSX GRID GENERATION
--------------------

GRIDX 1
-------
General Integration Accuracy     IntAcc      ... 3.816
Radial Grid Type                 RadialGrid  ... OptM3 with GC (2021)
Angular Grid (max. ang.)         AngularGrid ... 1 (Lebedev-50)
Angular grid pruning method      GridPruning ... 4 (adaptive)
Weight generation scheme         WeightScheme... Becke
Basis function cutoff            BFCut       ... 1.0000e-11
Integration weight cutoff        WCut        ... 1.0000e-14
Angular grids for H and He will be reduced by one unit
Partially contracted basis set               ... on
Rotationally invariant grid construction     ... off

Total number of grid points                  ...    18464
Total number of batches                      ...      312
Average number of points per batch           ...       59
Average number of grid points per atom       ...      560
UseSFitting                                  ... on

GRIDX 2
-------
General Integration Accuracy     IntAcc      ... 4.020
Radial Grid Type                 RadialGrid  ... OptM3 with GC (2021)
Angular Grid (max. ang.)         AngularGrid ... 2 (Lebedev-110)
Angular grid pruning method      GridPruning ... 4 (adaptive)
Weight generation scheme         WeightScheme... Becke
Basis function cutoff            BFCut       ... 1.0000e-11
Integration weight cutoff        WCut        ... 1.0000e-14
Angular grids for H and He will be reduced by one unit
Partially contracted basis set               ... on
Rotationally invariant grid construction     ... off

Total number of grid points                  ...    38973
Total number of batches                      ...      624
Average number of points per batch           ...       62
Average number of grid points per atom       ...     1181
UseSFitting                                  ... on

GRIDX 3
-------
General Integration Accuracy     IntAcc      ... 4.338
Radial Grid Type                 RadialGrid  ... OptM3 with GC (2021)
Angular Grid (max. ang.)         AngularGrid ... 3 (Lebedev-194)
Angular grid pruning method      GridPruning ... 4 (adaptive)
Weight generation scheme         WeightScheme... Becke
Basis function cutoff            BFCut       ... 1.0000e-11
Integration weight cutoff        WCut        ... 1.0000e-14
Angular grids for H and He will be reduced by one unit
Partially contracted basis set               ... on
Rotationally invariant grid construction     ... off

Total number of grid points                  ...    85038
Total number of batches                      ...     1345
Average number of points per batch           ...       63
Average number of grid points per atom       ...     2577
UseSFitting                                  ... on

Time for X-Grid setup             =    0.786 sec

--------------
SCF ITERATIONS
--------------
ITER       Energy         Delta-E        Max-DP      RMS-DP      [F,P]     Damp
               ***  Starting incremental Fock matrix formation  ***
  0   -668.3606476487   0.000000000000 0.03851649  0.00039846  0.1473291 0.7000
  1   -668.5488308814  -0.188183232672 0.03966064  0.00032265  0.0701131 0.7000
                               ***Turning on DIIS***
  2   -668.6320284486  -0.083197567143 0.08500111  0.00065551  0.0255331 0.0000
  3   -668.7653573811  -0.133328932544 0.01472486  0.00021036  0.0348027 0.0000
  4   -668.7899324924  -0.024575111326 0.00482787  0.00006429  0.0066427 0.0000
  5   -668.7909459690  -0.001013476589 0.00244910  0.00002774  0.0032190 0.0000
  6   -668.7911543517  -0.000208382655 0.00263691  0.00003029  0.0008388 0.0000
               *** Restarting incremental Fock matrix formation ***
                                   *** Resetting DIIS ***
  7   -668.7913355732  -0.000181221561 0.00122363  0.00001369  0.0018256 0.0000
  8   -668.7913619521  -0.000026378854 0.00048907  0.00000495  0.0014044 0.0000
  9   -668.7913903313  -0.000028379246 0.00098390  0.00001229  0.0002833 0.0000
 10   -668.7914077193  -0.000017387990 0.00045830  0.00000430  0.0008854 0.0000
 11   -668.7914169229  -0.000009203570 0.00087656  0.00000752  0.0005770 0.0000
 12   -668.7914254062  -0.000008483319 0.00051094  0.00000412  0.0003565 0.0000
 13   -668.7914279760  -0.000002569750 0.00043291  0.00000369  0.0001882 0.0000
 14   -668.7914293397  -0.000001363763 0.00044220  0.00000375  0.0001480 0.0000
 15   -668.7914300132  -0.000000673490 0.00012651  0.00000113  0.0000381 0.0000
 16   -668.7914300852  -0.000000071938 0.00003007  0.00000035  0.0000274 0.0000
 17   -668.7914300900  -0.000000004822 0.00005265  0.00000064  0.0000193 0.0000
 18   -668.7914301046  -0.000000014586 0.00001821  0.00000020  0.0000061 0.0000
 19   -668.7914301239  -0.000000019366 0.00000884  0.00000011  0.0000058 0.0000
 20   -668.7914301154   0.000000008569 0.00001095  0.00000011  0.0000040 0.0000
                 **** Energy Check signals convergence ****

               *****************************************************
               *                     SUCCESS                       *
               *           SCF CONVERGED AFTER  21 CYCLES          *
               *****************************************************

Old exchange energy                            =    -48.255623836 Eh
New exchange energy                            =    -48.255635920 Eh
Exchange energy change after final integration =     -0.000012084 Eh
Total energy after final integration           =   -668.791442206 Eh
Final COS-X integration done in                =     4.823 sec

----------------
TOTAL SCF ENERGY
----------------

Total Energy       :         -668.79144221 Eh          -18198.74035 eV

Components:
Nuclear Repulsion  :          931.16479034 Eh           25338.28212 eV
Electronic Energy  :        -1599.95623255 Eh          -43537.02247 eV
One Electron Energy:        -2741.55654064 Eh          -74601.54614 eV
Two Electron Energy:         1141.60030809 Eh           31064.52367 eV
Max COSX asymmetry :            0.00000089 Eh               0.00002 eV

Virial components:
Potential Energy   :        -1333.91088167 Eh          -36297.56042 eV
Kinetic Energy     :          665.11943947 Eh           18098.82007 eV
Virial Ratio       :            2.00552082


DFT components:
N(Alpha)           :       55.000077175117 electrons
N(Beta)            :       54.000078690087 electrons
N(Total)           :      109.000155865203 electrons
E(XC)              :      -45.038197694333 Eh       
DFET-embed. en.    :        0.000000000000 Eh       

---------------
SCF CONVERGENCE
---------------

  Last Energy change         ...   -5.9446e-09  Tolerance :   1.0000e-08
  Last MAX-Density change    ...    0.0000e+00  Tolerance :   1.0000e-07
  Last RMS-Density change    ...    0.0000e+00  Tolerance :   5.0000e-09
  Last DIIS Error            ...    2.2129e-06  Tolerance :   5.0000e-07

             **** THE GBW FILE WAS UPDATED (freq.gbw) ****
             **** DENSITY freq.scfp WAS UPDATED ****
             **** ENERGY FILE WAS UPDATED (freq.en.tmp) ****
----------------------
UHF SPIN CONTAMINATION
----------------------

Warning: in a DFT calculation there is little theoretical justification to 
         calculate <S**2> as in Hartree-Fock theory. We will do it anyways
         but you should keep in mind that the values have only limited relevance

Expectation value of <S**2>     :     0.756889
Ideal value S*(S+1) for S=0.5   :     0.750000
Deviation                       :     0.006889

             **** THE GBW FILE WAS UPDATED (freq.gbw) ****
             **** DENSITY freq.scfp WAS UPDATED ****
----------------
ORBITAL ENERGIES
----------------
                 SPIN UP ORBITALS
  NO   OCC          E(Eh)            E(eV) 
   0   1.0000     -19.714087      -536.4476 
   1   1.0000     -19.707459      -536.2672 
   2   1.0000     -15.011979      -408.4967 
   3   1.0000     -14.898176      -405.4000 
   4   1.0000     -14.895484      -405.3267 
   5   1.0000     -10.767563      -293.0003 
   6   1.0000     -10.766078      -292.9599 
   7   1.0000     -10.758047      -292.7413 
   8   1.0000     -10.721168      -291.7378 
   9   1.0000     -10.720195      -291.7113 
  10   1.0000     -10.688062      -290.8369 
  11   1.0000     -10.681880      -290.6687 
  12   1.0000     -10.670811      -290.3675 
  13   1.0000     -10.639651      -289.5196 
  14   1.0000      -1.280149       -34.8346 
  15   1.0000      -1.268490       -34.5174 
  16   1.0000      -1.245491       -33.8915 
  17   1.0000      -1.152900       -31.3720 
  18   1.0000      -1.147763       -31.2322 
  19   1.0000      -1.060465       -28.8567 
  20   1.0000      -1.003284       -27.3008 
  21   1.0000      -0.956540       -26.0288 
  22   1.0000      -0.926655       -25.2156 
  23   1.0000      -0.902566       -24.5601 
  24   1.0000      -0.862929       -23.4815 
  25   1.0000      -0.827741       -22.5240 
  26   1.0000      -0.826834       -22.4993 
  27   1.0000      -0.786688       -21.4069 
  28   1.0000      -0.774994       -21.0887 
  29   1.0000      -0.739506       -20.1230 
  30   1.0000      -0.730176       -19.8691 
  31   1.0000      -0.703674       -19.1479 
  32   1.0000      -0.690865       -18.7994 
  33   1.0000      -0.676322       -18.4036 
  34   1.0000      -0.657040       -17.8790 
  35   1.0000      -0.650926       -17.7126 
  36   1.0000      -0.649130       -17.6637 
  37   1.0000      -0.636341       -17.3157 
  38   1.0000      -0.625333       -17.0162 
  39   1.0000      -0.613723       -16.7003 
  40   1.0000      -0.597655       -16.2630 
  41   1.0000      -0.590809       -16.0767 
  42   1.0000      -0.583856       -15.8875 
  43   1.0000      -0.579772       -15.7764 
  44   1.0000      -0.564091       -15.3497 
  45   1.0000      -0.561590       -15.2817 
  46   1.0000      -0.558207       -15.1896 
  47   1.0000      -0.551685       -15.0121 
  48   1.0000      -0.545368       -14.8402 
  49   1.0000      -0.538180       -14.6446 
  50   1.0000      -0.517987       -14.0951 
  51   1.0000      -0.461256       -12.5514 
  52   1.0000      -0.445681       -12.1276 
  53   1.0000      -0.444286       -12.0896 
  54   1.0000      -0.431076       -11.7302 
  55   0.0000      -0.109107        -2.9690 
  56   0.0000      -0.069977        -1.9042 
  57   0.0000      -0.065315        -1.7773 
  58   0.0000      -0.063716        -1.7338 
  59   0.0000      -0.051319        -1.3964 
  60   0.0000      -0.045840        -1.2474 
  61   0.0000      -0.034699        -0.9442 
  62   0.0000      -0.030137        -0.8201 
  63   0.0000      -0.011313        -0.3079 
  64   0.0000       0.001887         0.0514 
  65   0.0000       0.005590         0.1521 
  66   0.0000       0.006715         0.1827 
  67   0.0000       0.014062         0.3826 
  68   0.0000       0.019533         0.5315 
  69   0.0000       0.026303         0.7157 
  70   0.0000       0.030259         0.8234 
  71   0.0000       0.032146         0.8747 
  72   0.0000       0.043978         1.1967 
  73   0.0000       0.059607         1.6220 
  74   0.0000       0.060729         1.6525 
  75   0.0000       0.061918         1.6849 
  76   0.0000       0.065776         1.7899 
  77   0.0000       0.069878         1.9015 
  78   0.0000       0.077456         2.1077 
  79   0.0000       0.078166         2.1270 
  80   0.0000       0.082039         2.2324 
  81   0.0000       0.095537         2.5997 
  82   0.0000       0.108657         2.9567 
  83   0.0000       0.110783         3.0146 
  84   0.0000       0.122026         3.3205 
  85   0.0000       0.123714         3.3664 
  86   0.0000       0.133218         3.6250 
  87   0.0000       0.140699         3.8286 
  88   0.0000       0.145602         3.9620 
  89   0.0000       0.153921         4.1884 
  90   0.0000       0.155040         4.2188 
  91   0.0000       0.161277         4.3886 
  92   0.0000       0.164973         4.4892 
  93   0.0000       0.173686         4.7262 
  94   0.0000       0.181118         4.9285 
  95   0.0000       0.185055         5.0356 
  96   0.0000       0.191361         5.2072 
  97   0.0000       0.206413         5.6168 
  98   0.0000       0.213558         5.8112 
  99   0.0000       0.220689         6.0052 
 100   0.0000       0.225102         6.1253 
 101   0.0000       0.230598         6.2749 
 102   0.0000       0.239565         6.5189 
 103   0.0000       0.250969         6.8292 
 104   0.0000       0.264900         7.2083 
 105   0.0000       0.265839         7.2338 
 106   0.0000       0.275353         7.4927 
 107   0.0000       0.285727         7.7750 
 108   0.0000       0.291858         7.9419 
 109   0.0000       0.298538         8.1236 
 110   0.0000       0.302258         8.2249 
 111   0.0000       0.312245         8.4966 
 112   0.0000       0.318261         8.6603 
 113   0.0000       0.324867         8.8401 
 114   0.0000       0.327622         8.9150 
 115   0.0000       0.331214         9.0128 
 116   0.0000       0.335246         9.1225 
 117   0.0000       0.341810         9.3011 
 118   0.0000       0.344738         9.3808 
 119   0.0000       0.347055         9.4439 
 120   0.0000       0.353732         9.6255 
 121   0.0000       0.356709         9.7066 
 122   0.0000       0.359079         9.7710 
 123   0.0000       0.361450         9.8355 
 124   0.0000       0.373288        10.1577 
 125   0.0000       0.374794        10.1987 
 126   0.0000       0.380978        10.3669 
 127   0.0000       0.390866        10.6360 
 128   0.0000       0.398929        10.8554 
 129   0.0000       0.402840        10.9618 
 130   0.0000       0.403384        10.9766 
 131   0.0000       0.409956        11.1555 
 132   0.0000       0.412839        11.2339 
 133   0.0000       0.419699        11.4206 
 134   0.0000       0.427716        11.6387 
 135   0.0000       0.435957        11.8630 
 136   0.0000       0.445111        12.1121 
 137   0.0000       0.457127        12.4391 
 138   0.0000       0.464868        12.6497 
 139   0.0000       0.469014        12.7625 
 140   0.0000       0.480425        13.0730 
 141   0.0000       0.483287        13.1509 
 142   0.0000       0.486614        13.2414 
 143   0.0000       0.492667        13.4061 
 144   0.0000       0.493742        13.4354 
 145   0.0000       0.505624        13.7587 
 146   0.0000       0.519275        14.1302 
 147   0.0000       0.530067        14.4238 
 148   0.0000       0.534008        14.5311 
 149   0.0000       0.540565        14.7095 
 150   0.0000       0.545159        14.8345 
 151   0.0000       0.557950        15.1826 
 152   0.0000       0.573028        15.5929 
 153   0.0000       0.584331        15.9005 
 154   0.0000       0.599144        16.3035 
 155   0.0000       0.609218        16.5777 
 156   0.0000       0.620810        16.8931 
 157   0.0000       0.635487        17.2925 
 158   0.0000       0.645297        17.5594 
 159   0.0000       0.663931        18.0665 
 160   0.0000       0.675977        18.3943 
 161   0.0000       0.687683        18.7128 
 162   0.0000       0.692177        18.8351 
 163   0.0000       0.706385        19.2217 
 164   0.0000       0.711312        19.3558 
 165   0.0000       0.719277        19.5725 
 166   0.0000       0.723128        19.6773 
 167   0.0000       0.730685        19.8829 
 168   0.0000       0.756531        20.5862 
 169   0.0000       0.760742        20.7009 
 170   0.0000       0.775076        21.0909 
 171   0.0000       0.781570        21.2676 
 172   0.0000       0.788186        21.4476 
 173   0.0000       0.803562        21.8660 
 174   0.0000       0.823875        22.4188 
 175   0.0000       0.838823        22.8255 
 176   0.0000       0.854919        23.2635 
 177   0.0000       0.860270        23.4091 
 178   0.0000       0.872081        23.7305 
 179   0.0000       0.882391        24.0111 
 180   0.0000       0.899715        24.4825 
 181   0.0000       0.903044        24.5731 
 182   0.0000       0.905891        24.6506 
 183   0.0000       0.922822        25.1113 
 184   0.0000       0.933976        25.4148 
 185   0.0000       0.959314        26.1043 
 186   0.0000       0.963498        26.2181 
 187   0.0000       0.973193        26.4819 
 188   0.0000       0.982103        26.7244 
 189   0.0000       0.988738        26.9049 
 190   0.0000       0.996817        27.1248 
 191   0.0000       1.007768        27.4228 
 192   0.0000       1.012506        27.5517 
 193   0.0000       1.017439        27.6859 
 194   0.0000       1.026366        27.9289 
 195   0.0000       1.042763        28.3750 
 196   0.0000       1.062445        28.9106 
 197   0.0000       1.081114        29.4186 
 198   0.0000       1.095592        29.8126 
 199   0.0000       1.107787        30.1444 
 200   0.0000       1.114184        30.3185 
 201   0.0000       1.132443        30.8153 
 202   0.0000       1.146164        31.1887 
 203   0.0000       1.163908        31.6715 
 204   0.0000       1.175437        31.9853 
 205   0.0000       1.186255        32.2796 
 206   0.0000       1.206472        32.8298 
 207   0.0000       1.213943        33.0331 
 208   0.0000       1.218517        33.1575 
 209   0.0000       1.236408        33.6444 
 210   0.0000       1.247954        33.9586 
 211   0.0000       1.274798        34.6890 
 212   0.0000       1.282344        34.8943 
 213   0.0000       1.308852        35.6157 
 214   0.0000       1.320683        35.9376 
 215   0.0000       1.325011        36.0554 
 216   0.0000       1.342506        36.5315 
 217   0.0000       1.358525        36.9673 
 218   0.0000       1.364432        37.1281 
 219   0.0000       1.390020        37.8244 
 220   0.0000       1.395130        37.9634 
 221   0.0000       1.404221        38.2108 
 222   0.0000       1.421016        38.6678 
 223   0.0000       1.425874        38.8000 
 224   0.0000       1.429561        38.9003 
 225   0.0000       1.443660        39.2840 
 226   0.0000       1.448743        39.4223 
 227   0.0000       1.458605        39.6907 
 228   0.0000       1.463620        39.8271 
 229   0.0000       1.469792        39.9951 
 230   0.0000       1.476688        40.1827 
 231   0.0000       1.483506        40.3682 
 232   0.0000       1.491064        40.5739 
 233   0.0000       1.494419        40.6652 
 234   0.0000       1.501868        40.8679 
 235   0.0000       1.519142        41.3380 
 236   0.0000       1.525246        41.5040 
 237   0.0000       1.529999        41.6334 
 238   0.0000       1.536431        41.8084 
 239   0.0000       1.551014        42.2052 
 240   0.0000       1.557866        42.3917 
 241   0.0000       1.569528        42.7090 
 242   0.0000       1.575248        42.8647 
 243   0.0000       1.590810        43.2881 
 244   0.0000       1.612935        43.8902 
 245   0.0000       1.617711        44.0201 
 246   0.0000       1.623097        44.1667 
 247   0.0000       1.641950        44.6797 
 248   0.0000       1.655853        45.0580 
 249   0.0000       1.672360        45.5072 
 250   0.0000       1.676096        45.6089 
 251   0.0000       1.687643        45.9231 
 252   0.0000       1.703481        46.3541 
 253   0.0000       1.706618        46.4394 
 254   0.0000       1.714875        46.6641 
 255   0.0000       1.724008        46.9127 
 256   0.0000       1.733459        47.1698 
 257   0.0000       1.745339        47.4931 
 258   0.0000       1.748444        47.5776 
 259   0.0000       1.764433        48.0127 
 260   0.0000       1.770328        48.1731 
 261   0.0000       1.783522        48.5321 
 262   0.0000       1.784654        48.5629 
 263   0.0000       1.794386        48.8277 
 264   0.0000       1.797337        48.9080 
 265   0.0000       1.807848        49.1940 
 266   0.0000       1.813440        49.3462 
 267   0.0000       1.828610        49.7590 
 268   0.0000       1.842575        50.1390 
 269   0.0000       1.858466        50.5714 
 270   0.0000       1.871322        50.9213 
 271   0.0000       1.877100        51.0785 
 272   0.0000       1.894897        51.5628 
 273   0.0000       1.903486        51.7965 
 274   0.0000       1.917612        52.1809 
 275   0.0000       1.938240        52.7422 
 276   0.0000       1.955837        53.2210 
 277   0.0000       1.957703        53.2718 
 278   0.0000       1.974732        53.7352 
 279   0.0000       2.001439        54.4619 
 280   0.0000       2.009849        54.6908 
 281   0.0000       2.015693        54.8498 
 282   0.0000       2.039449        55.4962 
 283   0.0000       2.059486        56.0415 
 284   0.0000       2.068625        56.2901 
 285   0.0000       2.074965        56.4627 
 286   0.0000       2.088814        56.8395 
 287   0.0000       2.107402        57.3453 
 288   0.0000       2.118659        57.6516 
 289   0.0000       2.129631        57.9502 
 290   0.0000       2.141224        58.2657 
 291   0.0000       2.153208        58.5918 
 292   0.0000       2.159057        58.7509 
 293   0.0000       2.173270        59.1377 
 294   0.0000       2.180053        59.3223 
 295   0.0000       2.188797        59.5602 
 296   0.0000       2.202267        59.9267 
 297   0.0000       2.206517        60.0424 
 298   0.0000       2.230380        60.6917 
 299   0.0000       2.235347        60.8269 
 300   0.0000       2.258524        61.4576 
 301   0.0000       2.261921        61.5500 
 302   0.0000       2.268446        61.7276 
 303   0.0000       2.276767        61.9540 
 304   0.0000       2.279138        62.0185 
 305   0.0000       2.284649        62.1685 
 306   0.0000       2.288223        62.2657 
 307   0.0000       2.315766        63.0152 
 308   0.0000       2.319734        63.1232 
 309   0.0000       2.328074        63.3501 
 310   0.0000       2.335143        63.5425 
 311   0.0000       2.348902        63.9169 
 312   0.0000       2.372385        64.5559 
 313   0.0000       2.383724        64.8644 
 314   0.0000       2.389131        65.0116 
 315   0.0000       2.391695        65.0813 
 316   0.0000       2.408339        65.5342 
 317   0.0000       2.411943        65.6323 
 318   0.0000       2.425156        65.9919 
 319   0.0000       2.432627        66.1952 
 320   0.0000       2.443413        66.4887 
 321   0.0000       2.451079        66.6972 
 322   0.0000       2.466587        67.1192 
 323   0.0000       2.468798        67.1794 
 324   0.0000       2.478413        67.4410 
 325   0.0000       2.479970        67.4834 
 326   0.0000       2.493927        67.8632 
 327   0.0000       2.497623        67.9638 
 328   0.0000       2.513011        68.3825 
 329   0.0000       2.520090        68.5751 
 330   0.0000       2.524972        68.7080 
 331   0.0000       2.533828        68.9490 
 332   0.0000       2.539568        69.1052 
 333   0.0000       2.549766        69.3827 
 334   0.0000       2.563369        69.7528 
 335   0.0000       2.571920        69.9855 
 336   0.0000       2.584263        70.3214 
 337   0.0000       2.595987        70.6404 
 338   0.0000       2.602343        70.8134 
 339   0.0000       2.612836        71.0989 
 340   0.0000       2.622895        71.3726 
 341   0.0000       2.634251        71.6816 
 342   0.0000       2.646641        72.0188 
 343   0.0000       2.652888        72.1888 
 344   0.0000       2.663276        72.4714 
 345   0.0000       2.689954        73.1974 
 346   0.0000       2.701642        73.5154 
 347   0.0000       2.718729        73.9804 
 348   0.0000       2.729171        74.2645 
 349   0.0000       2.772888        75.4541 
 350   0.0000       2.794175        76.0334 
 351   0.0000       2.805298        76.3360 
 352   0.0000       2.806108        76.3581 
 353   0.0000       2.839209        77.2588 
 354   0.0000       2.840726        77.3001 
 355   0.0000       2.860349        77.8341 
 356   0.0000       2.864518        77.9475 
 357   0.0000       2.884492        78.4910 
 358   0.0000       2.893286        78.7303 
 359   0.0000       2.902787        78.9889 
 360   0.0000       2.907532        79.1180 
 361   0.0000       2.912623        79.2565 
 362   0.0000       2.939232        79.9806 
 363   0.0000       2.955418        80.4210 
 364   0.0000       2.959487        80.5317 
 365   0.0000       2.970109        80.8208 
 366   0.0000       2.978883        81.0595 
 367   0.0000       2.986566        81.2686 
 368   0.0000       2.999721        81.6266 
 369   0.0000       3.013646        82.0055 
 370   0.0000       3.018014        82.1243 
 371   0.0000       3.022583        82.2487 
 372   0.0000       3.040574        82.7382 
 373   0.0000       3.047508        82.9269 
 374   0.0000       3.056153        83.1622 
 375   0.0000       3.062573        83.3369 
 376   0.0000       3.073441        83.6326 
 377   0.0000       3.091707        84.1296 
 378   0.0000       3.100464        84.3679 
 379   0.0000       3.102323        84.4185 
 380   0.0000       3.113014        84.7094 
 381   0.0000       3.119829        84.8949 
 382   0.0000       3.127075        85.0920 
 383   0.0000       3.144873        85.5763 
 384   0.0000       3.153654        85.8153 
 385   0.0000       3.160308        85.9964 
 386   0.0000       3.165409        86.1352 
 387   0.0000       3.177049        86.4519 
 388   0.0000       3.179924        86.5301 
 389   0.0000       3.194667        86.9313 
 390   0.0000       3.210007        87.3487 
 391   0.0000       3.212260        87.4100 
 392   0.0000       3.213933        87.4556 
 393   0.0000       3.221870        87.6715 
 394   0.0000       3.239493        88.1511 
 395   0.0000       3.245152        88.3051 
 396   0.0000       3.257205        88.6331 
 397   0.0000       3.269688        88.9727 
 398   0.0000       3.274530        89.1045 
 399   0.0000       3.290593        89.5416 
 400   0.0000       3.304229        89.9126 
 401   0.0000       3.315151        90.2098 
 402   0.0000       3.318434        90.2992 
 403   0.0000       3.327456        90.5447 
 404   0.0000       3.330668        90.6321 
 405   0.0000       3.340412        90.8972 
 406   0.0000       3.349509        91.1448 
 407   0.0000       3.356789        91.3429 
 408   0.0000       3.368784        91.6693 
 409   0.0000       3.375568        91.8539 
 410   0.0000       3.388857        92.2155 
 411   0.0000       3.406349        92.6915 
 412   0.0000       3.420107        93.0658 
 413   0.0000       3.425580        93.2148 
 414   0.0000       3.440187        93.6122 
 415   0.0000       3.448475        93.8378 
 416   0.0000       3.459934        94.1496 
 417   0.0000       3.482714        94.7695 
 418   0.0000       3.496918        95.1560 
 419   0.0000       3.512147        95.5704 
 420   0.0000       3.539488        96.3144 
 421   0.0000       3.572481        97.2122 
 422   0.0000       3.590065        97.6906 
 423   0.0000       3.599050        97.9351 
 424   0.0000       3.607699        98.1705 
 425   0.0000       3.621556        98.5476 
 426   0.0000       3.645127        99.1890 
 427   0.0000       3.667128        99.7876 
 428   0.0000       3.678087       100.0858 
 429   0.0000       3.683620       100.2364 
 430   0.0000       3.692920       100.4895 
 431   0.0000       3.712057       101.0102 
 432   0.0000       3.722368       101.2908 
 433   0.0000       3.739271       101.7507 
 434   0.0000       3.751345       102.0793 
 435   0.0000       3.773054       102.6700 
 436   0.0000       3.781597       102.9025 
 437   0.0000       3.793828       103.2353 
 438   0.0000       3.821306       103.9830 
 439   0.0000       3.840540       104.5064 
 440   0.0000       3.861953       105.0891 
 441   0.0000       3.895416       105.9997 
 442   0.0000       3.906679       106.3061 
 443   0.0000       3.921303       106.7041 
 444   0.0000       3.963405       107.8497 
 445   0.0000       3.972774       108.1047 
 446   0.0000       4.001368       108.8828 
 447   0.0000       4.004078       108.9565 
 448   0.0000       4.033190       109.7487 
 449   0.0000       4.049004       110.1790 
 450   0.0000       4.059450       110.4633 
 451   0.0000       4.070132       110.7539 
 452   0.0000       4.125292       112.2549 
 453   0.0000       4.127645       112.3189 
 454   0.0000       4.155622       113.0802 
 455   0.0000       4.202255       114.3492 
 456   0.0000       4.222593       114.9026 
 457   0.0000       4.243506       115.4717 
 458   0.0000       4.250056       115.6499 
 459   0.0000       4.263456       116.0145 
 460   0.0000       4.271822       116.2422 
 461   0.0000       4.291669       116.7823 
 462   0.0000       4.312069       117.3374 
 463   0.0000       4.325233       117.6956 
 464   0.0000       4.354944       118.5041 
 465   0.0000       4.375416       119.0611 
 466   0.0000       4.385364       119.3318 
 467   0.0000       4.400027       119.7308 
 468   0.0000       4.416329       120.1744 
 469   0.0000       4.422750       120.3491 
 470   0.0000       4.457310       121.2896 
 471   0.0000       4.469950       121.6335 
 472   0.0000       4.477353       121.8350 
 473   0.0000       4.486346       122.0797 
 474   0.0000       4.507088       122.6441 
 475   0.0000       4.573584       124.4535 
 476   0.0000       4.585099       124.7669 
 477   0.0000       4.601098       125.2022 
 478   0.0000       4.616137       125.6115 
 479   0.0000       4.654301       126.6500 
 480   0.0000       4.669009       127.0502 
 481   0.0000       4.680625       127.3663 
 482   0.0000       4.734913       128.8435 
 483   0.0000       4.794730       130.4712 
 484   0.0000       4.795860       130.5020 
 485   0.0000       4.828410       131.3877 
 486   0.0000       4.864556       132.3713 
 487   0.0000       4.873710       132.6204 
 488   0.0000       4.893643       133.1628 
 489   0.0000       4.908345       133.5629 
 490   0.0000       4.920465       133.8926 
 491   0.0000       4.936056       134.3169 
 492   0.0000       4.967485       135.1721 
 493   0.0000       4.989354       135.7672 
 494   0.0000       4.999481       136.0428 
 495   0.0000       5.025970       136.7636 
 496   0.0000       5.037963       137.0900 
 497   0.0000       5.060301       137.6978 
 498   0.0000       5.084979       138.3693 
 499   0.0000       5.100535       138.7926 
 500   0.0000       5.109721       139.0426 
 501   0.0000       5.157970       140.3555 
 502   0.0000       5.167592       140.6173 
 503   0.0000       5.184581       141.0796 
 504   0.0000       5.193610       141.3253 
 505   0.0000       5.249716       142.8520 
 506   0.0000       5.299706       144.2123 
 507   0.0000       5.323996       144.8733 
 508   0.0000       5.363121       145.9379 
 509   0.0000       5.409674       147.2047 
 510   0.0000       5.465593       148.7263 
 511   0.0000       5.534171       150.5924 
 512   0.0000       5.561588       151.3385 
 513   0.0000       5.612506       152.7240 
 514   0.0000       5.638690       153.4366 
 515   0.0000       5.655884       153.9044 
 516   0.0000       5.773891       157.1156 
 517   0.0000       5.785861       157.4413 
 518   0.0000       5.975014       162.5884 
 519   0.0000       6.006276       163.4391 
 520   0.0000       6.187160       168.3612 
 521   0.0000       6.196616       168.6185 
 522   0.0000       6.312781       171.7795 
 523   0.0000       6.339582       172.5088 
 524   0.0000       6.437000       175.1597 
 525   0.0000       6.445531       175.3918 
 526   0.0000       6.538575       177.9237 
 527   0.0000       6.548012       178.1805 
 528   0.0000       6.718162       182.8105 
 529   0.0000       6.733034       183.2152 
 530   0.0000       6.935357       188.7207 
 531   0.0000       6.962951       189.4715 
 532   0.0000       6.966077       189.5566 
 533   0.0000       6.988982       190.1799 
 534   0.0000      22.292209       606.6019 
 535   0.0000      22.310532       607.1004 
 536   0.0000      22.367107       608.6399 
 537   0.0000      22.374477       608.8405 
 538   0.0000      22.437317       610.5504 
 539   0.0000      22.507965       612.4729 
 540   0.0000      22.688589       617.3879 
 541   0.0000      23.209472       631.5619 
 542   0.0000      23.292148       633.8116 
 543   0.0000      31.814670       865.7212 
 544   0.0000      32.380828       881.1271 
 545   0.0000      32.548327       885.6850 
 546   0.0000      43.944895      1195.8014 
 547   0.0000      44.028727      1198.0826 

                 SPIN DOWN ORBITALS
  NO   OCC          E(Eh)            E(eV) 
   0   1.0000     -19.713967      -536.4443 
   1   1.0000     -19.706520      -536.2417 
   2   1.0000     -15.003464      -408.2650 
   3   1.0000     -14.896441      -405.3528 
   4   1.0000     -14.895220      -405.3195 
   5   1.0000     -10.767386      -292.9955 
[...]
     47      -0.000803  -0.021929   0.000168
     48      -0.000051   0.000009   0.000858
     49      -0.000023   0.000013  -0.000703
     50      -0.000123   0.000006   0.000806
     51      -0.000026  -0.000008   0.000100
     52       0.000006  -0.000013  -0.000624
     53       0.000315  -0.000005   0.000326
     54       0.000612  -0.000066  -0.003208
     55       0.000022   0.000021   0.000208
     56       0.000108  -0.000015  -0.001430
     57      -0.000359   0.000014  -0.005171
     58       0.000046   0.000030   0.008011
     59      -0.000124   0.000013   0.009653
     60       0.000028  -0.000004  -0.000003
     61      -0.000160  -0.000015  -0.000007
     62      -0.000196   0.000001  -0.000012
     63       0.000107  -0.000033  -0.000020
     64      -0.000028  -0.000035   0.000020
     65      -0.000084  -0.000036  -0.000046
     66       0.000036  -0.000006  -0.000033
     67       0.000333   0.000030   0.000005
     68       0.000075  -0.000000   0.000002
     69      -0.000426  -0.000012   0.000054
     70       0.001318  -0.000019   0.000002
     71       0.004041   0.000033   0.000048
     72      -0.005913  -0.000026  -0.002531
     73       0.005917   0.000041   0.002309
     74       0.002271   0.000074   0.000845
     75      -0.001150  -0.000144  -0.000245
     76       0.000155   0.000067   0.000346
     77       0.000009  -0.000004   0.000332
     78       0.000347   0.000013  -0.000163
     79       0.001036  -0.000007   0.000188
     80      -0.000945  -0.000054  -0.000488
     81      -0.000583  -0.000174  -0.000146
     82      -0.000544  -0.000192  -0.000270
     83      -0.000403  -0.000385  -0.000139
     84       0.000246  -0.000265   0.000141
     85       0.000492   0.000189  -0.000017
     86       0.000303   0.000025   0.000005
     87       0.000012  -0.000980   0.000078
     88      -0.000137  -0.000775   0.000022
     89       0.000041  -0.000015  -0.000020
     90       0.000004  -0.000474   0.000027
     91       0.000336   0.000737   0.000063
     92       0.000335  -0.000640  -0.000047
     93       0.000745   0.007534  -0.000171
     94      -0.000263  -0.002115  -0.000025
     95      -0.000797   0.013031   0.000036
     96       0.000260   0.015162  -0.000028
     97      -0.000237   0.002187  -0.000033
     98      -0.000951  -0.002885   0.000152


-----------
IR SPECTRUM
-----------

 Mode   freq       eps      Int      T**2         TX        TY        TZ
       cm**-1   L/(mol*cm) km/mol    a.u.
----------------------------------------------------------------------------
  6:     31.01   0.001157    5.84  0.011637  ( 0.081150  0.052786  0.047600)
  7:     41.99   0.000160    0.81  0.001189  (-0.029638 -0.008606  0.015375)
  8:     63.02   0.000606    3.06  0.003002  ( 0.039081 -0.004911 -0.038092)
  9:     82.52   0.000655    3.31  0.002476  (-0.002597 -0.048860  0.009076)
 10:     87.31   0.002222   11.23  0.007943  ( 0.006720  0.083530 -0.030345)
 11:     89.37   0.000394    1.99  0.001375  ( 0.008125 -0.035048  0.008969)
 12:     96.25   0.000962    4.86  0.003120  ( 0.010822 -0.038227  0.039259)
 13:    108.02   0.000242    1.22  0.000698  (-0.012836  0.010419 -0.020615)
 14:    121.07   0.001474    7.45  0.003798  (-0.035214 -0.030387 -0.040430)
 15:    151.13   0.000035    0.18  0.000072  (-0.003991  0.000720  0.007458)
 16:    154.17   0.000820    4.14  0.001659  (-0.027521  0.010597 -0.028095)
 17:    183.50   0.002444   12.35  0.004157  (-0.032698 -0.055536 -0.001836)
 18:    209.80   0.000214    1.08  0.000318  (-0.016075  0.004028 -0.006573)
 19:    253.33   0.000560    2.83  0.000689  ( 0.020144 -0.003854  0.016395)
 20:    290.45   0.001108    5.60  0.001191  ( 0.027671 -0.017120  0.011492)
 21:    310.03   0.002846   14.38  0.002864  ( 0.026928  0.044384 -0.013004)
 22:    353.92   0.001279    6.46  0.001128  (-0.019868 -0.026481 -0.005640)
 23:    359.96   0.000160    0.81  0.000139  ( 0.000060  0.006648  0.009716)
 24:    367.61   0.000670    3.39  0.000569  (-0.017112  0.010926  0.012515)
 25:    381.55   0.004129   20.87  0.003377  ( 0.029062 -0.028905  0.041197)
 26:    466.95   0.001746    8.82  0.001167  (-0.032494  0.000231  0.010536)
 27:    511.10   0.004767   24.09  0.002910  (-0.023694 -0.041295  0.025371)
 28:    548.57   0.002813   14.22  0.001600  (-0.022233 -0.033244  0.001028)
 29:    569.05   0.016732   84.56  0.009176  (-0.068001 -0.067072 -0.007285)
 30:    652.42   0.054191  273.86  0.025921  ( 0.019515 -0.153443 -0.044668)
 31:    655.90   0.000396    2.00  0.000188  (-0.006193  0.005165 -0.011107)
 32:    661.69   0.002008   10.15  0.000947  (-0.022502 -0.014461 -0.015217)
 33:    700.66   0.048243  243.80  0.021486  (-0.030024 -0.140700 -0.028079)
 34:    713.61   0.004274   21.60  0.001869  ( 0.017136  0.038090  0.011156)
 35:    756.26   0.001459    7.37  0.000602  (-0.017674 -0.015586 -0.006846)
 36:    795.90   0.017638   89.14  0.006916  (-0.013948 -0.080999  0.012659)
 37:    824.39   0.009710   49.07  0.003676  (-0.009931 -0.058027  0.014483)
 38:    886.96   0.001770    8.95  0.000623  (-0.009350  0.011211 -0.020242)
 39:    889.19   0.004606   23.28  0.001617  ( 0.018977  0.035006  0.005569)
 40:    934.83   0.003526   17.82  0.001177  ( 0.013950 -0.031341  0.000490)
 41:    994.41   0.001648    8.33  0.000517  ( 0.009755  0.019748  0.005664)
 42:    999.57   0.005278   26.67  0.001648  (-0.004701 -0.040270 -0.001978)
 43:   1017.03   0.001957    9.89  0.000600  (-0.007430  0.002239 -0.023240)
 44:   1031.78   0.003469   17.53  0.001049  ( 0.016879  0.027607 -0.001473)
 45:   1043.73   0.024504  123.84  0.007327  (-0.036570 -0.077387 -0.000662)
 46:   1062.35   0.001067    5.39  0.000313  ( 0.006930  0.016039 -0.002853)
 47:   1073.00   0.001777    8.98  0.000517  (-0.021939 -0.005462  0.002410)
 48:   1122.12   0.033219  167.88  0.009238  ( 0.028650  0.090176 -0.016903)
 49:   1140.63   0.004108   20.76  0.001124  ( 0.022483  0.024549 -0.003985)
 50:   1156.42   0.029821  150.70  0.008047  ( 0.000693  0.088068 -0.017051)
 51:   1166.54   0.250253  1264.68  0.066946  ( 0.078531  0.245626 -0.021126)
 52:   1186.05   0.021813  110.23  0.005739  ( 0.037630  0.065699  0.002609)
 53:   1190.26   0.003592   18.15  0.000942  (-0.016802  0.021866 -0.013465)
 54:   1232.50   0.005233   26.45  0.001325  (-0.029320 -0.013121 -0.017125)
 55:   1250.75   0.006106   30.86  0.001524  (-0.021385 -0.023070 -0.023108)
 56:   1252.88   0.005454   27.56  0.001358  ( 0.029134  0.018304  0.013216)
 57:   1261.76   0.098635  498.46  0.024395  ( 0.049634  0.148064 -0.002889)
 58:   1279.01   0.002689   13.59  0.000656  (-0.017451 -0.006993 -0.017396)
 59:   1292.08   0.009633   48.68  0.002327  ( 0.017790  0.040849  0.018478)
 60:   1311.19   0.001282    6.48  0.000305  (-0.013628 -0.006710 -0.008624)
 61:   1342.45   0.003361   16.99  0.000781  ( 0.015358  0.022884  0.004669)
 62:   1351.17   0.000268    1.36  0.000062  (-0.002183 -0.007527 -0.000746)
 63:   1369.07   0.001343    6.79  0.000306  (-0.000477 -0.005635  0.016557)
 64:   1383.10   0.010430   52.71  0.002353  (-0.028239 -0.020272 -0.033835)
 65:   1407.52   0.020815  105.19  0.004615  (-0.050794 -0.039177 -0.022361)
 66:   1455.08   0.006227   31.47  0.001335  ( 0.014210 -0.033104 -0.006136)
 67:   1471.27   0.007564   38.23  0.001604  ( 0.016702  0.009622  0.035113)
 68:   1483.16   0.003558   17.98  0.000749  ( 0.010051  0.025435  0.000888)
 69:   1484.75   0.000661    3.34  0.000139  ( 0.002533  0.004818 -0.010451)
 70:   1489.61   0.008673   43.83  0.001817  ( 0.017536  0.030019  0.024662)
 71:   1494.83   0.032990  166.72  0.006887  (-0.034195 -0.075551  0.003138)
 72:   1498.63   0.006488   32.79  0.001351  ( 0.028073  0.006548  0.022803)
 73:   1502.30   0.012349   62.41  0.002565  ( 0.031798  0.031810 -0.023286)
 74:   1509.40   0.012851   64.95  0.002657  (-0.028872 -0.004861 -0.042423)
 75:   1527.44   0.130984  661.94  0.026761  ( 0.116155  0.098097  0.060379)
 76:   1590.51   0.050607  255.75  0.009929  ( 0.050488 -0.072463  0.046145)
 77:   1654.78   0.011299   57.10  0.002131  ( 0.014736  0.031835 -0.030002)
 78:   1781.14   0.079525  401.88  0.013933  ( 0.076281 -0.039242 -0.081082)
 79:   1792.73   0.015915   80.43  0.002770  ( 0.047638  0.019179  0.011534)
 80:   3066.44   0.008518   43.05  0.000867  (-0.013826 -0.025974 -0.001037)
 81:   3081.78   0.001287    6.50  0.000130  (-0.006150  0.003354 -0.009014)
 82:   3087.09   0.004348   21.97  0.000440  ( 0.010726 -0.010687  0.014502)
 83:   3088.87   0.000337    1.71  0.000034  ( 0.000387 -0.004287 -0.003945)
 84:   3092.27   0.001302    6.58  0.000131  (-0.010141  0.004646  0.002645)
 85:   3105.29   0.000909    4.59  0.000091  (-0.005064  0.003421  0.007347)
 86:   3113.48   0.000159    0.80  0.000016  (-0.001763 -0.003506  0.000749)
 87:   3132.11   0.000094    0.48  0.000009  (-0.000023  0.002168  0.002167)
 88:   3149.51   0.002946   14.89  0.000292  (-0.004394  0.016070 -0.003792)
 89:   3161.67   0.000962    4.86  0.000095  ( 0.007921  0.005613 -0.000839)
 90:   3167.54   0.000676    3.42  0.000067  (-0.006538 -0.002098  0.004408)
 91:   3175.48   0.000843    4.26  0.000083  (-0.006076  0.005643 -0.003759)
 92:   3192.85   0.000485    2.45  0.000047  (-0.001260  0.003315  0.005900)
 93:   3197.37   0.000037    0.18  0.000004  (-0.001372  0.001226 -0.000419)
 94:   3200.09   0.000398    2.01  0.000039  ( 0.005510  0.001278  0.002607)
 95:   3508.72   0.473827  2394.53  0.042142  ( 0.052715  0.192378 -0.048514)
 96:   3603.01   0.045537  230.13  0.003944  (-0.020891 -0.041916  0.041842)
 97:   3638.58   0.025102  126.85  0.002153  ( 0.042199 -0.001937  0.019193)
 98:   3643.86   0.013120   66.30  0.001124  (-0.021555  0.023880  0.009418)

* The epsilon (eps) is given for a Dirac delta lineshape.
** The dipole moment derivative (T) already includes vibrational overlap.

The first frequency considered to be a vibration is 6
The total number of vibrations considered is 93


--------------------------
THERMOCHEMISTRY AT 298.15K
--------------------------

Temperature         ... 298.15 K
Pressure            ... 1.00 atm
Total Mass          ... 201.27 AMU

Throughout the following assumptions are being made:
  (1) The electronic state is orbitally nondegenerate
      but the spin degeneracy is treated
  (2) There are no thermally accessible electronically excited states
  (3) Hindered rotations indicated by low frequency modes are not
      treated as such but are treated as vibrations and this may
      cause some error
  (4) All equations used are the standard statistical mechanics
      equations for an ideal gas
  (5) All vibrations are strictly harmonic

freq.      31.01  E(vib)   ...       0.55 
freq.      41.99  E(vib)   ...       0.53 
freq.      63.02  E(vib)   ...       0.51 
freq.      82.52  E(vib)   ...       0.48 
freq.      87.31  E(vib)   ...       0.48 
freq.      89.37  E(vib)   ...       0.47 
freq.      96.25  E(vib)   ...       0.47 
freq.     108.02  E(vib)   ...       0.45 
freq.     121.07  E(vib)   ...       0.44 
freq.     151.13  E(vib)   ...       0.40 
freq.     154.17  E(vib)   ...       0.40 
freq.     183.50  E(vib)   ...       0.37 
freq.     209.80  E(vib)   ...       0.34 
freq.     253.33  E(vib)   ...       0.30 
freq.     290.45  E(vib)   ...       0.27 
freq.     310.03  E(vib)   ...       0.26 
freq.     353.92  E(vib)   ...       0.22 
freq.     359.96  E(vib)   ...       0.22 
freq.     367.61  E(vib)   ...       0.21 
freq.     381.55  E(vib)   ...       0.21 
freq.     466.95  E(vib)   ...       0.16 
freq.     511.10  E(vib)   ...       0.14 
freq.     548.57  E(vib)   ...       0.12 
freq.     569.05  E(vib)   ...       0.11 
freq.     652.42  E(vib)   ...       0.08 
freq.     655.90  E(vib)   ...       0.08 
freq.     661.69  E(vib)   ...       0.08 
freq.     700.66  E(vib)   ...       0.07 
freq.     713.61  E(vib)   ...       0.07 
freq.     756.26  E(vib)   ...       0.06 
freq.     795.90  E(vib)   ...       0.05 
freq.     824.39  E(vib)   ...       0.04 
freq.     886.96  E(vib)   ...       0.04 
freq.     889.19  E(vib)   ...       0.04 
freq.     934.83  E(vib)   ...       0.03 
freq.     994.41  E(vib)   ...       0.02 
freq.     999.57  E(vib)   ...       0.02 
freq.    1017.03  E(vib)   ...       0.02 
freq.    1031.78  E(vib)   ...       0.02 
freq.    1043.73  E(vib)   ...       0.02 
freq.    1062.35  E(vib)   ...       0.02 
freq.    1073.00  E(vib)   ...       0.02 
freq.    1122.12  E(vib)   ...       0.01 
freq.    1140.63  E(vib)   ...       0.01 
freq.    1156.42  E(vib)   ...       0.01 
freq.    1166.54  E(vib)   ...       0.01 
freq.    1186.05  E(vib)   ...       0.01 
freq.    1190.26  E(vib)   ...       0.01 
freq.    1232.50  E(vib)   ...       0.01 
freq.    1250.75  E(vib)   ...       0.01 
freq.    1252.88  E(vib)   ...       0.01 
freq.    1261.76  E(vib)   ...       0.01 
freq.    1279.01  E(vib)   ...       0.01 
freq.    1292.08  E(vib)   ...       0.01 
freq.    1311.19  E(vib)   ...       0.01 
freq.    1342.45  E(vib)   ...       0.01 
freq.    1351.17  E(vib)   ...       0.01 
freq.    1369.07  E(vib)   ...       0.01 
freq.    1383.10  E(vib)   ...       0.01 
freq.    1407.52  E(vib)   ...       0.00 
freq.    1455.08  E(vib)   ...       0.00 
freq.    1471.27  E(vib)   ...       0.00 
freq.    1483.16  E(vib)   ...       0.00 
freq.    1484.75  E(vib)   ...       0.00 
freq.    1489.61  E(vib)   ...       0.00 
freq.    1494.83  E(vib)   ...       0.00 
freq.    1498.63  E(vib)   ...       0.00 
freq.    1502.30  E(vib)   ...       0.00 
freq.    1509.40  E(vib)   ...       0.00 
freq.    1527.44  E(vib)   ...       0.00 
freq.    1590.51  E(vib)   ...       0.00 
freq.    1654.78  E(vib)   ...       0.00 
freq.    1781.14  E(vib)   ...       0.00 
freq.    1792.73  E(vib)   ...       0.00 
freq.    3066.44  E(vib)   ...       0.00 
freq.    3081.78  E(vib)   ...       0.00 
freq.    3087.09  E(vib)   ...       0.00 
freq.    3088.87  E(vib)   ...       0.00 
freq.    3092.27  E(vib)   ...       0.00 
freq.    3105.29  E(vib)   ...       0.00 
freq.    3113.48  E(vib)   ...       0.00 
freq.    3132.11  E(vib)   ...       0.00 
freq.    3149.51  E(vib)   ...       0.00 
freq.    3161.67  E(vib)   ...       0.00 
freq.    3167.54  E(vib)   ...       0.00 
freq.    3175.48  E(vib)   ...       0.00 
freq.    3192.85  E(vib)   ...       0.00 
freq.    3197.37  E(vib)   ...       0.00 
freq.    3200.09  E(vib)   ...       0.00 
freq.    3508.72  E(vib)   ...       0.00 
freq.    3603.01  E(vib)   ...       0.00 
freq.    3638.58  E(vib)   ...       0.00 
freq.    3643.86  E(vib)   ...       0.00 

------------
INNER ENERGY
------------

The inner energy is: U= E(el) + E(ZPE) + E(vib) + E(rot) + E(trans)
    E(el)   - is the total energy from the electronic structure calculation
              = E(kin-el) + E(nuc-el) + E(el-el) + E(nuc-nuc)
    E(ZPE)  - the the zero temperature vibrational energy from the frequency calculation
    E(vib)  - the the finite temperature correction to E(ZPE) due to population
              of excited vibrational states
    E(rot)  - is the rotational thermal energy
    E(trans)- is the translational thermal energy

Summary of contributions to the inner energy U:
Electronic energy                ...   -668.79702252 Eh
Zero point energy                ...      0.29015304 Eh     182.07 kcal/mol
Thermal vibrational correction   ...      0.01447469 Eh       9.08 kcal/mol
Thermal rotational correction    ...      0.00141627 Eh       0.89 kcal/mol
Thermal translational correction ...      0.00141627 Eh       0.89 kcal/mol
-----------------------------------------------------------------------
Total thermal energy                   -668.48956224 Eh


Summary of corrections to the electronic energy:
(perhaps to be used in another calculation)
Total thermal correction                  0.01730724 Eh      10.86 kcal/mol
Non-thermal (ZPE) correction              0.29015304 Eh     182.07 kcal/mol
-----------------------------------------------------------------------
Total correction                          0.30746028 Eh     192.93 kcal/mol


--------
ENTHALPY
--------

The enthalpy is H = U + kB*T
                kB is Boltzmann's constant
Total free energy                 ...   -668.48956224 Eh 
Thermal Enthalpy correction       ...      0.00094421 Eh       0.59 kcal/mol
-----------------------------------------------------------------------
Total Enthalpy                    ...   -668.48861803 Eh


Note: Only C1 symmetry has been detected, increase convergence thresholds 
      if your molecule has a higher symmetry. Symmetry factor of 1.0 is   
      used for the rotational entropy correction. 
 

Note: Rotational entropy computed according to Herzberg 
Infrared and Raman Spectra, Chapter V,1, Van Nostrand Reinhold, 1945 
Point Group:  C1, Symmetry Number:   1  
Rotational constants in cm-1:     0.019685     0.014146     0.009386 

Vibrational entropy computed according to the QRRHO of S. Grimme
Chem.Eur.J. 2012 18 9955


-------
ENTROPY
-------

The entropy contributions are T*S = T*(S(el)+S(vib)+S(rot)+S(trans))
     S(el)   - electronic entropy
     S(vib)  - vibrational entropy
     S(rot)  - rotational entropy
     S(trans)- translational entropy
The entropies will be listed as multiplied by the temperature to get
units of energy

Electronic entropy                ...      0.00065446 Eh      0.41 kcal/mol
Vibrational entropy               ...      0.02627124 Eh     16.49 kcal/mol
Rotational entropy                ...      0.01557941 Eh      9.78 kcal/mol
Translational entropy             ...      0.01986189 Eh     12.46 kcal/mol
-----------------------------------------------------------------------
Final entropy term                ...      0.06236700 Eh     39.14 kcal/mol

In case the symmetry of your molecule has not been determined correctly
or in case you have a reason to use a different symmetry number we print 
out the resulting rotational entropy values for sn=1,12 :
 --------------------------------------------------------
|  sn= 1 | S(rot)=       0.01557941 Eh      9.78 kcal/mol|
|  sn= 2 | S(rot)=       0.01492495 Eh      9.37 kcal/mol|
|  sn= 3 | S(rot)=       0.01454212 Eh      9.13 kcal/mol|
|  sn= 4 | S(rot)=       0.01427050 Eh      8.95 kcal/mol|
|  sn= 5 | S(rot)=       0.01405981 Eh      8.82 kcal/mol|
|  sn= 6 | S(rot)=       0.01388767 Eh      8.71 kcal/mol|
|  sn= 7 | S(rot)=       0.01374212 Eh      8.62 kcal/mol|
|  sn= 8 | S(rot)=       0.01361604 Eh      8.54 kcal/mol|
|  sn= 9 | S(rot)=       0.01350483 Eh      8.47 kcal/mol|
|  sn=10 | S(rot)=       0.01340535 Eh      8.41 kcal/mol|
|  sn=11 | S(rot)=       0.01331536 Eh      8.36 kcal/mol|
|  sn=12 | S(rot)=       0.01323321 Eh      8.30 kcal/mol|
 --------------------------------------------------------


-------------------
GIBBS FREE ENERGY
-------------------

The Gibbs free energy is G = H - T*S

Total enthalpy                    ...   -668.48861803 Eh 
Total entropy correction          ...     -0.06236700 Eh    -39.14 kcal/mol
-----------------------------------------------------------------------
Final Gibbs free energy         ...   -668.55098503 Eh

For completeness - the Gibbs free energy minus the electronic energy
G-E(el)                           ...      0.24603748 Eh    154.39 kcal/mol


Timings for individual modules:

Sum of individual times         ...     2287.585 sec (=  38.126 min)
GTO integral calculation        ...      169.103 sec (=   2.818 min)   7.4 %
SCF iterations                  ...      852.213 sec (=  14.204 min)  37.3 %
SCF Gradient evaluation         ...      367.726 sec (=   6.129 min)  16.1 %
Geometry relaxation             ...        0.645 sec (=   0.011 min)   0.0 %
Analytical frequency calculation...      897.897 sec (=  14.965 min)  39.3 %
                             ****ORCA TERMINATED NORMALLY****
TOTAL RUN TIME: 0 days 0 hours 41 minutes 7 seconds 411 msec
