
                                 *****************
                                 * O   R   C   A *
                                 *****************

                                            #,                                       
                                            ###                                      
                                            ####                                     
                                            #####                                    
                                            ######                                   
                                           ########,                                 
                                     ,,################,,,,,                         
                               ,,#################################,,                 
                          ,,##########################################,,             
                       ,#########################################, ''#####,          
                    ,#############################################,,   '####,        
                  ,##################################################,,,,####,       
                ,###########''''           ''''###############################       
              ,#####''   ,,,,##########,,,,          '''####'''          '####       
            ,##' ,,,,###########################,,,                        '##       
           ' ,,###''''                  '''############,,,                           
         ,,##''                                '''############,,,,        ,,,,,,###''
      ,#''                                            '''#######################'''  
     '                                                          ''''####''''         
             ,#######,   #######,   ,#######,      ##                                
            ,#'     '#,  ##    ##  ,#'     '#,    #''#        ######   ,####,        
            ##       ##  ##   ,#'  ##            #'  '#       #        #'  '#        
            ##       ##  #######   ##           ,######,      #####,   #    #        
            '#,     ,#'  ##    ##  '#,     ,#' ,#      #,         ##   #,  ,#        
             '#######'   ##     ##  '#######'  #'      '#     #####' # '####'        



                  #######################################################
                  #                        -***-                        #
                  #          Department of theory and spectroscopy      #
                  #    Directorship and core code : Frank Neese         #
                  #        Max Planck Institute fuer Kohlenforschung    #
                  #                Kaiser Wilhelm Platz 1               #
                  #                 D-45470 Muelheim/Ruhr               #
                  #                      Germany                        #
                  #                                                     #
                  #                  All rights reserved                #
                  #                        -***-                        #
                  #######################################################


                         Program Version 5.0.4 -  RELEASE  -


 With contributions from (in alphabetic order):
   Daniel Aravena         : Magnetic Suceptibility
   Michael Atanasov       : Ab Initio Ligand Field Theory (pilot matlab implementation)
   Alexander A. Auer      : GIAO ZORA, VPT2 properties, NMR spectrum
   Ute Becker             : Parallelization
   Giovanni Bistoni       : ED, misc. LED, open-shell LED, HFLD
   Martin Brehm           : Molecular dynamics
   Dmytro Bykov           : SCF Hessian
   Vijay G. Chilkuri      : MRCI spin determinant printing, contributions to CSF-ICE
   Dipayan Datta          : RHF DLPNO-CCSD density
   Achintya Kumar Dutta   : EOM-CC, STEOM-CC
   Dmitry Ganyushin       : Spin-Orbit,Spin-Spin,Magnetic field MRCI
   Miquel Garcia          : C-PCM and meta-GGA Hessian, CC/C-PCM, Gaussian charge scheme
   Yang Guo               : DLPNO-NEVPT2, F12-NEVPT2, CIM, IAO-localization
   Andreas Hansen         : Spin unrestricted coupled pair/coupled cluster methods
   Benjamin Helmich-Paris : MC-RPA, TRAH-SCF, COSX integrals
   Lee Huntington         : MR-EOM, pCC
   Robert Izsak           : Overlap fitted RIJCOSX, COSX-SCS-MP3, EOM
   Marcus Kettner         : VPT2
   Christian Kollmar      : KDIIS, OOCD, Brueckner-CCSD(T), CCSD density, CASPT2, CASPT2-K
   Simone Kossmann        : Meta GGA functionals, TD-DFT gradient, OOMP2, MP2 Hessian
   Martin Krupicka        : Initial AUTO-CI
   Lucas Lang             : DCDCAS
   Marvin Lechner         : AUTO-CI (C++ implementation), FIC-MRCC
   Dagmar Lenk            : GEPOL surface, SMD
   Dimitrios Liakos       : Extrapolation schemes; Compound Job, initial MDCI parallelization
   Dimitrios Manganas     : Further ROCIS development; embedding schemes
   Dimitrios Pantazis     : SARC Basis sets
   Anastasios Papadopoulos: AUTO-CI, single reference methods and gradients
   Taras Petrenko         : DFT Hessian,TD-DFT gradient, ASA, ECA, R-Raman, ABS, FL, XAS/XES, NRVS
   Peter Pinski           : DLPNO-MP2, DLPNO-MP2 Gradient
   Christoph Reimann      : Effective Core Potentials
   Marius Retegan         : Local ZFS, SOC
   Christoph Riplinger    : Optimizer, TS searches, QM/MM, DLPNO-CCSD(T), (RO)-DLPNO pert. Triples
   Tobias Risthaus        : Range-separated hybrids, TD-DFT gradient, RPA, STAB
   Michael Roemelt        : Original ROCIS implementation
   Masaaki Saitow         : Open-shell DLPNO-CCSD energy and density
   Barbara Sandhoefer     : DKH picture change effects
   Avijit Sen             : IP-ROCIS
   Kantharuban Sivalingam : CASSCF convergence, NEVPT2, FIC-MRCI
   Bernardo de Souza      : ESD, SOC TD-DFT
   Georgi Stoychev        : AutoAux, RI-MP2 NMR, DLPNO-MP2 response
   Willem Van den Heuvel  : Paramagnetic NMR
   Boris Wezisla          : Elementary symmetry handling
   Frank Wennmohs         : Technical directorship


 We gratefully acknowledge several colleagues who have allowed us to
 interface, adapt or use parts of their codes:
   Stefan Grimme, W. Hujo, H. Kruse, P. Pracht,  : VdW corrections, initial TS optimization,
                  C. Bannwarth, S. Ehlert          DFT functionals, gCP, sTDA/sTD-DF
   Ed Valeev, F. Pavosevic, A. Kumar             : LibInt (2-el integral package), F12 methods
   Garnet Chan, S. Sharma, J. Yang, R. Olivares  : DMRG
   Ulf Ekstrom                                   : XCFun DFT Library
   Mihaly Kallay                                 : mrcc  (arbitrary order and MRCC methods)
   Jiri Pittner, Ondrej Demel                    : Mk-CCSD
   Frank Weinhold                                : gennbo (NPA and NBO analysis)
   Christopher J. Cramer and Donald G. Truhlar   : smd solvation model
   Lars Goerigk                                  : TD-DFT with DH, B97 family of functionals
   V. Asgeirsson, H. Jonsson                     : NEB implementation
   FAccTs GmbH                                   : IRC, NEB, NEB-TS, DLPNO-Multilevel, CI-OPT
                                                   MM, QMMM, 2- and 3-layer-ONIOM, Crystal-QMMM,
                                                   LR-CPCM, SF, NACMEs, symmetry and pop. for TD-DFT,
                                                   nearIR, NL-DFT gradient (VV10), updates on ESD,
                                                   ML-optimized integration grids
   S Lehtola, MJT Oliveira, MAL Marques          : LibXC Library
   Liviu Ungur et al                             : ANISO software


 Your calculation uses the libint2 library for the computation of 2-el integrals
 For citations please refer to: http://libint.valeyev.net

 Your ORCA version has been built with support for libXC version: 5.1.0
 For citations please refer to: https://tddft.org/programs/libxc/

 This ORCA versions uses:
   CBLAS   interface :  Fast vector & matrix operations
   LAPACKE interface :  Fast linear algebra routines
   SCALAPACK package :  Parallel linear algebra routines
   Shared memory     :  Shared parallel matrices
   BLAS/LAPACK       :  OpenBLAS 0.3.15  USE64BITINT DYNAMIC_ARCH NO_AFFINITY Zen SINGLE_THREADED
        Core in use  :  Zen
   Copyright (c) 2011-2014, The OpenBLAS Project




***************************************
The coordinates will be read from file: model.xyz
***************************************


================================================================================

----- Orbital basis set information -----
Your calculation utilizes the basis: EPR-II
   V. Barone, in Recent Advances in Density Functional Methods, Part 1 (ed. D. P. Chong), World Scientific, Singapore, 1995, p. 287.

----- AuxJ basis set information -----
Your calculation utilizes the auxiliary basis: def2/J
   F. Weigend, Phys. Chem. Chem. Phys. 8, 1057 (2006).

================================================================================
                                        WARNINGS
                       Please study these warnings very carefully!
================================================================================


WARNING: your system is open-shell and RHF/RKS was chosen
  ===> : WILL SWITCH to UHF/UKS


WARNING: Geometry Optimization
  ===> : Switching off AutoStart
         For restart on a previous wavefunction, please use MOREAD

INFO   : the flag for use of the SHARK integral package has been found!

================================================================================
                                       INPUT FILE
================================================================================
NAME = opt.inp
|  1> ! B3LYP EPR-II OPT
|  2> %pal nprocs 16 end
|  3> *XYZFile 1 2 model.xyz
|  4> 
|  5>                          ****END OF INPUT****
================================================================================

                       *****************************
                       * Geometry Optimization Run *
                       *****************************

Geometry optimization settings:
Update method            Update   .... BFGS
Choice of coordinates    CoordSys .... Z-matrix Internals
Initial Hessian          InHess   .... Almoef's Model

Convergence Tolerances:
Energy Change            TolE     ....  5.0000e-06 Eh
Max. Gradient            TolMAXG  ....  3.0000e-04 Eh/bohr
RMS Gradient             TolRMSG  ....  1.0000e-04 Eh/bohr
Max. Displacement        TolMAXD  ....  4.0000e-03 bohr
RMS Displacement         TolRMSD  ....  2.0000e-03 bohr
Strict Convergence                ....  False
------------------------------------------------------------------------------
                        ORCA OPTIMIZATION COORDINATE SETUP
------------------------------------------------------------------------------

The optimization will be done in new redundant internal coordinates
Making redundant internal coordinates   ...  (new redundants) done
Evaluating the initial hessian          ...  (Almloef) done
Evaluating the coordinates              ...  done
Calculating the B-matrix                .... done
Calculating the G-matrix                .... done
Diagonalizing the G-matrix              .... done
Small eigenvalue found = 5.922e-03
Small eigenvalue found = 6.789e-03
Small eigenvalue found = 1.067e-02
Small eigenvalue found = 2.306e-02
Small eigenvalue found = 2.487e-02
The first mode is                       ....   70
The number of degrees of freedom        ....   93

    -----------------------------------------------------------------
                    Redundant Internal Coordinates


    -----------------------------------------------------------------
         Definition                    Initial Value    Approx d2E/dq
    -----------------------------------------------------------------
      1. B(C   1,N   0)                  1.4282         0.486338   
      2. B(C   2,C   1)                  1.5371         0.363921   
      3. B(O   3,C   2)                  1.2169         1.057002   
      4. B(C   4,C   1)                  1.5772         0.314062   
      5. B(C   5,C   4)                  1.5349         0.366872   
      6. B(C   6,C   5)                  1.5377         0.363096   
      7. B(C   7,C   6)                  1.6142         0.274211   
      8. B(N   8,C   7)                  1.3970         0.545361   
      9. B(H   9,N   8)                  1.0146         0.425450   
     10. B(H  10,N   0)                  1.0135         0.427244   
     11. B(C  11,N   0)                  1.3737         0.594053   
     12. B(N  12,C   2)                  1.3452         0.659676   
     13. B(H  13,N  12)                  1.0086         0.434912   
     14. B(O  14,C  11)                  1.2129         1.072505   
     15. B(H  15,N   8)                  1.0146         0.425504   
     16. B(C  16,N  12)                  1.4560         0.439181   
     17. B(H  17,C  16)                  1.0968         0.351184   
     18. B(H  18,C  16)                  1.0931         0.356030   
     19. B(H  19,C  16)                  1.0946         0.354060   
     20. B(C  20,C  11)                  1.5161         0.393192   
     21. B(H  21,C  20)                  1.0930         0.356154   
     22. B(H  22,C  20)                  1.0980         0.349638   
     23. B(H  23,C  20)                  1.0954         0.353024   
     24. B(H  24,C   1)                  1.0987         0.348721   
     25. B(H  25,C   4)                  1.0974         0.350483   
     26. B(H  26,C   4)                  1.0976         0.350223   
     27. B(H  27,C   5)                  1.0965         0.351578   
     28. B(H  28,C   5)                  1.0974         0.350437   
     29. B(H  29,C   6)                  1.0960         0.352216   
     30. B(H  30,C   6)                  1.0959         0.352381   
     31. B(H  31,C   7)                  1.0951         0.353358   
     32. B(H  32,C   7)                  1.0945         0.354131   
     33. A(C   1,N   0,C  11)          121.7193         0.407167   
     34. A(H  10,N   0,C  11)          121.7221         0.355305   
     35. A(C   1,N   0,H  10)          116.5166         0.343515   
     36. A(N   0,C   1,C   4)          113.0233         0.366710   
     37. A(N   0,C   1,C   2)          107.6219         0.376127   
     38. A(C   4,C   1,H  24)          104.9575         0.313617   
     39. A(N   0,C   1,H  24)          108.7571         0.334947   
     40. A(C   2,C   1,H  24)          112.6310         0.321235   
     41. A(C   2,C   1,C   4)          109.9289         0.351227   
     42. A(C   1,C   2,N  12)          116.1049         0.396638   
     43. A(C   1,C   2,O   3)          119.9916         0.431280   
     44. A(O   3,C   2,N  12)          123.8493         0.477384   
     45. A(H  25,C   4,H  26)          108.2873         0.288348   
     46. A(C   5,C   4,H  26)          111.6210         0.321886   
     47. A(C   1,C   4,C   5)          112.4164         0.351706   
     48. A(C   1,C   4,H  25)          108.3481         0.313874   
     49. A(C   1,C   4,H  26)          105.1855         0.313836   
     50. A(C   5,C   4,H  25)          110.7341         0.321925   
     51. A(H  27,C   5,H  28)          107.5015         0.288516   
     52. A(C   6,C   5,H  27)          110.3284         0.321544   
     53. A(C   4,C   5,H  27)          111.1914         0.322090   
     54. A(C   6,C   5,H  28)          110.1586         0.321373   
     55. A(C   4,C   5,C   6)          107.9302         0.360476   
     56. A(C   4,C   5,H  28)          109.7394         0.321918   
     57. A(C   5,C   6,H  30)          111.6407         0.321664   
     58. A(C   7,C   6,H  29)          107.6854         0.307316   
     59. A(C   5,C   6,H  29)          112.2176         0.321640   
     60. A(C   5,C   6,C   7)          107.9847         0.343165   
     61. A(H  29,C   6,H  30)          109.0716         0.288848   
     62. A(C   7,C   6,H  30)          108.0739         0.307339   
     63. A(C   6,C   7,H  32)          107.3803         0.307584   
     64. A(N   8,C   7,H  31)          110.8052         0.342162   
     65. A(N   8,C   7,H  32)          110.6320         0.342288   
     66. A(C   6,C   7,H  31)          107.0809         0.307476   
     67. A(H  31,C   7,H  32)          111.4740         0.289219   
     68. A(C   6,C   7,N   8)          109.3231         0.365384   
     69. A(C   7,N   8,H   9)          121.3426         0.349951   
     70. A(H   9,N   8,H  15)          116.2367         0.301629   
     71. A(C   7,N   8,H  15)          121.3327         0.349958   
     72. A(O  14,C  11,C  20)          123.6520         0.438476   
     73. A(N   0,C  11,C  20)          115.9173         0.394735   
     74. A(N   0,C  11,O  14)          120.4168         0.469534   
     75. A(C   2,N  12,H  13)          119.0552         0.362796   
     76. A(H  13,N  12,C  16)          118.6399         0.338710   
     77. A(C   2,N  12,C  16)          121.3803         0.407368   
     78. A(H  18,C  16,H  19)          109.5510         0.289552   
     79. A(H  17,C  16,H  19)          108.3791         0.288930   
     80. A(N  12,C  16,H  19)          109.6474         0.330162   
     81. A(H  17,C  16,H  18)          109.5000         0.289182   
     82. A(N  12,C  16,H  18)          108.7344         0.330465   
     83. A(N  12,C  16,H  17)          111.0141         0.329718   
     84. A(H  21,C  20,H  22)          108.2244         0.288997   
     85. A(C  11,C  20,H  22)          108.3559         0.325477   
     86. A(C  11,C  20,H  21)          108.8154         0.326468   
     87. A(H  22,C  20,H  23)          108.3875         0.288598   
     88. A(H  21,C  20,H  23)          110.3417         0.289434   
     89. A(C  11,C  20,H  23)          112.6039         0.325994   
     90. D(C   2,C   1,N   0,H  10)     13.0280         0.020247   
     91. D(C   2,C   1,N   0,C  11)   -164.6533         0.020247   
     92. D(C   4,C   1,N   0,C  11)     73.7746         0.020247   
     93. D(C   4,C   1,N   0,H  10)   -108.5441         0.020247   
     94. D(H  24,C   1,N   0,C  11)    -42.3600         0.020247   
     95. D(H  24,C   1,N   0,H  10)    135.3213         0.020247   
     96. D(O   3,C   2,C   1,N   0)    -33.3239         0.009942   
     97. D(N  12,C   2,C   1,N   0)    149.2541         0.009942   
     98. D(N  12,C   2,C   1,C   4)    -87.2645         0.009942   
     99. D(N  12,C   2,C   1,H  24)     29.3892         0.009942   
    100. D(O   3,C   2,C   1,C   4)     90.1575         0.009942   
    101. D(O   3,C   2,C   1,H  24)   -153.1888         0.009942   
    102. D(C   5,C   4,C   1,N   0)     63.7898         0.008121   
    103. D(C   5,C   4,C   1,C   2)    -56.4726         0.008121   
    104. D(H  26,C   4,C   1,C   2)   -178.1387         0.008121   
    105. D(C   5,C   4,C   1,H  24)   -177.8398         0.008121   
    106. D(H  25,C   4,C   1,H  24)    -55.1365         0.008121   
    107. D(H  25,C   4,C   1,C   2)     66.2308         0.008121   
    108. D(H  25,C   4,C   1,N   0)   -173.5068         0.008121   
    109. D(H  26,C   4,C   1,H  24)     60.4941         0.008121   
    110. D(H  26,C   4,C   1,N   0)    -57.8762         0.008121   
    111. D(H  28,C   5,C   4,H  26)     68.6385         0.010771   
    112. D(H  28,C   5,C   4,H  25)   -170.6349         0.010771   
    113. D(H  28,C   5,C   4,C   1)    -49.2855         0.010771   
    114. D(H  27,C   5,C   4,H  25)    -51.8321         0.010771   
    115. D(H  27,C   5,C   4,C   1)     69.5172         0.010771   
    116. D(C   6,C   5,C   4,H  26)    -51.4231         0.010771   
    117. D(H  27,C   5,C   4,H  26)   -172.5588         0.010771   
    118. D(C   6,C   5,C   4,H  25)     69.3035         0.010771   
    119. D(C   6,C   5,C   4,C   1)   -169.3471         0.010771   
    120. D(C   7,C   6,C   5,C   4)    179.0141         0.010565   
    121. D(H  30,C   6,C   5,H  27)   -177.9809         0.010565   
    122. D(H  30,C   6,C   5,C   4)     60.3476         0.010565   
    123. D(H  29,C   6,C   5,H  28)    177.7459         0.010565   
    124. D(H  29,C   6,C   5,H  27)     59.2147         0.010565   
    125. D(H  29,C   6,C   5,C   4)    -62.4568         0.010565   
    126. D(C   7,C   6,C   5,H  28)     59.2167         0.010565   
    127. D(H  30,C   6,C   5,H  28)    -59.4498         0.010565   
    128. D(C   7,C   6,C   5,H  27)    -59.3145         0.010565   
    129. D(H  32,C   7,C   6,H  30)     62.8559         0.006447   
    130. D(H  32,C   7,C   6,C   5)    -58.0611         0.006447   
    131. D(H  31,C   7,C   6,H  30)   -177.3112         0.006447   
    132. D(H  31,C   7,C   6,H  29)    -59.6128         0.006447   
    133. D(H  31,C   7,C   6,C   5)     61.7718         0.006447   
    134. D(N   8,C   7,C   6,H  30)    -57.2114         0.006447   
    135. D(H  32,C   7,C   6,H  29)   -179.4458         0.006447   
    136. D(N   8,C   7,C   6,H  29)     60.4870         0.006447   
    137. D(N   8,C   7,C   6,C   5)   -178.1283         0.006447   
    138. D(H  15,N   8,C   7,H  32)    159.4099         0.025722   
    139. D(H  15,N   8,C   7,H  31)     35.2492         0.025722   
    140. D(H  15,N   8,C   7,C   6)    -82.5388         0.025722   
    141. D(H   9,N   8,C   7,H  32)    -32.9664         0.025722   
    142. D(H   9,N   8,C   7,H  31)   -157.1271         0.025722   
    143. D(H   9,N   8,C   7,C   6)     85.0849         0.025722   
    144. D(C  20,C  11,N   0,H  10)     -3.6179         0.028396   
    145. D(C  20,C  11,N   0,C   1)    173.9428         0.028396   
    146. D(O  14,C  11,N   0,H  10)    177.6876         0.028396   
    147. D(O  14,C  11,N   0,C   1)     -4.7516         0.028396   
    148. D(C  16,N  12,C   2,O   3)      3.3802         0.035607   
    149. D(C  16,N  12,C   2,C   1)   -179.3084         0.035607   
    150. D(H  13,N  12,C   2,O   3)    172.2250         0.035607   
    151. D(H  13,N  12,C   2,C   1)    -10.4635         0.035607   
    152. D(H  17,C  16,N  12,C   2)     68.4397         0.016447   
    153. D(H  19,C  16,N  12,H  13)    139.8277         0.016447   
    154. D(H  19,C  16,N  12,C   2)    -51.2824         0.016447   
    155. D(H  18,C  16,N  12,H  13)     20.0725         0.016447   
    156. D(H  18,C  16,N  12,C   2)   -171.0377         0.016447   
    157. D(H  17,C  16,N  12,H  13)   -100.4501         0.016447   
    158. D(H  23,C  20,C  11,O  14)   -151.6383         0.011492   
    159. D(H  23,C  20,C  11,N   0)     29.7142         0.011492   
    160. D(H  22,C  20,C  11,O  14)     88.4841         0.011492   
    161. D(H  22,C  20,C  11,N   0)    -90.1634         0.011492   
    162. D(H  21,C  20,C  11,O  14)    -28.9779         0.011492   
    163. D(H  21,C  20,C  11,N   0)    152.3746         0.011492   
    -----------------------------------------------------------------

Number of atoms                         .... 33
Number of degrees of freedom            .... 163

         *************************************************************
         *                GEOMETRY OPTIMIZATION CYCLE   1            *
         *************************************************************
---------------------------------
CARTESIAN COORDINATES (ANGSTROEM)
---------------------------------
  N     -7.844496    0.908729    0.040270
  C     -6.422138    0.885889    0.167215
  C     -6.088844    0.883971    1.667772
  O     -6.807112    1.476567    2.451176
  C     -5.720161    2.109730   -0.537848
  C     -6.104791    3.451973    0.099685
  C     -5.591205    4.575477   -0.816080
  C     -6.017829    5.987315   -0.160138
  N     -5.601304    7.028665   -0.993052
  H     -6.169624    7.339328   -1.774029
  H     -8.370276    1.123698    0.879581
  C     -8.468720    0.606807   -1.145620
  N     -4.957187    0.248745    2.021944
  H     -4.479207   -0.318230    1.338290
  O     -7.816710    0.394102   -2.146024
  H     -4.650065    7.380204   -0.962739
  C     -4.539328    0.163836    3.414064
  H     -5.217814   -0.477265    3.989972
  H     -3.527586   -0.248185    3.452430
  H     -4.545280    1.162711    3.861692
  C     -9.982193    0.532271   -1.097582
  H    -10.378875    0.780179   -2.085425
  H    -10.270204   -0.500603   -0.861186
  H    -10.412384    1.193504   -0.337573
  H     -6.035200   -0.001203   -0.352956
  H     -4.634367    1.956501   -0.495537
  H     -6.034916    2.055828   -1.587937
  H     -5.674452    3.551887    1.103268
  H     -7.195711    3.515284    0.200587
  H     -4.499137    4.567891   -0.908842
  H     -6.035926    4.516925   -1.815974
  H     -5.526180    6.049928    0.816439
  H     -7.107842    5.985509   -0.060606

----------------------------
CARTESIAN COORDINATES (A.U.)
----------------------------
  NO LB      ZA    FRAG     MASS         X           Y           Z
   0 N     7.0000    0    14.007  -14.823950    1.717250    0.076099
   1 C     6.0000    0    12.011  -12.136081    1.674087    0.315991
   2 C     6.0000    0    12.011  -11.506248    1.670464    3.151632
   3 O     8.0000    0    15.999  -12.863577    2.790307    4.632050
   4 C     6.0000    0    12.011  -10.809538    3.986811   -1.016386
   5 C     6.0000    0    12.011  -11.536383    6.523283    0.188376
   6 C     6.0000    0    12.011  -10.565845    8.646399   -1.542168
   7 C     6.0000    0    12.011  -11.372048   11.314386   -0.302617
   8 N     7.0000    0    14.007  -10.584930   13.282253   -1.876597
   9 H     1.0000    0     1.008  -11.658899   13.869319   -3.352429
  10 H     1.0000    0     1.008  -15.817529    2.123481    1.662168
  11 C     6.0000    0    12.011  -16.003562    1.146698   -2.164908
  12 N     7.0000    0    14.007   -9.367727    0.470060    3.820921
  13 H     1.0000    0     1.008   -8.464475   -0.601367    2.529001
  14 O     8.0000    0    15.999  -14.771441    0.744745   -4.055397
  15 H     1.0000    0     1.008   -8.787350   13.946565   -1.819313
  16 C     6.0000    0    12.011   -8.578087    0.309605    6.451646
  17 H     1.0000    0     1.008   -9.860240   -0.901900    7.539954
  18 H     1.0000    0     1.008   -6.666172   -0.469002    6.524146
  19 H     1.0000    0     1.008   -8.589335    2.197206    7.297540
  20 C     6.0000    0    12.011  -18.863611    1.005846   -2.074129
  21 H     1.0000    0     1.008  -19.613231    1.474325   -3.940882
  22 H     1.0000    0     1.008  -19.407873   -0.946002   -1.627406
  23 H     1.0000    0     1.008  -19.676553    2.255396   -0.637921
  24 H     1.0000    0     1.008  -11.404875   -0.002274   -0.666990
  25 H     1.0000    0     1.008   -8.757685    3.697250   -0.936429
  26 H     1.0000    0     1.008  -11.404339    3.884951   -3.000765
  27 H     1.0000    0     1.008  -10.723160    6.712094    2.084874
  28 H     1.0000    0     1.008  -13.597923    6.642923    0.379054
  29 H     1.0000    0     1.008   -8.502137    8.632064   -1.717463
  30 H     1.0000    0     1.008  -11.406246    8.535751   -3.431694
  31 H     1.0000    0     1.008  -10.442966   11.432707    1.542846
  32 H     1.0000    0     1.008  -13.431875   11.310974   -0.114528

--------------------------------
INTERNAL COORDINATES (ANGSTROEM)
--------------------------------
 N      0   0   0     0.000000000000     0.00000000     0.00000000
 C      1   0   0     1.428194978751     0.00000000     0.00000000
 C      2   1   0     1.537126624138   107.62185904     0.00000000
 O      3   2   1     1.216880855649   119.99155210   326.67613912
 C      2   1   3     1.577235740652   113.02329006   238.42792777
 C      5   2   1     1.534928496778   112.41638454    63.78984773
 C      6   5   2     1.537744587580   107.93018797   190.65289983
 C      7   6   5     1.614173067003   107.98474563   179.01406090
 N      8   7   6     1.397014581715   109.32305997   181.87167508
 H      9   8   7     1.014604633887   121.34256386    85.08489192
 H      1   2   3     1.013459133272   116.51661264    13.02798301
 C      1   2   3     1.373734798252   121.71932840   195.34666806
 N      3   2   1     1.345212771228   116.10485596   149.25409655
 H     13   3   2     1.008617151838   119.05522863   349.53647196
 O     12   1   2     1.212917411530   120.41678747   355.24835531
 H      9   8   7     1.014570084897   121.33269196   277.46117042
 C     13   3   2     1.455957949938   121.38028238   180.69164421
 H     17  13   3     1.096824629135   111.01411494    68.43971557
 H     17  13   3     1.093093865071   108.73438576   188.96231197
 H     17  13   3     1.094604386786   109.64741614   308.71756712
 C     12   1   2     1.516068226525   115.91731738   173.94282305
 H     21  12   1     1.092999713924   108.81537316   152.37460935
 H     21  12   1     1.098026065001   108.35587543   269.83656286
 H     21  12   1     1.095402190718   112.60388884    29.71418313
 H      2   1   3     1.098740495423   108.75711825   122.29330891
 H      5   2   1     1.097368843057   108.34813410   186.49319817
 H      5   2   1     1.097570550390   105.18554142   302.12375166
 H      6   5   2     1.096519170637   111.19136392    69.51723625
 H      6   5   2     1.097403996375   109.73942392   310.71452756
 H      7   6   5     1.096026051990   112.21763723   297.54324091
 H      7   6   5     1.095898450644   111.64071898    60.34758868
 H      8   7   6     1.095144537077   107.08089092    61.77184000
 H      8   7   6     1.094549666547   107.38032146   301.93892202

---------------------------
INTERNAL COORDINATES (A.U.)
---------------------------
 N      0   0   0     0.000000000000     0.00000000     0.00000000
 C      1   0   0     2.698897375681     0.00000000     0.00000000
 C      2   1   0     2.904748352779   107.62185904     0.00000000
 O      3   2   1     2.299571554788   119.99155210   326.67613912
 C      2   1   3     2.980543598464   113.02329006   238.42792777
 C      5   2   1     2.900594494062   112.41638454    63.78984773
 C      6   5   2     2.905916134445   107.93018797   190.65289983
 C      7   6   5     3.050345029387   107.98474563   179.01406090
 N      8   7   6     2.639974964536   109.32305997   181.87167508
 H      9   8   7     1.917324892253   121.34256386    85.08489192
 H      1   2   3     1.915160209806   116.51661264    13.02798301
 C      1   2   3     2.595982549335   121.71932840   195.34666806
 N      3   2   1     2.542083729473   116.10485596   149.25409655
 H     13   3   2     1.906010190950   119.05522863   349.53647196
 O     12   1   2     2.292081730857   120.41678747   355.24835531
 H      9   8   7     1.917259604125   121.33269196   277.46117042
 C     13   3   2     2.751361787889   121.38028238   180.69164421
 H     17  13   3     2.072698166005   111.01411494    68.43971557
 H     17  13   3     2.065648043653   108.73438576   188.96231197
 H     17  13   3     2.068502516014   109.64741614   308.71756712
 C     12   1   2     2.864953748471   115.91731738   173.94282305
 H     21  12   1     2.065470123770   108.81537316   152.37460935
 H     21  12   1     2.074968550758   108.35587543   269.83656286
 H     21  12   1     2.070010146955   112.60388884    29.71418313
 H      2   1   3     2.076318628599   108.75711825   122.29330891
 H      5   2   1     2.073726581276   108.34813410   186.49319817
 H      5   2   1     2.074107752895   105.18554142   302.12375166
 H      6   5   2     2.072120933098   111.19136392    69.51723625
 H      6   5   2     2.073793011420   109.73942392   310.71452756
 H      7   6   5     2.071189073904   112.21763723   297.54324091
 H      7   6   5     2.070947942305   111.64071898    60.34758868
 H      8   7   6     2.069523252135   107.08089092    61.77184000
 H      8   7   6     2.068399109749   107.38032146   301.93892202

---------------------
BASIS SET INFORMATION
---------------------
There are 4 groups of distinct atoms

 Group   1 Type N   : 10s5p1d contracted to 6s2p1d pattern {511111/41/1}
 Group   2 Type C   : 10s5p1d contracted to 6s2p1d pattern {511111/41/1}
 Group   3 Type O   : 10s5p1d contracted to 6s2p1d pattern {511111/41/1}
 Group   4 Type H   : 6s1p contracted to 4s1p pattern {3111/1}

Atom   0N    basis set group =>   1
Atom   1C    basis set group =>   2
Atom   2C    basis set group =>   2
Atom   3O    basis set group =>   3
Atom   4C    basis set group =>   2
Atom   5C    basis set group =>   2
Atom   6C    basis set group =>   2
Atom   7C    basis set group =>   2
Atom   8N    basis set group =>   1
Atom   9H    basis set group =>   4
Atom  10H    basis set group =>   4
Atom  11C    basis set group =>   2
Atom  12N    basis set group =>   1
Atom  13H    basis set group =>   4
Atom  14O    basis set group =>   3
Atom  15H    basis set group =>   4
Atom  16C    basis set group =>   2
Atom  17H    basis set group =>   4
Atom  18H    basis set group =>   4
Atom  19H    basis set group =>   4
Atom  20C    basis set group =>   2
Atom  21H    basis set group =>   4
Atom  22H    basis set group =>   4
Atom  23H    basis set group =>   4
Atom  24H    basis set group =>   4
Atom  25H    basis set group =>   4
Atom  26H    basis set group =>   4
Atom  27H    basis set group =>   4
Atom  28H    basis set group =>   4
Atom  29H    basis set group =>   4
Atom  30H    basis set group =>   4
Atom  31H    basis set group =>   4
Atom  32H    basis set group =>   4
---------------------------------
AUXILIARY/J BASIS SET INFORMATION
---------------------------------
There are 4 groups of distinct atoms

 Group   1 Type N   : 12s5p4d2f1g contracted to 6s4p3d1f1g pattern {711111/2111/211/2/1}
 Group   2 Type C   : 12s5p4d2f1g contracted to 6s4p3d1f1g pattern {711111/2111/211/2/1}
 Group   3 Type O   : 12s5p4d2f1g contracted to 6s4p3d1f1g pattern {711111/2111/211/2/1}
 Group   4 Type H   : 5s2p1d contracted to 3s1p1d pattern {311/2/1}

Atom   0N    basis set group =>   1
Atom   1C    basis set group =>   2
Atom   2C    basis set group =>   2
Atom   3O    basis set group =>   3
Atom   4C    basis set group =>   2
Atom   5C    basis set group =>   2
Atom   6C    basis set group =>   2
Atom   7C    basis set group =>   2
Atom   8N    basis set group =>   1
Atom   9H    basis set group =>   4
Atom  10H    basis set group =>   4
Atom  11C    basis set group =>   2
Atom  12N    basis set group =>   1
Atom  13H    basis set group =>   4
Atom  14O    basis set group =>   3
Atom  15H    basis set group =>   4
Atom  16C    basis set group =>   2
Atom  17H    basis set group =>   4
Atom  18H    basis set group =>   4
Atom  19H    basis set group =>   4
Atom  20C    basis set group =>   2
Atom  21H    basis set group =>   4
Atom  22H    basis set group =>   4
Atom  23H    basis set group =>   4
Atom  24H    basis set group =>   4
Atom  25H    basis set group =>   4
Atom  26H    basis set group =>   4
Atom  27H    basis set group =>   4
Atom  28H    basis set group =>   4
Atom  29H    basis set group =>   4
Atom  30H    basis set group =>   4
Atom  31H    basis set group =>   4
Atom  32H    basis set group =>   4


           ************************************************************
           *        Program running with 16 parallel MPI-processes    *
           *              working on a common directory               *
           ************************************************************
------------------------------------------------------------------------------
                           ORCA GTO INTEGRAL CALCULATION
                           -- RI-GTO INTEGRALS CHOSEN --
------------------------------------------------------------------------------
------------------------------------------------------------------------------
                   ___                                                        
                  /   \      - P O W E R E D   B Y -                         
                 /     \                                                     
                 |  |  |   _    _      __       _____    __    __             
                 |  |  |  | |  | |    /  \     |  _  \  |  |  /  |          
                  \  \/   | |  | |   /    \    | | | |  |  | /  /          
                 / \  \   | |__| |  /  /\  \   | |_| |  |  |/  /          
                |  |  |   |  __  | /  /__\  \  |    /   |      \           
                |  |  |   | |  | | |   __   |  |    \   |  |\   \          
                \     /   | |  | | |  |  |  |  | |\  \  |  | \   \       
                 \___/    |_|  |_| |__|  |__|  |_| \__\ |__|  \__/        
                                                                              
                      - O R C A' S   B I G   F R I E N D -                    
                                      &                                       
                       - I N T E G R A L  F E E D E R -                       
                                                                              
 v1 FN, 2020, v2 2021                                                         
------------------------------------------------------------------------------


Reading SHARK input file opt.SHARKINP.tmp ... ok
----------------------
SHARK INTEGRAL PACKAGE
----------------------

Number of atoms                             ...     33
Number of basis functions                   ...    371
Number of shells                            ...    221
Maximum angular momentum                    ...      2
Integral batch strategy                     ... SHARK/LIBINT Hybrid
RI-J (if used) integral strategy            ... SPLIT-RIJ (Revised 2003 algorithm where possible)
Printlevel                                  ...      1
Contraction scheme used                     ... SEGMENTED contraction
Coulomb Range Separation                    ... NOT USED
Exchange Range Separation                   ... NOT USED
Finite Nucleus Model                        ... NOT USED
Auxiliary Coulomb fitting basis             ... AVAILABLE
   # of basis functions in Aux-J            ...    895
   # of shells in Aux-J                     ...    305
   Maximum angular momentum in Aux-J        ...      4
Auxiliary J/K fitting basis                 ... NOT available
Auxiliary Correlation fitting basis         ... NOT available
Auxiliary 'external' fitting basis          ... NOT available
Integral threshold                          ...     2.500000e-11
Primitive cut-off                           ...     2.500000e-12
Primitive pair pre-selection threshold      ...     2.500000e-12

Calculating pre-screening integrals         ... done (  0.0 sec) Dimension = 221
Organizing shell pair data                  ... done (  0.0 sec)
Shell pair information
Total number of shell pairs                 ...     24531
Shell pairs after pre-screening             ...     15963
Total number of primitive shell pairs       ...     64184
Primitive shell pairs kept                  ...     30425
          la=0 lb=0:   7523 shell pairs
          la=1 lb=0:   5460 shell pairs
          la=1 lb=1:    934 shell pairs
          la=2 lb=0:   1450 shell pairs
          la=2 lb=1:    515 shell pairs
          la=2 lb=2:     81 shell pairs

Calculating one electron integrals          ... done (  0.0 sec)
Calculating RI/J V-Matrix + Cholesky decomp.... done (  0.0 sec)
Calculating Nuclear repulsion               ... done (  0.0 sec) ENN=    939.504421678334 Eh

SHARK setup successfully completed in   0.3 seconds

Maximum memory used throughout the entire GTOINT-calculation: 22.9 MB


           ************************************************************
           *        Program running with 16 parallel MPI-processes    *
           *              working on a common directory               *
           ************************************************************
-------------------------------------------------------------------------------
                                 ORCA SCF
-------------------------------------------------------------------------------

------------
SCF SETTINGS
------------
Hamiltonian:
 Density Functional     Method          .... DFT(GTOs)
 Exchange Functional    Exchange        .... B88
   X-Alpha parameter    XAlpha          ....  0.666667
   Becke's b parameter  XBeta           ....  0.004200
 Correlation Functional Correlation     .... LYP
 LDA part of GGA corr.  LDAOpt          .... VWN-5
 Gradients option       PostSCFGGA      .... off
 Hybrid DFT is turned on
   Fraction HF Exchange ScalHFX         ....  0.200000
   Scaling of DF-GGA-X  ScalDFX         ....  0.720000
   Scaling of DF-GGA-C  ScalDFC         ....  0.810000
   Scaling of DF-LDA-C  ScalLDAC        ....  1.000000
   Perturbative correction              ....  0.000000
   Density functional embedding theory  .... OFF
   NL short-range parameter             ....  4.800000
 RI-approximation to the Coulomb term is turned on
   Number of AuxJ basis functions       .... 895
   RIJ-COSX (HFX calculated with COS-X)).... on


General Settings:
 Integral files         IntName         .... opt
 Hartree-Fock type      HFTyp           .... UHF
 Total Charge           Charge          ....    1
 Multiplicity           Mult            ....    2
 Number of Electrons    NEL             ....  109
 Basis Dimension        Dim             ....  371
 Nuclear Repulsion      ENuc            ....    939.5044216783 Eh

Convergence Acceleration:
 DIIS                   CNVDIIS         .... on
   Start iteration      DIISMaxIt       ....    12
   Startup error        DIISStart       ....  0.200000
   # of expansion vecs  DIISMaxEq       ....     5
   Bias factor          DIISBfac        ....   1.050
   Max. coefficient     DIISMaxC        ....  10.000
 Trust-Rad. Augm. Hess. CNVTRAH         .... auto
   Auto Start mean grad. ratio tolernc. ....  1.125000
   Auto Start start iteration           ....    20
   Auto Start num. interpolation iter.  ....    10
   Max. Number of Micro iterations      ....    16
   Max. Number of Macro iterations      .... Maxiter - #DIIS iter
   Number of Davidson start vectors     ....     2
   Converg. threshold I  (grad. norm)   ....   1.000e-05
   Converg. threshold II (energy diff.) ....   1.000e-08
   Grad. Scal. Fac. for Micro threshold ....   0.100
   Minimum threshold for Micro iter.    ....   0.010
   NR start threshold (gradient norm)   ....   0.001
   Initial trust radius                 ....   0.400
   Minimum AH scaling param. (alpha)    ....   1.000
   Maximum AH scaling param. (alpha)    .... 1000.000
   Orbital update algorithm             .... Taylor
   White noise on init. David. guess    .... on
   Maximum white noise                  ....   0.010
   Quad. conv. algorithm                .... NR
 SOSCF                  CNVSOSCF        .... off
 Level Shifting         CNVShift        .... on
   Level shift para.    LevelShift      ....    0.2500
   Turn off err/grad.   ShiftErr        ....    0.0010
 Zerner damping         CNVZerner       .... off
 Static damping         CNVDamp         .... on
   Fraction old density DampFac         ....    0.7000
   Max. Damping (<1)    DampMax         ....    0.9800
   Min. Damping (>=0)   DampMin         ....    0.0000
   Turn off err/grad.   DampErr         ....    0.1000
 Fernandez-Rico         CNVRico         .... off

SCF Procedure:
 Maximum # iterations   MaxIter         ....   125
 SCF integral mode      SCFMode         .... Direct
   Integral package                     .... SHARK and LIBINT hybrid scheme
 Reset frequency        DirectResetFreq ....    20
 Integral Threshold     Thresh          ....  2.500e-11 Eh
 Primitive CutOff       TCut            ....  2.500e-12 Eh

Convergence Tolerance:
 Convergence Check Mode ConvCheckMode   .... Total+1el-Energy
 Convergence forced     ConvForced      .... 0
 Energy Change          TolE            ....  1.000e-08 Eh
 1-El. energy change                    ....  1.000e-05 Eh
 DIIS Error             TolErr          ....  5.000e-07


Diagonalization of the overlap matrix:
Smallest eigenvalue                        ... 1.045e-03
Time for diagonalization                   ...    0.016 sec
Threshold for overlap eigenvalues          ... 1.000e-08
Number of eigenvalues below threshold      ... 0
Time for construction of square roots      ...    0.010 sec
Total time needed                          ...    0.026 sec

Time for model grid setup =    0.116 sec

------------------------------
INITIAL GUESS: MODEL POTENTIAL
------------------------------
Loading Hartree-Fock densities                     ... done
Calculating cut-offs                               ... done
Initializing the effective Hamiltonian             ... done
Setting up the integral package (SHARK)            ... done
Starting the Coulomb interaction                   ... done (   0.1 sec)
Reading the grid                                   ... done
Mapping shells                                     ... done
Starting the XC term evaluation                    ... done (   0.0 sec)
  promolecular density results
     # of electrons  =    109.986882621
     EX              =    -88.073875763
     EC              =     -3.688895655
     EX+EC           =    -91.762771418
Transforming the Hamiltonian                       ... done (   0.0 sec)
Diagonalizing the Hamiltonian                      ... done (   0.0 sec)
Back transforming the eigenvectors                 ... done (   0.0 sec)
Now organizing SCF variables                       ... done
                      ------------------
                      INITIAL GUESS DONE (   0.3 sec)
                      ------------------
-------------------
DFT GRID GENERATION
-------------------

General Integration Accuracy     IntAcc      ... 4.388
Radial Grid Type                 RadialGrid  ... OptM3 with GC (2021)
Angular Grid (max. ang.)         AngularGrid ... 4 (Lebedev-302)
Angular grid pruning method      GridPruning ... 4 (adaptive)
Weight generation scheme         WeightScheme... Becke
Basis function cutoff            BFCut       ... 1.0000e-11
Integration weight cutoff        WCut        ... 1.0000e-14
Angular grids for H and He will be reduced by one unit
Partially contracted basis set               ... off
Rotationally invariant grid construction     ... off

Total number of grid points                  ...   144684
Total number of batches                      ...     2279
Average number of points per batch           ...       63
Average number of grid points per atom       ...     4384
Time for grid setup =    0.617 sec

--------------------
COSX GRID GENERATION
--------------------

GRIDX 1
-------
General Integration Accuracy     IntAcc      ... 3.816
Radial Grid Type                 RadialGrid  ... OptM3 with GC (2021)
Angular Grid (max. ang.)         AngularGrid ... 1 (Lebedev-50)
Angular grid pruning method      GridPruning ... 4 (adaptive)
Weight generation scheme         WeightScheme... Becke
Basis function cutoff            BFCut       ... 1.0000e-11
Integration weight cutoff        WCut        ... 1.0000e-14
Angular grids for H and He will be reduced by one unit
Partially contracted basis set               ... on
Rotationally invariant grid construction     ... off

Total number of grid points                  ...    18471
Total number of batches                      ...      310
Average number of points per batch           ...       59
Average number of grid points per atom       ...      560
UseSFitting                                  ... on

GRIDX 2
-------
General Integration Accuracy     IntAcc      ... 4.020
Radial Grid Type                 RadialGrid  ... OptM3 with GC (2021)
Angular Grid (max. ang.)         AngularGrid ... 2 (Lebedev-110)
Angular grid pruning method      GridPruning ... 4 (adaptive)
Weight generation scheme         WeightScheme... Becke
Basis function cutoff            BFCut       ... 1.0000e-11
Integration weight cutoff        WCut        ... 1.0000e-14
Angular grids for H and He will be reduced by one unit
Partially contracted basis set               ... on
Rotationally invariant grid construction     ... off

Total number of grid points                  ...    38976
Total number of batches                      ...      626
Average number of points per batch           ...       62
Average number of grid points per atom       ...     1181
UseSFitting                                  ... on

GRIDX 3
-------
General Integration Accuracy     IntAcc      ... 4.338
Radial Grid Type                 RadialGrid  ... OptM3 with GC (2021)
Angular Grid (max. ang.)         AngularGrid ... 3 (Lebedev-194)
Angular grid pruning method      GridPruning ... 4 (adaptive)
Weight generation scheme         WeightScheme... Becke
Basis function cutoff            BFCut       ... 1.0000e-11
Integration weight cutoff        WCut        ... 1.0000e-14
Angular grids for H and He will be reduced by one unit
Partially contracted basis set               ... on
Rotationally invariant grid construction     ... off

Total number of grid points                  ...    84921
Total number of batches                      ...     1342
Average number of points per batch           ...       63
Average number of grid points per atom       ...     2573
UseSFitting                                  ... on

Time for X-Grid setup             =    0.742 sec

--------------
SCF ITERATIONS
--------------
ITER       Energy         Delta-E        Max-DP      RMS-DP      [F,P]     Damp
               ***  Starting incremental Fock matrix formation  ***
  0   -668.1516317802   0.000000000000 0.06699915  0.00086542  0.1280393 0.7000
  1   -668.3603547057  -0.208722925516 0.04289975  0.00059849  0.0499577 0.7000
                               ***Turning on DIIS***
  2   -668.4368969866  -0.076542280929 0.06767578  0.00093785  0.0198362 0.0000
  3   -668.5591449554  -0.122247968735 0.03368185  0.00046241  0.0278992 0.0000
  4   -668.5882385756  -0.029093620280 0.01274534  0.00016941  0.0086709 0.0000
  5   -668.5901127826  -0.001874206929 0.00565893  0.00006872  0.0067096 0.0000
  6   -668.5905949122  -0.000482129640 0.00227453  0.00002585  0.0013522 0.0000
  7   -668.5906395202  -0.000044607971 0.00585318  0.00005783  0.0006176 0.0000
               *** Restarting incremental Fock matrix formation ***
                                   *** Resetting DIIS ***
  8   -668.5905893622   0.000050157950 0.00497585  0.00004367  0.0020536 0.0000
  9   -668.5905885597   0.000000802499 0.00155047  0.00001327  0.0028438 0.0000
 10   -668.5906648585  -0.000076298801 0.00056814  0.00000812  0.0012627 0.0000
 11   -668.5906851685  -0.000020309971 0.00156435  0.00001572  0.0006116 0.0000
 12   -668.5906922273  -0.000007058756 0.00095288  0.00000741  0.0003563 0.0000
 13   -668.5906954649  -0.000003237640 0.00021060  0.00000282  0.0001353 0.0000
 14   -668.5906960868  -0.000000621909 0.00031310  0.00000345  0.0000774 0.0000
 15   -668.5906964162  -0.000000329403 0.00017540  0.00000170  0.0000645 0.0000
 16   -668.5906965961  -0.000000179909 0.00020654  0.00000182  0.0000398 0.0000
 17   -668.5906966899  -0.000000093813 0.00017465  0.00000146  0.0000193 0.0000
 18   -668.5906967412  -0.000000051264 0.00003329  0.00000028  0.0000119 0.0000
 19   -668.5906967355   0.000000005741 0.00011237  0.00000095  0.0000127 0.0000
 20   -668.5906967529  -0.000000017428 0.00003579  0.00000037  0.0000093 0.0000
 21   -668.5906967560  -0.000000003092 0.00002948  0.00000031  0.0000119 0.0000
                 **** Energy Check signals convergence ****

               *****************************************************
               *                     SUCCESS                       *
               *           SCF CONVERGED AFTER  22 CYCLES          *
               *****************************************************

Old exchange energy                            =    -17.867765661 Eh
New exchange energy                            =    -17.867796319 Eh
Exchange energy change after final integration =     -0.000030658 Eh
Total energy after final integration           =   -668.590727414 Eh
Final COS-X integration done in                =     2.324 sec

----------------
TOTAL SCF ENERGY
----------------

Total Energy       :         -668.59072741 Eh          -18193.27862 eV

Components:
Nuclear Repulsion  :          939.50442168 Eh           25565.21502 eV
Electronic Energy  :        -1608.09514909 Eh          -43758.49365 eV
One Electron Energy:        -2758.00205470 Eh          -75049.05133 eV
Two Electron Energy:         1149.90690561 Eh           31290.55768 eV
Max COSX asymmetry :            0.00000169 Eh               0.00005 eV

Virial components:
Potential Energy   :        -1332.82100218 Eh          -36267.90329 eV
Kinetic Energy     :          664.23027476 Eh           18074.62467 eV
Virial Ratio       :            2.00656467


DFT components:
N(Alpha)           :       54.999959866421 electrons
N(Beta)            :       53.999959476710 electrons
N(Total)           :      108.999919343132 electrons
E(X)               :      -71.023977334237 Eh       
E(C)               :       -4.318824633590 Eh       
E(XC)              :      -75.342801967826 Eh       
DFET-embed. en.    :        0.000000000000 Eh       

---------------
SCF CONVERGENCE
---------------

  Last Energy change         ...   -1.7565e-10  Tolerance :   1.0000e-08
  Last MAX-Density change    ...    0.0000e+00  Tolerance :   1.0000e-07
  Last RMS-Density change    ...    0.0000e+00  Tolerance :   5.0000e-09
  Last DIIS Error            ...    4.8091e-06  Tolerance :   5.0000e-07

             **** THE GBW FILE WAS UPDATED (opt.gbw) ****
             **** DENSITY opt.scfp WAS UPDATED ****
             **** ENERGY FILE WAS UPDATED (opt.en.tmp) ****
----------------------
UHF SPIN CONTAMINATION
----------------------

Warning: in a DFT calculation there is little theoretical justification to 
         calculate <S**2> as in Hartree-Fock theory. We will do it anyways
         but you should keep in mind that the values have only limited relevance

Expectation value of <S**2>     :     0.754964
Ideal value S*(S+1) for S=0.5   :     0.750000
Deviation                       :     0.004964

             **** THE GBW FILE WAS UPDATED (opt.gbw) ****
             **** DENSITY opt.scfp WAS UPDATED ****
----------------
ORBITAL ENERGIES
----------------
                 SPIN UP ORBITALS
  NO   OCC          E(Eh)            E(eV) 
   0   1.0000     -19.243406      -523.6397 
   1   1.0000     -19.240147      -523.5510 
   2   1.0000     -14.550265      -395.9328 
   3   1.0000     -14.499635      -394.5551 
   4   1.0000     -14.490609      -394.3095 
   5   1.0000     -10.420555      -283.5577 
   6   1.0000     -10.416571      -283.4493 
   7   1.0000     -10.391849      -282.7766 
   8   1.0000     -10.374190      -282.2961 
   9   1.0000     -10.351257      -281.6720 
  10   1.0000     -10.330383      -281.1040 
  11   1.0000     -10.328614      -281.0559 
  12   1.0000     -10.325084      -280.9598 
  13   1.0000     -10.295420      -280.1526 
  14   1.0000      -1.178556       -32.0701 
  15   1.0000      -1.169160       -31.8145 
  16   1.0000      -1.103974       -30.0407 
  17   1.0000      -1.063392       -28.9364 
  18   1.0000      -1.052622       -28.6433 
  19   1.0000      -0.947540       -25.7839 
  20   1.0000      -0.902957       -24.5707 
  21   1.0000      -0.856224       -23.2990 
  22   1.0000      -0.839291       -22.8383 
  23   1.0000      -0.809364       -22.0239 
  24   1.0000      -0.771663       -20.9980 
  25   1.0000      -0.741678       -20.1821 
  26   1.0000      -0.719216       -19.5709 
  27   1.0000      -0.716552       -19.4984 
  28   1.0000      -0.704839       -19.1796 
  29   1.0000      -0.663870       -18.0648 
  30   1.0000      -0.647827       -17.6283 
  31   1.0000      -0.618640       -16.8340 
  32   1.0000      -0.610794       -16.6206 
  33   1.0000      -0.601588       -16.3701 
  34   1.0000      -0.591307       -16.0903 
  35   1.0000      -0.578320       -15.7369 
  36   1.0000      -0.570527       -15.5248 
  37   1.0000      -0.566789       -15.4231 
  38   1.0000      -0.555611       -15.1189 
  39   1.0000      -0.546905       -14.8820 
  40   1.0000      -0.530975       -14.4486 
  41   1.0000      -0.524340       -14.2680 
  42   1.0000      -0.514434       -13.9985 
  43   1.0000      -0.508239       -13.8299 
  44   1.0000      -0.507597       -13.8124 
  45   1.0000      -0.502865       -13.6837 
  46   1.0000      -0.492489       -13.4013 
  47   1.0000      -0.489965       -13.3326 
  48   1.0000      -0.480146       -13.0654 
  49   1.0000      -0.470356       -12.7990 
  50   1.0000      -0.431755       -11.7486 
  51   1.0000      -0.402247       -10.9457 
  52   1.0000      -0.391609       -10.6562 
  53   1.0000      -0.380905       -10.3650 
  54   1.0000      -0.379663       -10.3311 
  55   0.0000      -0.121065        -3.2944 
  56   0.0000      -0.113805        -3.0968 
  57   0.0000      -0.099003        -2.6940 
  58   0.0000      -0.095135        -2.5888 
  59   0.0000      -0.088218        -2.4005 
  60   0.0000      -0.078482        -2.1356 
  61   0.0000      -0.069781        -1.8988 
  62   0.0000      -0.062531        -1.7015 
  63   0.0000      -0.035622        -0.9693 
  64   0.0000      -0.033347        -0.9074 
  65   0.0000      -0.028252        -0.7688 
  66   0.0000      -0.025026        -0.6810 
  67   0.0000      -0.018830        -0.5124 
  68   0.0000      -0.004606        -0.1253 
  69   0.0000      -0.000384        -0.0105 
  70   0.0000       0.013702         0.3728 
  71   0.0000       0.021878         0.5953 
  72   0.0000       0.043877         1.1939 
  73   0.0000       0.049351         1.3429 
  74   0.0000       0.051762         1.4085 
  75   0.0000       0.055733         1.5166 
  76   0.0000       0.062701         1.7062 
  77   0.0000       0.072060         1.9609 
  78   0.0000       0.077895         2.1196 
  79   0.0000       0.082242         2.2379 
  80   0.0000       0.087684         2.3860 
  81   0.0000       0.090185         2.4541 
  82   0.0000       0.092320         2.5122 
  83   0.0000       0.094515         2.5719 
  84   0.0000       0.105533         2.8717 
  85   0.0000       0.108073         2.9408 
  86   0.0000       0.113572         3.0904 
  87   0.0000       0.122372         3.3299 
  88   0.0000       0.129524         3.5245 
  89   0.0000       0.132345         3.6013 
  90   0.0000       0.139825         3.8048 
  91   0.0000       0.143271         3.8986 
  92   0.0000       0.149580         4.0703 
  93   0.0000       0.151084         4.1112 
  94   0.0000       0.163022         4.4361 
  95   0.0000       0.165990         4.5168 
  96   0.0000       0.168864         4.5950 
  97   0.0000       0.172803         4.7022 
  98   0.0000       0.178307         4.8520 
  99   0.0000       0.192730         5.2444 
 100   0.0000       0.196609         5.3500 
 101   0.0000       0.201412         5.4807 
 102   0.0000       0.205308         5.5867 
 103   0.0000       0.207634         5.6500 
 104   0.0000       0.230422         6.2701 
 105   0.0000       0.237304         6.4574 
 106   0.0000       0.247934         6.7466 
 107   0.0000       0.255655         6.9567 
 108   0.0000       0.259353         7.0573 
 109   0.0000       0.269564         7.3352 
 110   0.0000       0.274331         7.4649 
 111   0.0000       0.286315         7.7910 
 112   0.0000       0.290573         7.9069 
 113   0.0000       0.308848         8.4042 
 114   0.0000       0.312972         8.5164 
 115   0.0000       0.323117         8.7925 
 116   0.0000       0.335320         9.1245 
 117   0.0000       0.343158         9.3378 
 118   0.0000       0.352386         9.5889 
 119   0.0000       0.363739         9.8979 
 120   0.0000       0.370066        10.0700 
 121   0.0000       0.384408        10.4603 
 122   0.0000       0.401665        10.9299 
 123   0.0000       0.406660        11.0658 
 124   0.0000       0.418536        11.3889 
 125   0.0000       0.426156        11.5963 
 126   0.0000       0.444832        12.1045 
 127   0.0000       0.446344        12.1456 
 128   0.0000       0.463169        12.6035 
 129   0.0000       0.475876        12.9492 
 130   0.0000       0.490165        13.3381 
 131   0.0000       0.516414        14.0523 
 132   0.0000       0.541899        14.7458 
 133   0.0000       0.559166        15.2157 
 134   0.0000       0.564641        15.3647 
 135   0.0000       0.575414        15.6578 
 136   0.0000       0.584406        15.9025 
 137   0.0000       0.598595        16.2886 
 138   0.0000       0.613316        16.6892 
 139   0.0000       0.640222        17.4213 
 140   0.0000       0.665058        18.0971 
 141   0.0000       0.679397        18.4873 
 142   0.0000       0.685089        18.6422 
 143   0.0000       0.698944        19.0192 
 144   0.0000       0.707331        19.2475 
 145   0.0000       0.725548        19.7432 
 146   0.0000       0.727021        19.7832 
 147   0.0000       0.728292        19.8178 
 148   0.0000       0.732180        19.9236 
 149   0.0000       0.737957        20.0808 
 150   0.0000       0.751661        20.4537 
 151   0.0000       0.758884        20.6503 
 152   0.0000       0.761406        20.7189 
 153   0.0000       0.774894        21.0859 
 154   0.0000       0.777061        21.1449 
 155   0.0000       0.786350        21.3977 
 156   0.0000       0.798771        21.7357 
 157   0.0000       0.807353        21.9692 
 158   0.0000       0.809220        22.0200 
 159   0.0000       0.819587        22.3021 
 160   0.0000       0.827527        22.5181 
 161   0.0000       0.830150        22.5895 
 162   0.0000       0.837561        22.7912 
 163   0.0000       0.844829        22.9890 
 164   0.0000       0.858685        23.3660 
 165   0.0000       0.866570        23.5806 
 166   0.0000       0.880800        23.9678 
 167   0.0000       0.892062        24.2742 
 168   0.0000       0.901771        24.5384 
 169   0.0000       0.908588        24.7239 
 170   0.0000       0.920164        25.0389 
 171   0.0000       0.929730        25.2992 
 172   0.0000       0.943841        25.6832 
 173   0.0000       0.956953        26.0400 
 174   0.0000       0.961062        26.1518 
 175   0.0000       0.995256        27.0823 
 176   0.0000       1.008877        27.4529 
 177   0.0000       1.019135        27.7321 
 178   0.0000       1.023401        27.8482 
 179   0.0000       1.031906        28.0796 
 180   0.0000       1.039694        28.2915 
 181   0.0000       1.045530        28.4503 
 182   0.0000       1.057925        28.7876 
 183   0.0000       1.068854        29.0850 
 184   0.0000       1.091931        29.7129 
 185   0.0000       1.102205        29.9925 
 186   0.0000       1.106613        30.1125 
 187   0.0000       1.140091        31.0235 
 188   0.0000       1.162653        31.6374 
 189   0.0000       1.202422        32.7196 
 190   0.0000       1.214469        33.0474 
 191   0.0000       1.232597        33.5407 
 192   0.0000       1.239334        33.7240 
 193   0.0000       1.257011        34.2050 
 194   0.0000       1.257847        34.2278 
 195   0.0000       1.292771        35.1781 
 196   0.0000       1.307780        35.5865 
 197   0.0000       1.308684        35.6111 
 198   0.0000       1.312798        35.7230 
 199   0.0000       1.326941        36.1079 
 200   0.0000       1.355741        36.8916 
 201   0.0000       1.357201        36.9313 
 202   0.0000       1.377382        37.4805 
 203   0.0000       1.388515        37.7834 
 204   0.0000       1.392942        37.9039 
 205   0.0000       1.394533        37.9472 
 206   0.0000       1.404719        38.2243 
 207   0.0000       1.405236        38.2384 
 208   0.0000       1.411419        38.4067 
 209   0.0000       1.445838        39.3432 
 210   0.0000       1.451728        39.5035 
 211   0.0000       1.459256        39.7084 
 212   0.0000       1.470296        40.0088 
 213   0.0000       1.479540        40.2603 
 214   0.0000       1.484714        40.4011 
 215   0.0000       1.499400        40.8008 
 216   0.0000       1.503702        40.9178 
 217   0.0000       1.515587        41.2412 
 218   0.0000       1.523462        41.4555 
 219   0.0000       1.528575        41.5946 
 220   0.0000       1.543682        42.0057 
 221   0.0000       1.555753        42.3342 
 222   0.0000       1.560617        42.4665 
 223   0.0000       1.569626        42.7117 
 224   0.0000       1.582248        43.0552 
 225   0.0000       1.590144        43.2700 
 226   0.0000       1.600343        43.5475 
 227   0.0000       1.616278        43.9812 
 228   0.0000       1.621187        44.1147 
 229   0.0000       1.624866        44.2149 
 230   0.0000       1.653477        44.9934 
 231   0.0000       1.656123        45.0654 
 232   0.0000       1.677554        45.6486 
 233   0.0000       1.700251        46.2662 
 234   0.0000       1.706204        46.4282 
 235   0.0000       1.721827        46.8533 
 236   0.0000       1.736516        47.2530 
 237   0.0000       1.743625        47.4465 
 238   0.0000       1.757948        47.8362 
 239   0.0000       1.779203        48.4146 
 240   0.0000       1.793303        48.7983 
 241   0.0000       1.811715        49.2993 
 242   0.0000       1.844635        50.1951 
 243   0.0000       1.852493        50.4089 
 244   0.0000       1.877982        51.1025 
 245   0.0000       1.898064        51.6490 
 246   0.0000       1.903755        51.8038 
 247   0.0000       1.915136        52.1135 
 248   0.0000       1.933099        52.6023 
 249   0.0000       1.939400        52.7738 
 250   0.0000       1.962181        53.3937 
 251   0.0000       1.976526        53.7840 
 252   0.0000       2.006829        54.6086 
 253   0.0000       2.016630        54.8753 
 254   0.0000       2.039266        55.4913 
 255   0.0000       2.057522        55.9880 
 256   0.0000       2.073510        56.4231 
 257   0.0000       2.082669        56.6723 
 258   0.0000       2.097288        57.0701 
 259   0.0000       2.113523        57.5119 
 260   0.0000       2.120259        57.6952 
 261   0.0000       2.138480        58.1910 
 262   0.0000       2.150418        58.5158 
 263   0.0000       2.158715        58.7416 
 264   0.0000       2.170712        59.0681 
 265   0.0000       2.181380        59.3584 
 266   0.0000       2.199436        59.8497 
 267   0.0000       2.221367        60.4465 
 268   0.0000       2.235507        60.8312 
 269   0.0000       2.255719        61.3812 
 270   0.0000       2.273669        61.8697 
 271   0.0000       2.279821        62.0371 
 272   0.0000       2.283423        62.1351 
 273   0.0000       2.308225        62.8100 
 274   0.0000       2.321949        63.1834 
 275   0.0000       2.327362        63.3307 
 276   0.0000       2.348881        63.9163 
 277   0.0000       2.363399        64.3114 
 278   0.0000       2.374609        64.6164 
 279   0.0000       2.385746        64.9195 
 280   0.0000       2.391835        65.0851 
 281   0.0000       2.398082        65.2551 
 282   0.0000       2.423543        65.9479 
 283   0.0000       2.440936        66.4213 
 284   0.0000       2.453941        66.7751 
 285   0.0000       2.479778        67.4782 
 286   0.0000       2.498203        67.9796 
 287   0.0000       2.507979        68.2456 
 288   0.0000       2.538109        69.0655 
 289   0.0000       2.583418        70.2984 
 290   0.0000       2.594191        70.5915 
 291   0.0000       2.627748        71.5047 
 292   0.0000       2.638447        71.7958 
 293   0.0000       2.641336        71.8744 
 294   0.0000       2.673177        72.7408 
 295   0.0000       2.698251        73.4231 
 296   0.0000       2.773037        75.4582 
 297   0.0000       2.870613        78.1133 
 298   0.0000       2.915377        79.3314 
 299   0.0000       2.986159        81.2575 
 300   0.0000       2.998337        81.5889 
 301   0.0000       3.266997        88.8995 
 302   0.0000       3.312678        90.1426 
 303   0.0000       3.327748        90.5526 
 304   0.0000       3.335689        90.7687 
 305   0.0000       4.733435       128.8033 
 306   0.0000       4.864779       132.3774 
 307   0.0000       4.870092       132.5219 
 308   0.0000       4.887421       132.9935 
 309   0.0000       4.891903       133.1154 
 310   0.0000       4.897913       133.2790 
 311   0.0000       4.913855       133.7128 
 312   0.0000       4.921243       133.9138 
 313   0.0000       4.938118       134.3730 
 314   0.0000       4.956310       134.8681 
 315   0.0000       4.978102       135.4610 
 316   0.0000       4.990774       135.8059 
 317   0.0000       5.026733       136.7844 
 318   0.0000       5.060667       137.7077 
 319   0.0000       5.110654       139.0680 
 320   0.0000       5.136832       139.7803 
 321   0.0000       5.144728       139.9952 
 322   0.0000       5.175364       140.8288 
 323   0.0000       5.183366       141.0466 
 324   0.0000       5.212050       141.8271 
 325   0.0000       5.250340       142.8690 
 326   0.0000       5.262953       143.2122 
 327   0.0000       5.350898       145.6053 
 328   0.0000       5.457417       148.5039 
 329   0.0000       5.508971       149.9067 
 330   0.0000       5.580217       151.8454 
 331   0.0000       5.615135       152.7956 
 332   0.0000       5.712568       155.4469 
 333   0.0000       7.061417       192.1509 
 334   0.0000       7.172207       195.1657 
 335   0.0000       7.213492       196.2891 
 336   0.0000       8.956384       243.7156 
 337   0.0000       9.008626       245.1372 
 338   0.0000      29.465938       801.8089 
 339   0.0000      29.511268       803.0424 
 340   0.0000      29.654271       806.9337 
 341   0.0000      29.771929       810.1354 
 342   0.0000      29.829362       811.6982 
 343   0.0000      29.912417       813.9582 
 344   0.0000      29.970603       815.5416 
 345   0.0000      30.005809       816.4996 
 346   0.0000      30.134667       820.0060 
 347   0.0000      36.337689       988.7988 
 348   0.0000      36.474760       992.5287 
 349   0.0000      36.500904       993.2401 
 350   0.0000      36.506712       993.3981 
 351   0.0000      36.510274       993.4951 
 352   0.0000      36.513632       993.5865 
 353   0.0000      36.528888       994.0016 
 354   0.0000      36.533261       994.1206 
 355   0.0000      36.544936       994.4383 
 356   0.0000      36.572357       995.1844 
 357   0.0000      36.590364       995.6744 
 358   0.0000      36.607943       996.1528 
 359   0.0000      36.663646       997.6685 
 360   0.0000      36.671410       997.8798 
 361   0.0000      36.719234       999.1812 
 362   0.0000      36.745344       999.8916 
 363   0.0000      36.789835      1001.1023 
 364   0.0000      36.807023      1001.5700 
 365   0.0000      36.817594      1001.8577 
 366   0.0000      40.985907      1115.2832 
 367   0.0000      41.105167      1118.5284 
 368   0.0000      41.162282      1120.0826 
 369   0.0000      53.494324      1455.6546 
 370   0.0000      53.542235      1456.9583 

                 SPIN DOWN ORBITALS
  NO   OCC          E(Eh)            E(eV) 
   0   1.0000     -19.242556      -523.6166 
   1   1.0000     -19.238095      -523.4952 
   2   1.0000     -14.540385      -395.6640 
   3   1.0000     -14.496241      -394.4628 
   4   1.0000     -14.489828      -394.2883 
   5   1.0000     -10.420641      -283.5601 
   6   1.0000     -10.417198      -283.4664 
   7   1.0000     -10.391380      -282.7638 
   8   1.0000     -10.373591      -282.2798 
   9   1.0000     -10.349010      -281.6109 
  10   1.0000     -10.329401      -281.0773 
  11   1.0000     -10.328110      -281.0422 
  12   1.0000     -10.325075      -280.9596 
  13   1.0000     -10.295397      -280.1520 
  14   1.0000      -1.176280       -32.0082 
  15   1.0000      -1.165870       -31.7249 
  16   1.0000      -1.083858       -29.4933 
  17   1.0000      -1.056652       -28.7530 
  18   1.0000      -1.050837       -28.5947 
  19   1.0000      -0.942256       -25.6401 
  20   1.0000      -0.897313       -24.4171 
  21   1.0000      -0.851784       -23.1782 
  22   1.0000      -0.837925       -22.8011 
  23   1.0000      -0.805908       -21.9299 
  24   1.0000      -0.767815       -20.8933 
  25   1.0000      -0.738624       -20.0990 
  26   1.0000      -0.715486       -19.4694 
  27   1.0000      -0.713030       -19.4025 
  28   1.0000      -0.702434       -19.1142 
  29   1.0000      -0.662445       -18.0261 
  30   1.0000      -0.641722       -17.4621 
  31   1.0000      -0.616286       -16.7700 
  32   1.0000      -0.606541       -16.5048 
  33   1.0000      -0.594199       -16.1690 
  34   1.0000      -0.589617       -16.0443 
  35   1.0000      -0.576007       -15.6740 
  36   1.0000      -0.567428       -15.4405 
  37   1.0000      -0.555513       -15.1163 
  38   1.0000      -0.550095       -14.9689 
  39   1.0000      -0.543817       -14.7980 
  40   1.0000      -0.528956       -14.3936 
  41   1.0000      -0.519038       -14.1238 
  42   1.0000      -0.513021       -13.9600 
  43   1.0000      -0.507357       -13.8059 
  44   1.0000      -0.503808       -13.7093 
  45   1.0000      -0.500714       -13.6251 
  46   1.0000      -0.488751       -13.2996 
  47   1.0000      -0.485210       -13.2032 
  48   1.0000      -0.477670       -12.9981 
  49   1.0000      -0.461074       -12.5465 
  50   1.0000      -0.392377       -10.6771 
  51   1.0000      -0.384482       -10.4623 
  52   1.0000      -0.376588       -10.2475 
  53   1.0000      -0.366750        -9.9798 
  54   0.0000      -0.334260        -9.0957 
  55   0.0000      -0.118514        -3.2249 
  56   0.0000      -0.111907        -3.0451 
  57   0.0000      -0.097831        -2.6621 
  58   0.0000      -0.091302        -2.4844 
  59   0.0000      -0.087314        -2.3759 
  60   0.0000      -0.077292        -2.1032 
  61   0.0000      -0.068874        -1.8742 
  62   0.0000      -0.062122        -1.6904 
  63   0.0000      -0.034844        -0.9482 
  64   0.0000      -0.032237        -0.8772 
  65   0.0000      -0.026562        -0.7228 
  66   0.0000      -0.024195        -0.6584 
  67   0.0000      -0.017251        -0.4694 
  68   0.0000      -0.002156        -0.0587 
  69   0.0000       0.000445         0.0121 
  70   0.0000       0.016081         0.4376 
  71   0.0000       0.023880         0.6498 
  72   0.0000       0.044865         1.2208 
  73   0.0000       0.050747         1.3809 
  74   0.0000       0.053119         1.4454 
  75   0.0000       0.056679         1.5423 
  76   0.0000       0.064813         1.7636 
  77   0.0000       0.073752         2.0069 
  78   0.0000       0.079423         2.1612 
  79   0.0000       0.083675         2.2769 
  80   0.0000       0.088585         2.4105 
  81   0.0000       0.092949         2.5293 
  82   0.0000       0.093452         2.5430 
  83   0.0000       0.096140         2.6161 
  84   0.0000       0.107898         2.9361 
  85   0.0000       0.109714         2.9855 
  86   0.0000       0.115191         3.1345 
  87   0.0000       0.123942         3.3726 
  88   0.0000       0.131140         3.5685 
  89   0.0000       0.133424         3.6306 
  90   0.0000       0.140436         3.8215 
  91   0.0000       0.144025         3.9191 
  92   0.0000       0.150899         4.1062 
  93   0.0000       0.152611         4.1528 
  94   0.0000       0.164313         4.4712 
  95   0.0000       0.167263         4.5515 
  96   0.0000       0.169998         4.6259 
  97   0.0000       0.174162         4.7392 
  98   0.0000       0.179510         4.8847 
  99   0.0000       0.193708         5.2711 
 100   0.0000       0.197520         5.3748 
 101   0.0000       0.202353         5.5063 
 102   0.0000       0.206188         5.6107 
 103   0.0000       0.208136         5.6637 
 104   0.0000       0.231296         6.2939 
 105   0.0000       0.237967         6.4754 
 106   0.0000       0.249011         6.7759 
 107   0.0000       0.256472         6.9789 
 108   0.0000       0.260805         7.0969 
 109   0.0000       0.270636         7.3644 
 110   0.0000       0.275850         7.5063 
 111   0.0000       0.288165         7.8414 
 112   0.0000       0.291644         7.9360 
 113   0.0000       0.309984         8.4351 
 114   0.0000       0.314615         8.5611 
 115   0.0000       0.324836         8.8392 
 116   0.0000       0.339697         9.2436 
 117   0.0000       0.344490         9.3741 
 118   0.0000       0.358434         9.7535 
 119   0.0000       0.364856         9.9282 
 120   0.0000       0.372839        10.1455 
 121   0.0000       0.388234        10.5644 
 122   0.0000       0.404404        11.0044 
 123   0.0000       0.409931        11.1548 
 124   0.0000       0.421388        11.4666 
 125   0.0000       0.432471        11.7681 
 126   0.0000       0.447013        12.1638 
 127   0.0000       0.451524        12.2866 
 128   0.0000       0.467313        12.7162 
 129   0.0000       0.477157        12.9841 
 130   0.0000       0.491595        13.3770 
 131   0.0000       0.518972        14.1220 
 132   0.0000       0.546922        14.8825 
 133   0.0000       0.560980        15.2650 
 134   0.0000       0.567663        15.4469 
 135   0.0000       0.577062        15.7026 
 136   0.0000       0.587224        15.9792 
 137   0.0000       0.600501        16.3405 
 138   0.0000       0.614008        16.7080 
 139   0.0000       0.641297        17.4506 
 140   0.0000       0.667155        18.1542 
 141   0.0000       0.682956        18.5842 
 142   0.0000       0.686339        18.6762 
 143   0.0000       0.700269        19.0553 
 144   0.0000       0.708376        19.2759 
 145   0.0000       0.726162        19.7599 
 146   0.0000       0.728115        19.8130 
 147   0.0000       0.730079        19.8665 
 148   0.0000       0.734466        19.9858 
 149   0.0000       0.739020        20.1098 
 150   0.0000       0.753255        20.4971 
 151   0.0000       0.759790        20.6749 
 152   0.0000       0.763186        20.7673 
 153   0.0000       0.775455        21.1012 
 154   0.0000       0.778041        21.1716 
 155   0.0000       0.788692        21.4614 
 156   0.0000       0.799793        21.7635 
 157   0.0000       0.808193        21.9920 
 158   0.0000       0.810156        22.0455 
 159   0.0000       0.820621        22.3302 
 160   0.0000       0.828515        22.5450 
 161   0.0000       0.831934        22.6381 
 162   0.0000       0.838462        22.8157 
 163   0.0000       0.846381        23.0312 
 164   0.0000       0.860249        23.4086 
 165   0.0000       0.868069        23.6213 
 166   0.0000       0.881655        23.9910 
 167   0.0000       0.893731        24.3197 
 168   0.0000       0.904589        24.6151 
 169   0.0000       0.910389        24.7729 
 170   0.0000       0.924165        25.1478 
 171   0.0000       0.933063        25.3899 
 172   0.0000       0.944850        25.7107 
 173   0.0000       0.959648        26.1133 
 174   0.0000       0.963287        26.2124 
 175   0.0000       0.999529        27.1986 
 176   0.0000       1.010241        27.4900 
 177   0.0000       1.022545        27.8249 
 178   0.0000       1.025650        27.9094 
 179   0.0000       1.035743        28.1840 
 180   0.0000       1.042451        28.3665 
 181   0.0000       1.047272        28.4977 
 182   0.0000       1.059938        28.8424 
 183   0.0000       1.070483        29.1293 
 184   0.0000       1.093231        29.7483 
 185   0.0000       1.103577        30.0299 
 186   0.0000       1.107979        30.1496 
 187   0.0000       1.141379        31.0585 
 188   0.0000       1.164417        31.6854 
 189   0.0000       1.205374        32.7999 
 190   0.0000       1.216124        33.0924 
 191   0.0000       1.233524        33.5659 
 192   0.0000       1.240336        33.7513 
 193   0.0000       1.257586        34.2207 
 194   0.0000       1.258811        34.2540 
 195   0.0000       1.294075        35.2136 
[...]
      py      :     0.923322
      dz2     :     0.047065  d :     0.212226
      dxz     :     0.018969
      dyz     :     0.046954
      dx2y2   :     0.063285
      dxy     :     0.035954
  8 N s       :     3.094111  s :     3.094111
      pz      :     1.221242  p :     3.681143
      px      :     1.187734
      py      :     1.272167
      dz2     :     0.013988  d :     0.049741
      dxz     :     0.006695
      dyz     :     0.008156
      dx2y2   :     0.012828
      dxy     :     0.008073
  9 H s       :     0.766328  s :     0.766328
      pz      :     0.073797  p :     0.142389
      px      :     0.033098
      py      :     0.035494
 10 H s       :     0.743303  s :     0.743303
      pz      :     0.072291  p :     0.150740
      px      :     0.033949
      py      :     0.044500
 11 C s       :     2.848733  s :     2.848733
      pz      :     0.936346  p :     2.756844
      px      :     1.030554
      py      :     0.789944
      dz2     :     0.152125  d :     0.474293
      dxz     :     0.136055
      dyz     :     0.084484
      dx2y2   :     0.055873
      dxy     :     0.045756
 12 N s       :     3.067276  s :     3.067276
      pz      :     1.151649  p :     3.778899
      px      :     1.233314
      py      :     1.393936
      dz2     :     0.019607  d :     0.081345
      dxz     :     0.024661
      dyz     :     0.014859
      dx2y2   :     0.011475
      dxy     :     0.010742
 13 H s       :     0.766513  s :     0.766513
      pz      :     0.051377  p :     0.144224
      px      :     0.041338
      py      :     0.051508
 14 O s       :     3.585037  s :     3.585037
      pz      :     1.500005  p :     4.501003
      px      :     1.646816
      py      :     1.354181
      dz2     :     0.009916  d :     0.032825
      dxz     :     0.012127
      dyz     :     0.005939
      dx2y2   :     0.002491
      dxy     :     0.002351
 15 H s       :     0.766878  s :     0.766878
      pz      :     0.027262  p :     0.142274
      px      :     0.079303
      py      :     0.035709
 16 C s       :     2.856330  s :     2.856330
      pz      :     0.871136  p :     2.957427
      px      :     1.028714
      py      :     1.057577
      dz2     :     0.048963  d :     0.153086
      dxz     :     0.030328
      dyz     :     0.039890
      dx2y2   :     0.025275
      dxy     :     0.008631
 17 H s       :     0.875222  s :     0.875222
      pz      :     0.017412  p :     0.080382
      px      :     0.017557
      py      :     0.045412
 18 H s       :     0.878579  s :     0.878579
      pz      :     0.012722  p :     0.080073
      px      :     0.048858
      py      :     0.018493
 19 H s       :     0.860087  s :     0.860087
      pz      :     0.024228  p :     0.083581
      px      :     0.026074
      py      :     0.033279
 20 C s       :     2.864152  s :     2.864152
      pz      :     1.037057  p :     3.052024
      px      :     0.970108
      py      :     1.044859
      dz2     :     0.022071  d :     0.104760
      dxz     :     0.018749
      dyz     :     0.012744
      dx2y2   :     0.036178
      dxy     :     0.015018
 21 H s       :     0.854005  s :     0.854005
      pz      :     0.040092  p :     0.082320
      px      :     0.019951
      py      :     0.022277
 22 H s       :     0.848304  s :     0.848304
      pz      :     0.016853  p :     0.082635
      px      :     0.018689
      py      :     0.047093
 23 H s       :     0.875847  s :     0.875847
      pz      :     0.036912  p :     0.082076
      px      :     0.021364
      py      :     0.023800
 24 H s       :     0.839022  s :     0.839022
      pz      :     0.026807  p :     0.083640
      px      :     0.016635
      py      :     0.040198
 25 H s       :     0.863312  s :     0.863312
      pz      :     0.017331  p :     0.081599
      px      :     0.048499
      py      :     0.015768
 26 H s       :     0.849428  s :     0.849428
      pz      :     0.049844  p :     0.084106
      px      :     0.018615
      py      :     0.015647
 27 H s       :     0.860449  s :     0.860449
      pz      :     0.047227  p :     0.082186
      px      :     0.018866
      py      :     0.016093
 28 H s       :     0.865407  s :     0.865407
      pz      :     0.016615  p :     0.080952
      px      :     0.048373
      py      :     0.015964
 29 H s       :     0.866082  s :     0.866082
      pz      :     0.016941  p :     0.081614
      px      :     0.049549
      py      :     0.015124
 30 H s       :     0.865117  s :     0.865117
      pz      :     0.047968  p :     0.081865
      px      :     0.018663
      py      :     0.015233
 31 H s       :     0.856534  s :     0.856534
      pz      :     0.048787  p :     0.080257
      px      :     0.017809
      py      :     0.013660
 32 H s       :     0.858270  s :     0.858270
      pz      :     0.015275  p :     0.080231
      px      :     0.051438
      py      :     0.013518

SPIN
  0 N s       :     0.004909  s :     0.004909
      pz      :     0.019630  p :     0.169878
      px      :     0.003696
      py      :     0.146552
      dz2     :    -0.000291  d :    -0.000478
      dxz     :    -0.000018
      dyz     :    -0.000267
      dx2y2   :    -0.000204
      dxy     :     0.000302
  1 C s       :    -0.000809  s :    -0.000809
      pz      :     0.009518  p :     0.027748
      px      :    -0.003750
      py      :     0.021980
      dz2     :     0.000182  d :     0.008973
      dxz     :     0.000913
      dyz     :     0.000499
      dx2y2   :     0.000353
      dxy     :     0.007025
  2 C s       :    -0.000538  s :    -0.000538
      pz      :     0.001926  p :    -0.004213
      px      :    -0.000247
      py      :    -0.005892
      dz2     :     0.002493  d :     0.005783
      dxz     :     0.000024
      dyz     :     0.000667
      dx2y2   :    -0.000170
      dxy     :     0.002768
  3 O s       :     0.000383  s :     0.000383
      pz      :     0.020272  p :     0.035909
      px      :     0.002486
      py      :     0.013150
      dz2     :    -0.000010  d :    -0.000062
      dxz     :    -0.000016
      dyz     :    -0.000008
      dx2y2   :    -0.000010
      dxy     :    -0.000019
  4 C s       :     0.000371  s :     0.000371
      pz      :     0.007249  p :     0.043040
      px      :     0.002120
      py      :     0.033670
      dz2     :     0.000295  d :     0.001929
      dxz     :     0.000051
      dyz     :     0.000655
      dx2y2   :     0.000204
      dxy     :     0.000725
  5 C s       :    -0.000293  s :    -0.000293
      pz      :     0.002554  p :     0.017237
      px      :    -0.000806
      py      :     0.015489
      dz2     :    -0.000140  d :     0.001365
      dxz     :     0.000224
      dyz     :     0.001172
      dx2y2   :    -0.000316
      dxy     :     0.000425
  6 C s       :     0.001775  s :     0.001775
      pz      :     0.001249  p :     0.074365
      px      :     0.001833
      py      :     0.071282
      dz2     :    -0.000106  d :     0.002031
      dxz     :     0.000128
      dyz     :     0.000972
      dx2y2   :     0.000001
      dxy     :     0.001036
  7 C s       :    -0.001804  s :    -0.001804
      pz      :     0.002974  p :     0.019715
      px      :     0.001053
      py      :     0.015688
      dz2     :     0.004030  d :     0.016926
      dxz     :     0.000904
      dyz     :     0.002537
      dx2y2   :     0.007569
      dxy     :     0.001885
  8 N s       :     0.013363  s :     0.013363
      pz      :     0.104564  p :     0.401162
      px      :     0.065398
      py      :     0.231200
      dz2     :    -0.000088  d :    -0.000712
      dxz     :    -0.000112
      dyz     :    -0.000325
      dx2y2   :     0.000017
      dxy     :    -0.000204
  9 H s       :    -0.009490  s :    -0.009490
      pz      :     0.003703  p :     0.013853
      px      :     0.002491
      py      :     0.007658
 10 H s       :    -0.004156  s :    -0.004156
      pz      :     0.001561  p :     0.006171
      px      :     0.000245
      py      :     0.004365
 11 C s       :    -0.002229  s :    -0.002229
      pz      :    -0.004765  p :    -0.036187
      px      :    -0.001961
      py      :    -0.029461
      dz2     :     0.000662  d :     0.013771
      dxz     :     0.000539
      dyz     :     0.010292
      dx2y2   :     0.001785
      dxy     :     0.000493
 12 N s       :     0.001638  s :     0.001638
      pz      :     0.001059  p :     0.037872
      px      :     0.017723
      py      :     0.019090
      dz2     :     0.000013  d :    -0.000154
      dxz     :    -0.000028
      dyz     :     0.000016
      dx2y2   :    -0.000097
      dxy     :    -0.000058
 13 H s       :    -0.001035  s :    -0.001035
      pz      :     0.000169  p :     0.001318
      px      :     0.000655
      py      :     0.000494
 14 O s       :     0.001068  s :     0.001068
      pz      :     0.001611  p :     0.099301
      px      :     0.005219
      py      :     0.092471
      dz2     :    -0.000061  d :    -0.000380
      dxz     :    -0.000051
      dyz     :    -0.000187
      dx2y2   :    -0.000014
      dxy     :    -0.000067
 15 H s       :    -0.009536  s :    -0.009536
      pz      :     0.003229  p :     0.013842
      px      :     0.002935
      py      :     0.007678
 16 C s       :    -0.000272  s :    -0.000272
      pz      :    -0.000163  p :     0.001208
      px      :     0.000409
      py      :     0.000962
      dz2     :     0.000099  d :     0.001475
      dxz     :     0.000325
      dyz     :     0.000676
      dx2y2   :     0.000358
      dxy     :     0.000017
 17 H s       :     0.002416  s :     0.002416
      pz      :    -0.000003  p :    -0.000058
      px      :    -0.000012
      py      :    -0.000044
 18 H s       :     0.002092  s :     0.002092
      pz      :     0.000024  p :     0.000014
      px      :    -0.000021
      py      :     0.000011
 19 H s       :     0.000323  s :     0.000323
      pz      :    -0.000022  p :     0.000099
      px      :     0.000147
      py      :    -0.000025
 20 C s       :    -0.000017  s :    -0.000017
      pz      :     0.000145  p :     0.001433
      px      :     0.001184
      py      :     0.000104
      dz2     :    -0.000079  d :    -0.001095
      dxz     :    -0.000107
      dyz     :     0.000019
      dx2y2   :    -0.000109
      dxy     :    -0.000820
 21 H s       :    -0.000646  s :    -0.000646
      pz      :     0.000014  p :     0.000061
      px      :     0.000038
      py      :     0.000008
 22 H s       :    -0.001255  s :    -0.001255
      pz      :    -0.000002  p :     0.000074
      px      :     0.000045
      py      :     0.000031
 23 H s       :    -0.000332  s :    -0.000332
      pz      :     0.000005  p :     0.000003
      px      :     0.000012
      py      :    -0.000014
 24 H s       :     0.009531  s :     0.009531
      pz      :     0.000857  p :     0.000743
      px      :    -0.000163
      py      :     0.000049
 25 H s       :    -0.000857  s :    -0.000857
      pz      :     0.000114  p :     0.001002
      px      :     0.000180
      py      :     0.000708
 26 H s       :     0.001968  s :     0.001968
      pz      :     0.000071  p :     0.001259
      px      :     0.000178
      py      :     0.001010
 27 H s       :     0.000433  s :     0.000433
      pz      :     0.000025  p :     0.000312
      px      :    -0.000047
      py      :     0.000334
 28 H s       :    -0.000457  s :    -0.000457
      pz      :     0.000018  p :     0.000837
      px      :     0.000148
      py      :     0.000670
 29 H s       :    -0.001496  s :    -0.001496
      pz      :     0.000007  p :     0.001579
      px      :     0.000234
      py      :     0.001338
 30 H s       :    -0.002032  s :    -0.002032
      pz      :     0.000185  p :     0.001521
      px      :     0.000040
      py      :     0.001296
 31 H s       :     0.009112  s :     0.009112
      pz      :    -0.000228  p :     0.000279
      px      :     0.000389
      py      :     0.000118
 32 H s       :     0.006783  s :     0.006783
      pz      :     0.000344  p :     0.000343
      px      :    -0.000131
      py      :     0.000130


                      *****************************
                      * MAYER POPULATION ANALYSIS *
                      *****************************

  NA   - Mulliken gross atomic population
  ZA   - Total nuclear charge
  QA   - Mulliken gross atomic charge
  VA   - Mayer's total valence
  BVA  - Mayer's bonded valence
  FA   - Mayer's free valence

  ATOM       NA         ZA         QA         VA         BVA        FA
  0 N      7.0613     7.0000    -0.0613     3.3940     3.3595     0.0345
  1 C      6.1343     6.0000    -0.1343     4.0770     4.0751     0.0018
  2 C      5.9091     6.0000     0.0909     4.0603     4.0602     0.0001
  3 O      8.2894     8.0000    -0.2894     2.1714     2.1697     0.0017
  4 C      6.2663     6.0000    -0.2663     3.8847     3.8819     0.0028
  5 C      6.2251     6.0000    -0.2251     3.9338     3.9332     0.0006
  6 C      6.2921     6.0000    -0.2921     3.9239     3.9162     0.0078
  7 C      6.2680     6.0000    -0.2680     3.8672     3.8648     0.0024
  8 N      7.2910     7.0000    -0.2910     3.4596     3.2761     0.1835
  9 H      0.7081     1.0000     0.2919     0.9246     0.9242     0.0004
 10 H      0.7250     1.0000     0.2750     0.9544     0.9543     0.0001
 11 C      5.8311     6.0000     0.1689     4.0005     3.9989     0.0016
 12 N      7.0924     7.0000    -0.0924     3.2584     3.2567     0.0017
 13 H      0.7524     1.0000     0.2476     0.9518     0.9518     0.0000
 14 O      8.2408     8.0000    -0.2408     2.1987     2.1877     0.0110
 15 H      0.7098     1.0000     0.2902     0.9253     0.9250     0.0004
 16 C      6.4350     6.0000    -0.4350     3.8709     3.8709     0.0000
 17 H      0.8085     1.0000     0.1915     0.9487     0.9487     0.0000
 18 H      0.8273     1.0000     0.1727     0.9573     0.9573     0.0000
 19 H      0.7979     1.0000     0.2021     0.9593     0.9593     0.0000
 20 C      6.5225     6.0000    -0.5225     3.8313     3.8313     0.0000
 21 H      0.7984     1.0000     0.2016     0.9555     0.9555     0.0000
 22 H      0.7924     1.0000     0.2076     0.9526     0.9526     0.0000
 23 H      0.8413     1.0000     0.1587     0.9681     0.9681     0.0000
 24 H      0.8164     1.0000     0.1836     0.9419     0.9417     0.0002
 25 H      0.8367     1.0000     0.1633     0.9637     0.9637     0.0000
 26 H      0.8042     1.0000     0.1958     0.9559     0.9559     0.0000
 27 H      0.8269     1.0000     0.1731     0.9645     0.9645     0.0000
 28 H      0.8432     1.0000     0.1568     0.9703     0.9703     0.0000
 29 H      0.8251     1.0000     0.1749     0.9576     0.9576     0.0000
 30 H      0.8250     1.0000     0.1750     0.9593     0.9593     0.0000
 31 H      0.8003     1.0000     0.1997     0.9465     0.9463     0.0001
 32 H      0.8024     1.0000     0.1976     0.9484     0.9483     0.0001

  Mayer bond orders larger than 0.100000
B(  0-N ,  1-C ) :   1.0636 B(  0-N ,  8-N ) :   0.1236 B(  0-N , 10-H ) :   0.8734 
B(  0-N , 11-C ) :   1.1415 B(  1-C ,  2-C ) :   0.8867 B(  1-C ,  4-C ) :   0.8881 
B(  1-C , 14-O ) :   0.1222 B(  1-C , 24-H ) :   0.9494 B(  2-C ,  3-O ) :   1.8587 
B(  2-C , 12-N ) :   1.2238 B(  4-C ,  5-C ) :   0.9598 B(  4-C , 25-H ) :   0.9619 
B(  4-C , 26-H ) :   0.9461 B(  5-C ,  6-C ) :   0.9446 B(  5-C , 27-H ) :   0.9563 
B(  5-C , 28-H ) :   0.9689 B(  6-C ,  7-C ) :   0.8837 B(  6-C , 29-H ) :   0.9623 
B(  6-C , 30-H ) :   0.9622 B(  7-C ,  8-N ) :   1.0472 B(  7-C , 31-H ) :   0.9400 
B(  7-C , 32-H ) :   0.9440 B(  8-N ,  9-H ) :   0.9097 B(  8-N , 15-H ) :   0.9104 
B( 11-C , 14-O ) :   1.9005 B( 11-C , 20-C ) :   0.9205 B( 12-N , 13-H ) :   0.9211 
B( 12-N , 16-C ) :   0.9590 B( 16-C , 17-H ) :   0.9475 B( 16-C , 18-H ) :   0.9546 
B( 16-C , 19-H ) :   0.9439 B( 20-C , 21-H ) :   0.9514 B( 20-C , 22-H ) :   0.9386 
B( 20-C , 23-H ) :   0.9688 

-------
TIMINGS
-------

Total SCF time: 0 days 0 hours 0 min 24 sec 

Total time                  ....      24.870 sec
Sum of individual times     ....      23.991 sec  ( 96.5%)

Fock matrix formation       ....      21.255 sec  ( 85.5%)
  Split-RI-J                ....       1.789 sec  (  8.4% of F)
  Chain of spheres X        ....      14.216 sec  ( 66.9% of F)
  XC integration            ....       4.706 sec  ( 22.1% of F)
    Basis function eval.    ....       0.492 sec  ( 10.5% of XC)
    Density eval.           ....       0.689 sec  ( 14.6% of XC)
    XC-Functional eval.     ....       0.117 sec  (  2.5% of XC)
    XC-Potential eval.      ....       0.395 sec  (  8.4% of XC)
Diagonalization             ....       0.819 sec  (  3.3%)
Density matrix formation    ....       0.036 sec  (  0.1%)
Population analysis         ....       0.075 sec  (  0.3%)
Initial guess               ....       0.061 sec  (  0.2%)
Orbital Transformation      ....       0.000 sec  (  0.0%)
Orbital Orthonormalization  ....       0.044 sec  (  0.2%)
DIIS solution               ....       0.433 sec  (  1.7%)
Grid generation             ....       1.313 sec  (  5.3%)

Maximum memory used throughout the entire SCF-calculation: 85.4 MB

-------------------------   --------------------
FINAL SINGLE POINT ENERGY      -668.594239037586
-------------------------   --------------------

                                *** OPTIMIZATION RUN DONE ***

                            ***************************************
                            *     ORCA property calculations      *
                            ***************************************

                                    ---------------------
                                    Active property flags
                                    ---------------------
   (+) Dipole Moment


------------------------------------------------------------------------------
                       ORCA ELECTRIC PROPERTIES CALCULATION
------------------------------------------------------------------------------

Dipole Moment Calculation                       ... on
Quadrupole Moment Calculation                   ... off
Polarizability Calculation                      ... off
GBWName                                         ... opt.gbw
Electron density                                ... opt.scfp
The origin for moment calculation is the CENTER OF MASS  = (-12.431765,  3.964886  0.422989)

-------------
DIPOLE MOMENT
-------------
                                X             Y             Z
Electronic contribution:     -2.65166      -6.44288      -0.41706
Nuclear contribution   :      4.15447       9.32432       0.02409
                        -----------------------------------------
Total Dipole Moment    :      1.50282       2.88144      -0.39296
                        -----------------------------------------
Magnitude (a.u.)       :      3.27346
Magnitude (Debye)      :      8.32048



--------------------
Rotational spectrum 
--------------------
 
Rotational constants in cm-1:     0.019675     0.013066     0.008909 
Rotational constants in MHz :   589.850756   391.695944   267.084690 

 Dipole components along the rotational axes: 
x,y,z [a.u.] :     3.162469    -0.783244    -0.317613 
x,y,z [Debye]:     8.038357    -1.990849    -0.807308 

 

Timings for individual modules:

Sum of individual times         ...     1633.972 sec (=  27.233 min)
GTO integral calculation        ...      366.145 sec (=   6.102 min)  22.4 %
SCF iterations                  ...      774.496 sec (=  12.908 min)  47.4 %
SCF Gradient evaluation         ...      492.478 sec (=   8.208 min)  30.1 %
Geometry relaxation             ...        0.854 sec (=   0.014 min)   0.1 %
                             ****ORCA TERMINATED NORMALLY****
TOTAL RUN TIME: 0 days 0 hours 32 minutes 5 seconds 723 msec
