
                                 *****************
                                 * O   R   C   A *
                                 *****************

                                            #,                                       
                                            ###                                      
                                            ####                                     
                                            #####                                    
                                            ######                                   
                                           ########,                                 
                                     ,,################,,,,,                         
                               ,,#################################,,                 
                          ,,##########################################,,             
                       ,#########################################, ''#####,          
                    ,#############################################,,   '####,        
                  ,##################################################,,,,####,       
                ,###########''''           ''''###############################       
              ,#####''   ,,,,##########,,,,          '''####'''          '####       
            ,##' ,,,,###########################,,,                        '##       
           ' ,,###''''                  '''############,,,                           
         ,,##''                                '''############,,,,        ,,,,,,###''
      ,#''                                            '''#######################'''  
     '                                                          ''''####''''         
             ,#######,   #######,   ,#######,      ##                                
            ,#'     '#,  ##    ##  ,#'     '#,    #''#        ######   ,####,        
            ##       ##  ##   ,#'  ##            #'  '#       #        #'  '#        
            ##       ##  #######   ##           ,######,      #####,   #    #        
            '#,     ,#'  ##    ##  '#,     ,#' ,#      #,         ##   #,  ,#        
             '#######'   ##     ##  '#######'  #'      '#     #####' # '####'        



                  #######################################################
                  #                        -***-                        #
                  #          Department of theory and spectroscopy      #
                  #    Directorship and core code : Frank Neese         #
                  #        Max Planck Institute fuer Kohlenforschung    #
                  #                Kaiser Wilhelm Platz 1               #
                  #                 D-45470 Muelheim/Ruhr               #
                  #                      Germany                        #
                  #                                                     #
                  #                  All rights reserved                #
                  #                        -***-                        #
                  #######################################################


                         Program Version 5.0.4 -  RELEASE  -


 With contributions from (in alphabetic order):
   Daniel Aravena         : Magnetic Suceptibility
   Michael Atanasov       : Ab Initio Ligand Field Theory (pilot matlab implementation)
   Alexander A. Auer      : GIAO ZORA, VPT2 properties, NMR spectrum
   Ute Becker             : Parallelization
   Giovanni Bistoni       : ED, misc. LED, open-shell LED, HFLD
   Martin Brehm           : Molecular dynamics
   Dmytro Bykov           : SCF Hessian
   Vijay G. Chilkuri      : MRCI spin determinant printing, contributions to CSF-ICE
   Dipayan Datta          : RHF DLPNO-CCSD density
   Achintya Kumar Dutta   : EOM-CC, STEOM-CC
   Dmitry Ganyushin       : Spin-Orbit,Spin-Spin,Magnetic field MRCI
   Miquel Garcia          : C-PCM and meta-GGA Hessian, CC/C-PCM, Gaussian charge scheme
   Yang Guo               : DLPNO-NEVPT2, F12-NEVPT2, CIM, IAO-localization
   Andreas Hansen         : Spin unrestricted coupled pair/coupled cluster methods
   Benjamin Helmich-Paris : MC-RPA, TRAH-SCF, COSX integrals
   Lee Huntington         : MR-EOM, pCC
   Robert Izsak           : Overlap fitted RIJCOSX, COSX-SCS-MP3, EOM
   Marcus Kettner         : VPT2
   Christian Kollmar      : KDIIS, OOCD, Brueckner-CCSD(T), CCSD density, CASPT2, CASPT2-K
   Simone Kossmann        : Meta GGA functionals, TD-DFT gradient, OOMP2, MP2 Hessian
   Martin Krupicka        : Initial AUTO-CI
   Lucas Lang             : DCDCAS
   Marvin Lechner         : AUTO-CI (C++ implementation), FIC-MRCC
   Dagmar Lenk            : GEPOL surface, SMD
   Dimitrios Liakos       : Extrapolation schemes; Compound Job, initial MDCI parallelization
   Dimitrios Manganas     : Further ROCIS development; embedding schemes
   Dimitrios Pantazis     : SARC Basis sets
   Anastasios Papadopoulos: AUTO-CI, single reference methods and gradients
   Taras Petrenko         : DFT Hessian,TD-DFT gradient, ASA, ECA, R-Raman, ABS, FL, XAS/XES, NRVS
   Peter Pinski           : DLPNO-MP2, DLPNO-MP2 Gradient
   Christoph Reimann      : Effective Core Potentials
   Marius Retegan         : Local ZFS, SOC
   Christoph Riplinger    : Optimizer, TS searches, QM/MM, DLPNO-CCSD(T), (RO)-DLPNO pert. Triples
   Tobias Risthaus        : Range-separated hybrids, TD-DFT gradient, RPA, STAB
   Michael Roemelt        : Original ROCIS implementation
   Masaaki Saitow         : Open-shell DLPNO-CCSD energy and density
   Barbara Sandhoefer     : DKH picture change effects
   Avijit Sen             : IP-ROCIS
   Kantharuban Sivalingam : CASSCF convergence, NEVPT2, FIC-MRCI
   Bernardo de Souza      : ESD, SOC TD-DFT
   Georgi Stoychev        : AutoAux, RI-MP2 NMR, DLPNO-MP2 response
   Willem Van den Heuvel  : Paramagnetic NMR
   Boris Wezisla          : Elementary symmetry handling
   Frank Wennmohs         : Technical directorship


 We gratefully acknowledge several colleagues who have allowed us to
 interface, adapt or use parts of their codes:
   Stefan Grimme, W. Hujo, H. Kruse, P. Pracht,  : VdW corrections, initial TS optimization,
                  C. Bannwarth, S. Ehlert          DFT functionals, gCP, sTDA/sTD-DF
   Ed Valeev, F. Pavosevic, A. Kumar             : LibInt (2-el integral package), F12 methods
   Garnet Chan, S. Sharma, J. Yang, R. Olivares  : DMRG
   Ulf Ekstrom                                   : XCFun DFT Library
   Mihaly Kallay                                 : mrcc  (arbitrary order and MRCC methods)
   Jiri Pittner, Ondrej Demel                    : Mk-CCSD
   Frank Weinhold                                : gennbo (NPA and NBO analysis)
   Christopher J. Cramer and Donald G. Truhlar   : smd solvation model
   Lars Goerigk                                  : TD-DFT with DH, B97 family of functionals
   V. Asgeirsson, H. Jonsson                     : NEB implementation
   FAccTs GmbH                                   : IRC, NEB, NEB-TS, DLPNO-Multilevel, CI-OPT
                                                   MM, QMMM, 2- and 3-layer-ONIOM, Crystal-QMMM,
                                                   LR-CPCM, SF, NACMEs, symmetry and pop. for TD-DFT,
                                                   nearIR, NL-DFT gradient (VV10), updates on ESD,
                                                   ML-optimized integration grids
   S Lehtola, MJT Oliveira, MAL Marques          : LibXC Library
   Liviu Ungur et al                             : ANISO software


 Your calculation uses the libint2 library for the computation of 2-el integrals
 For citations please refer to: http://libint.valeyev.net

 Your ORCA version has been built with support for libXC version: 5.1.0
 For citations please refer to: https://tddft.org/programs/libxc/

 This ORCA versions uses:
   CBLAS   interface :  Fast vector & matrix operations
   LAPACKE interface :  Fast linear algebra routines
   SCALAPACK package :  Parallel linear algebra routines
   Shared memory     :  Shared parallel matrices
   BLAS/LAPACK       :  OpenBLAS 0.3.15  USE64BITINT DYNAMIC_ARCH NO_AFFINITY Zen SINGLE_THREADED
        Core in use  :  Zen
   Copyright (c) 2011-2014, The OpenBLAS Project




***************************************
The coordinates will be read from file: opt.xyz
***************************************


================================================================================

----- Orbital basis set information -----
Your calculation utilizes the basis: EPR-II
   V. Barone, in Recent Advances in Density Functional Methods, Part 1 (ed. D. P. Chong), World Scientific, Singapore, 1995, p. 287.

----- AuxJ basis set information -----
Your calculation utilizes the AutoAux generation procedure.
  G. L. Stoychev, A. A. Auer, F. Neese, J. Chem. Theory Comput. 13, 554 (2017)

----- AuxC basis set information -----
Your calculation utilizes the AutoAux generation procedure.
  G. L. Stoychev, A. A. Auer, F. Neese, J. Chem. Theory Comput. 13, 554 (2017)

----- AuxJK basis set information -----
Your calculation utilizes the AutoAux generation procedure.
  G. L. Stoychev, A. A. Auer, F. Neese, J. Chem. Theory Comput. 13, 554 (2017)

================================================================================
                                        WARNINGS
                       Please study these warnings very carefully!
================================================================================


WARNING: your system is open-shell and RHF/RKS was chosen
  ===> : WILL SWITCH to UHF/UKS


INFO   : the flag for use of the SHARK integral package has been found!

================================================================================
                                       INPUT FILE
================================================================================
NAME = epr_info.inp
|  1> ! B3LYP EPR-II AUTOAUX
|  2> %pal nprocs 16 end
|  3> *XYZFile 1 2 opt.xyz
|  4> %EPRNMR
|  5>         GTENSOR   TRUE
|  6>         NUCLEI    = 9,28,29,30,31,32,33 {SHIFT, AISO, ADIP, AORB}
|  7>         ORI       GIAO
|  8> END
|  9> 
| 10>                          ****END OF INPUT****
================================================================================

                       ****************************
                       * Single Point Calculation *
                       ****************************

---------------------------------
CARTESIAN COORDINATES (ANGSTROEM)
---------------------------------
  N     -7.870461    0.826523    0.035052
  C     -6.440480    0.872750    0.145971
  C     -6.111651    0.865289    1.655453
  O     -6.905426    1.358932    2.457027
  C     -5.781514    2.132514   -0.553268
  C     -6.226610    3.481290    0.019605
  C     -5.628220    4.622707   -0.830104
  C     -6.127031    6.021563   -0.286418
  N     -5.610467    7.107757   -1.060227
  H     -8.385453    1.086060    0.872436
  C     -8.519696    0.482071   -1.142068
  N     -4.911010    0.329432    1.989516
  H     -4.383485   -0.145234    1.270063
  O     -7.865326    0.241720   -2.153451
  C     -4.465122    0.187441    3.378416
  H     -4.664807   -0.821444    3.753619
  H     -3.392946    0.388047    3.438346
  H     -5.011052    0.905334    3.990134
  C    -10.033661    0.416365   -1.087282
  H    -10.336101   -0.621494   -1.256461
  H    -10.449429    0.757612   -0.136590
  H    -10.442594    1.013358   -1.905991
  H     -6.027396    0.006706   -0.385068
  H     -4.694564    2.020611   -0.477880
  H     -6.049628    2.041746   -1.611447
  H     -5.908672    3.592953    1.061501
  H     -7.320364    3.548049    0.009436
  H     -4.533989    4.607607   -0.791478
  H     -5.929832    4.525580   -1.878288
  H     -5.797780    6.130039    0.751352
  H     -7.219604    6.045479   -0.322718
  H     -6.036606    7.347067   -1.947520
  H     -4.648507    7.402578   -0.941929

----------------------------
CARTESIAN COORDINATES (A.U.)
----------------------------
  NO LB      ZA    FRAG     MASS         X           Y           Z
   0 N     7.0000    0    14.007  -14.873016    1.561902    0.066239
   1 C     6.0000    0    12.011  -12.170743    1.649259    0.275845
   2 C     6.0000    0    12.011  -11.549346    1.635160    3.128353
   3 O     8.0000    0    15.999  -13.049364    2.568009    4.643108
   4 C     6.0000    0    12.011  -10.925478    4.029867   -1.045526
   5 C     6.0000    0    12.011  -11.766587    6.578684    0.037049
   6 C     6.0000    0    12.011  -10.635794    8.735650   -1.568670
   7 C     6.0000    0    12.011  -11.578411   11.379105   -0.541251
   8 N     7.0000    0    14.007  -10.602246   13.431714   -2.003539
   9 H     1.0000    0     1.008  -15.846209    2.052356    1.648665
  10 C     6.0000    0    12.011  -16.099891    0.910983   -2.158195
  11 N     7.0000    0    14.007   -9.280464    0.622536    3.759641
  12 H     1.0000    0     1.008   -8.283586   -0.274452    2.400072
  13 O     8.0000    0    15.999  -14.863313    0.456784   -4.069432
  14 C     6.0000    0    12.011   -8.437858    0.354213    6.384281
  15 H     1.0000    0     1.008   -8.815208   -1.552304    7.093313
  16 H     1.0000    0     1.008   -6.411739    0.733303    6.497532
  17 H     1.0000    0     1.008   -9.469516    1.710834    7.540261
  18 C     6.0000    0    12.011  -18.960872    0.786815   -2.054666
  19 H     1.0000    0     1.008  -19.532400   -1.174454   -2.374368
  20 H     1.0000    0     1.008  -19.746559    1.431679   -0.258118
  21 H     1.0000    0     1.008  -19.733644    1.914968   -3.601801
  22 H     1.0000    0     1.008  -11.390127    0.012672   -0.727673
  23 H     1.0000    0     1.008   -8.871440    3.818402   -0.903063
  24 H     1.0000    0     1.008  -11.432140    3.858341   -3.045194
  25 H     1.0000    0     1.008  -11.165772    6.789697    2.005946
  26 H     1.0000    0     1.008  -13.833484    6.704840    0.017832
  27 H     1.0000    0     1.008   -8.567997    8.707115   -1.495677
  28 H     1.0000    0     1.008  -11.205758    8.552106   -3.549450
  29 H     1.0000    0     1.008  -10.956216   11.584095    1.419850
  30 H     1.0000    0     1.008  -13.643075   11.424300   -0.609848
  31 H     1.0000    0     1.008  -11.407532   13.883945   -3.680280
  32 H     1.0000    0     1.008   -8.784406   13.988845   -1.779987

--------------------------------
INTERNAL COORDINATES (ANGSTROEM)
--------------------------------
 N      0   0   0     0.000000000000     0.00000000     0.00000000
 C      1   0   0     1.435020992782     0.00000000     0.00000000
 C      2   1   0     1.544901828502   106.70636179     0.00000000
 O      3   2   1     1.231374206562   119.79452575   330.29724551
 C      2   1   3     1.584353555437   113.95137978   238.04725505
 C      5   2   1     1.531499735028   114.47491726    61.21549083
 C      6   5   2     1.543667854261   109.42898059   185.55329863
 C      7   6   5     1.581520197888   110.03072917   177.69388668
 N      8   7   6     1.430187593892   111.82905384   180.87929649
 H      1   2   3     1.016753402353   115.64831294    18.22789773
 C      1   2   3     1.387718846063   122.66728817   196.76612493
 N      3   2   1     1.356568887430   115.52470696   152.17672657
 H     12   3   2     1.010545684122   118.17964289   351.03886123
 O     11   1   2     1.228358116732   119.85113501   357.75573884
 C     12   3   2     1.465612480106   122.74485636   182.81457123
 H     15  12   3     1.094760912729   111.01283469    96.80502189
 H     15  12   3     1.092426996034   109.43824816   217.45587019
 H     15  12   3     1.089774698243   108.40405582   337.27782954
 C     11   1   2     1.516381057125   116.56465497   177.31097822
 H     19  11   1     1.094185700001   108.14845127   245.19259166
 H     19  11   1     1.092304202084   113.44915601     6.24179812
 H     19  11   1     1.092662238146   108.83914209   128.81800708
 H      2   1   3     1.096664613061   108.20891566   121.76522807
 H      5   2   1     1.095292641547   107.52609907   184.58756287
 H      5   2   1     1.095383839040   104.99050635   298.87141705
 H      6   5   2     1.095033917077   111.18204210    64.31836308
 H      6   5   2     1.095837351479   109.89246669   306.04250261
 H      7   6   5     1.095016571888   110.96209480   297.62735503
 H      7   6   5     1.095030581145   110.76545200    57.47910220
 H      8   7   6     1.094138980331   108.59306309    60.28882952
 H      8   7   6     1.093437500417   108.84956105   301.42346911
 H      9   8   7     1.012992361450   120.09231012    79.53260392
 H      9   8   7     1.013054745291   120.05377245   283.54320629

---------------------------
INTERNAL COORDINATES (A.U.)
---------------------------
 N      0   0   0     0.000000000000     0.00000000     0.00000000
 C      1   0   0     2.711796672785     0.00000000     0.00000000
 C      2   1   0     2.919441359662   106.70636179     0.00000000
 O      3   2   1     2.326960018776   119.79452575   330.29724551
 C      2   1   3     2.993994319080   113.95137978   238.04725505
 C      5   2   1     2.894115073375   114.47491726    61.21549083
 C      6   5   2     2.917109486291   109.42898059   185.55329863
 C      7   6   5     2.988640049273   110.03072917   177.69388668
 N      8   7   6     2.702662872587   111.82905384   180.87929649
 H      1   2   3     1.921385476180   115.64831294    18.22789773
 C      1   2   3     2.622408569941   122.66728817   196.76612493
 N      3   2   1     2.563543679040   115.52470696   152.17672657
 H     12   3   2     1.909654588807   118.17964289   351.03886123
 O     11   1   2     2.321260435003   119.85113501   357.75573884
 C     12   3   2     2.769606205857   122.74485636   182.81457123
 H     15  12   3     2.068798307179   111.01283469    96.80502189
 H     15  12   3     2.064387843806   109.43824816   217.45587019
 H     15  12   3     2.059375727356   108.40405582   337.27782954
 C     11   1   2     2.865544912632   116.56465497   177.31097822
 H     19  11   1     2.067711312654   108.14845127   245.19259166
 H     19  11   1     2.064155796871   113.44915601     6.24179812
 H     19  11   1     2.064832386974   108.83914209   128.81800708
 H      2   1   3     2.072395779448   108.20891566   121.76522807
 H      5   2   1     2.069803129024   107.52609907   184.58756287
 H      5   2   1     2.069975467310   104.99050635   298.87141705
 H      6   5   2     2.069314210631   111.18204210    64.31836308
 H      6   5   2     2.070832481616   109.89246669   306.04250261
 H      7   6   5     2.069281432974   110.96209480   297.62735503
 H      7   6   5     2.069307906633   110.76545200    57.47910220
 H      8   7   6     2.067623025274   108.59306309    60.28882952
 H      8   7   6     2.066297420348   108.84956105   301.42346911
 H      9   8   7     1.914278138894   120.09231012    79.53260392
 H      9   8   7     1.914396027269   120.05377245   283.54320629

---------------------
BASIS SET INFORMATION
---------------------
There are 4 groups of distinct atoms

 Group   1 Type N   : 10s5p1d contracted to 6s2p1d pattern {511111/41/1}
 Group   2 Type C   : 10s5p1d contracted to 6s2p1d pattern {511111/41/1}
 Group   3 Type O   : 10s5p1d contracted to 6s2p1d pattern {511111/41/1}
 Group   4 Type H   : 6s1p contracted to 4s1p pattern {3111/1}

Atom   0N    basis set group =>   1
Atom   1C    basis set group =>   2
Atom   2C    basis set group =>   2
Atom   3O    basis set group =>   3
Atom   4C    basis set group =>   2
Atom   5C    basis set group =>   2
Atom   6C    basis set group =>   2
Atom   7C    basis set group =>   2
Atom   8N    basis set group =>   1
Atom   9H    basis set group =>   4
Atom  10C    basis set group =>   2
Atom  11N    basis set group =>   1
Atom  12H    basis set group =>   4
Atom  13O    basis set group =>   3
Atom  14C    basis set group =>   2
Atom  15H    basis set group =>   4
Atom  16H    basis set group =>   4
Atom  17H    basis set group =>   4
Atom  18C    basis set group =>   2
Atom  19H    basis set group =>   4
Atom  20H    basis set group =>   4
Atom  21H    basis set group =>   4
Atom  22H    basis set group =>   4
Atom  23H    basis set group =>   4
Atom  24H    basis set group =>   4
Atom  25H    basis set group =>   4
Atom  26H    basis set group =>   4
Atom  27H    basis set group =>   4
Atom  28H    basis set group =>   4
Atom  29H    basis set group =>   4
Atom  30H    basis set group =>   4
Atom  31H    basis set group =>   4
Atom  32H    basis set group =>   4
---------------------------------
AUXILIARY/J BASIS SET INFORMATION
---------------------------------
There are 4 groups of distinct atoms

 Group   1 Type N   : 17s13p12d2f contracted to 17s13p12d2f pattern {11111111111111111/1111111111111/111111111111/11}
 Group   2 Type C   : 17s13p12d2f contracted to 17s13p12d2f pattern {11111111111111111/1111111111111/111111111111/11}
 Group   3 Type O   : 17s13p12d2f contracted to 17s13p12d2f pattern {11111111111111111/1111111111111/111111111111/11}
 Group   4 Type H   : 15s6p1d contracted to 15s6p1d pattern {111111111111111/111111/1}

Atom   0N    basis set group =>   1
Atom   1C    basis set group =>   2
Atom   2C    basis set group =>   2
Atom   3O    basis set group =>   3
Atom   4C    basis set group =>   2
Atom   5C    basis set group =>   2
Atom   6C    basis set group =>   2
Atom   7C    basis set group =>   2
Atom   8N    basis set group =>   1
Atom   9H    basis set group =>   4
Atom  10C    basis set group =>   2
Atom  11N    basis set group =>   1
Atom  12H    basis set group =>   4
Atom  13O    basis set group =>   3
Atom  14C    basis set group =>   2
Atom  15H    basis set group =>   4
Atom  16H    basis set group =>   4
Atom  17H    basis set group =>   4
Atom  18C    basis set group =>   2
Atom  19H    basis set group =>   4
Atom  20H    basis set group =>   4
Atom  21H    basis set group =>   4
Atom  22H    basis set group =>   4
Atom  23H    basis set group =>   4
Atom  24H    basis set group =>   4
Atom  25H    basis set group =>   4
Atom  26H    basis set group =>   4
Atom  27H    basis set group =>   4
Atom  28H    basis set group =>   4
Atom  29H    basis set group =>   4
Atom  30H    basis set group =>   4
Atom  31H    basis set group =>   4
Atom  32H    basis set group =>   4
---------------------------------
AUXILIARY/C BASIS SET INFORMATION
---------------------------------
There are 4 groups of distinct atoms

 Group   1 Type N   : 17s13p12d2f contracted to 17s13p12d2f pattern {11111111111111111/1111111111111/111111111111/11}
 Group   2 Type C   : 17s13p12d2f contracted to 17s13p12d2f pattern {11111111111111111/1111111111111/111111111111/11}
 Group   3 Type O   : 17s13p12d2f contracted to 17s13p12d2f pattern {11111111111111111/1111111111111/111111111111/11}
 Group   4 Type H   : 15s6p1d contracted to 15s6p1d pattern {111111111111111/111111/1}

Atom   0N    basis set group =>   1
Atom   1C    basis set group =>   2
Atom   2C    basis set group =>   2
Atom   3O    basis set group =>   3
Atom   4C    basis set group =>   2
Atom   5C    basis set group =>   2
Atom   6C    basis set group =>   2
Atom   7C    basis set group =>   2
Atom   8N    basis set group =>   1
Atom   9H    basis set group =>   4
Atom  10C    basis set group =>   2
Atom  11N    basis set group =>   1
Atom  12H    basis set group =>   4
Atom  13O    basis set group =>   3
Atom  14C    basis set group =>   2
Atom  15H    basis set group =>   4
Atom  16H    basis set group =>   4
Atom  17H    basis set group =>   4
Atom  18C    basis set group =>   2
Atom  19H    basis set group =>   4
Atom  20H    basis set group =>   4
Atom  21H    basis set group =>   4
Atom  22H    basis set group =>   4
Atom  23H    basis set group =>   4
Atom  24H    basis set group =>   4
Atom  25H    basis set group =>   4
Atom  26H    basis set group =>   4
Atom  27H    basis set group =>   4
Atom  28H    basis set group =>   4
Atom  29H    basis set group =>   4
Atom  30H    basis set group =>   4
Atom  31H    basis set group =>   4
Atom  32H    basis set group =>   4
----------------------------------
AUXILIARY/JK BASIS SET INFORMATION
----------------------------------
There are 4 groups of distinct atoms

 Group   1 Type N   : 17s13p12d2f contracted to 17s13p12d2f pattern {11111111111111111/1111111111111/111111111111/11}
 Group   2 Type C   : 17s13p12d2f contracted to 17s13p12d2f pattern {11111111111111111/1111111111111/111111111111/11}
 Group   3 Type O   : 17s13p12d2f contracted to 17s13p12d2f pattern {11111111111111111/1111111111111/111111111111/11}
 Group   4 Type H   : 15s6p1d contracted to 15s6p1d pattern {111111111111111/111111/1}

Atom   0N    basis set group =>   1
Atom   1C    basis set group =>   2
Atom   2C    basis set group =>   2
Atom   3O    basis set group =>   3
Atom   4C    basis set group =>   2
Atom   5C    basis set group =>   2
Atom   6C    basis set group =>   2
Atom   7C    basis set group =>   2
Atom   8N    basis set group =>   1
Atom   9H    basis set group =>   4
Atom  10C    basis set group =>   2
Atom  11N    basis set group =>   1
Atom  12H    basis set group =>   4
Atom  13O    basis set group =>   3
Atom  14C    basis set group =>   2
Atom  15H    basis set group =>   4
Atom  16H    basis set group =>   4
Atom  17H    basis set group =>   4
Atom  18C    basis set group =>   2
Atom  19H    basis set group =>   4
Atom  20H    basis set group =>   4
Atom  21H    basis set group =>   4
Atom  22H    basis set group =>   4
Atom  23H    basis set group =>   4
Atom  24H    basis set group =>   4
Atom  25H    basis set group =>   4
Atom  26H    basis set group =>   4
Atom  27H    basis set group =>   4
Atom  28H    basis set group =>   4
Atom  29H    basis set group =>   4
Atom  30H    basis set group =>   4
Atom  31H    basis set group =>   4
Atom  32H    basis set group =>   4


           ************************************************************
           *        Program running with 16 parallel MPI-processes    *
           *              working on a common directory               *
           ************************************************************
------------------------------------------------------------------------------
                           ORCA GTO INTEGRAL CALCULATION
                           -- RI-GTO INTEGRALS CHOSEN --
------------------------------------------------------------------------------
------------------------------------------------------------------------------
                   ___                                                        
                  /   \      - P O W E R E D   B Y -                         
                 /     \                                                     
                 |  |  |   _    _      __       _____    __    __             
                 |  |  |  | |  | |    /  \     |  _  \  |  |  /  |          
                  \  \/   | |  | |   /    \    | | | |  |  | /  /          
                 / \  \   | |__| |  /  /\  \   | |_| |  |  |/  /          
                |  |  |   |  __  | /  /__\  \  |    /   |      \           
                |  |  |   | |  | | |   __   |  |    \   |  |\   \          
                \     /   | |  | | |  |  |  |  | |\  \  |  | \   \       
                 \___/    |_|  |_| |__|  |__|  |_| \__\ |__|  \__/        
                                                                              
                      - O R C A' S   B I G   F R I E N D -                    
                                      &                                       
                       - I N T E G R A L  F E E D E R -                       
                                                                              
 v1 FN, 2020, v2 2021                                                         
------------------------------------------------------------------------------


Reading SHARK input file epr_info.SHARKINP.tmp ... ok
----------------------
SHARK INTEGRAL PACKAGE
----------------------

Number of atoms                             ...     33
Number of basis functions                   ...    371
Number of shells                            ...    221
Maximum angular momentum                    ...      2
Integral batch strategy                     ... SHARK/LIBINT Hybrid
RI-J (if used) integral strategy            ... SPLIT-RIJ (Revised 2003 algorithm where possible)
Printlevel                                  ...      1
Contraction scheme used                     ... SEGMENTED contraction
Coulomb Range Separation                    ... NOT USED
Exchange Range Separation                   ... NOT USED
Finite Nucleus Model                        ... NOT USED
Auxiliary Coulomb fitting basis             ... AVAILABLE
   # of basis functions in Aux-J            ...   2542
   # of shells in Aux-J                     ...   1034
   Maximum angular momentum in Aux-J        ...      3
Auxiliary J/K fitting basis                 ... AVAILABLE
   # of basis functions in Aux-JK           ...   2542
   # of shells in Aux-JK                    ...   1034
   Maximum angular momentum in Aux-JK       ...      3
Auxiliary Correlation fitting basis         ... AVAILABLE
   # of basis functions in Aux-C            ...   2542
   # of shells in Aux-C                     ...   1034
   Maximum angular momentum in Aux-C        ...      3
Auxiliary 'external' fitting basis          ... NOT available
Integral threshold                          ...     1.000000e-10
Primitive cut-off                           ...     1.000000e-11
Primitive pair pre-selection threshold      ...     1.000000e-11

Calculating pre-screening integrals         ... done (  0.0 sec) Dimension = 221
Organizing shell pair data                  ... done (  0.0 sec)
Shell pair information
Total number of shell pairs                 ...     24531
Shell pairs after pre-screening             ...     15570
Total number of primitive shell pairs       ...     64184
Primitive shell pairs kept                  ...     29503
          la=0 lb=0:   7362 shell pairs
          la=1 lb=0:   5311 shell pairs
          la=1 lb=1:    910 shell pairs
          la=2 lb=0:   1404 shell pairs
          la=2 lb=1:    503 shell pairs
          la=2 lb=2:     80 shell pairs

Calculating one electron integrals          ... done (  0.0 sec)
Calculating RI/J V-Matrix + Cholesky decomp.... done (  0.3 sec)
Calculating RI/JK V-Matrix + Cholesky decomp... done (  0.3 sec)
Calculating RI/C V-Matrix + Cholesky decomp.... done (  0.3 sec)
Calculating Nuclear repulsion               ... done (  0.0 sec) ENN=    931.386780886691 Eh

SHARK setup successfully completed in   1.2 seconds

Maximum memory used throughout the entire GTOINT-calculation: 28.8 MB


           ************************************************************
           *        Program running with 16 parallel MPI-processes    *
           *              working on a common directory               *
           ************************************************************
-------------------------------------------------------------------------------
                                 ORCA SCF
-------------------------------------------------------------------------------

------------
SCF SETTINGS
------------
Hamiltonian:
 Density Functional     Method          .... DFT(GTOs)
 Exchange Functional    Exchange        .... B88
   X-Alpha parameter    XAlpha          ....  0.666667
   Becke's b parameter  XBeta           ....  0.004200
 Correlation Functional Correlation     .... LYP
 LDA part of GGA corr.  LDAOpt          .... VWN-5
 Gradients option       PostSCFGGA      .... off
 Hybrid DFT is turned on
   Fraction HF Exchange ScalHFX         ....  0.200000
   Scaling of DF-GGA-X  ScalDFX         ....  0.720000
   Scaling of DF-GGA-C  ScalDFC         ....  0.810000
   Scaling of DF-LDA-C  ScalLDAC        ....  1.000000
   Perturbative correction              ....  0.000000
   Density functional embedding theory  .... OFF
   NL short-range parameter             ....  4.800000
 RI-approximation to the Coulomb term is turned on
   Number of AuxJ basis functions       .... 2542
   RIJ-COSX (HFX calculated with COS-X)).... on


General Settings:
 Integral files         IntName         .... epr_info
 Hartree-Fock type      HFTyp           .... UHF
 Total Charge           Charge          ....    1
 Multiplicity           Mult            ....    2
 Number of Electrons    NEL             ....  109
 Basis Dimension        Dim             ....  371
 Nuclear Repulsion      ENuc            ....    931.3867808867 Eh

Convergence Acceleration:
 DIIS                   CNVDIIS         .... on
   Start iteration      DIISMaxIt       ....    12
   Startup error        DIISStart       ....  0.200000
   # of expansion vecs  DIISMaxEq       ....     5
   Bias factor          DIISBfac        ....   1.050
   Max. coefficient     DIISMaxC        ....  10.000
 Trust-Rad. Augm. Hess. CNVTRAH         .... auto
   Auto Start mean grad. ratio tolernc. ....  1.125000
   Auto Start start iteration           ....    20
   Auto Start num. interpolation iter.  ....    10
   Max. Number of Micro iterations      ....    16
   Max. Number of Macro iterations      .... Maxiter - #DIIS iter
   Number of Davidson start vectors     ....     2
   Converg. threshold I  (grad. norm)   ....   5.000e-05
   Converg. threshold II (energy diff.) ....   1.000e-06
   Grad. Scal. Fac. for Micro threshold ....   0.100
   Minimum threshold for Micro iter.    ....   0.010
   NR start threshold (gradient norm)   ....   0.001
   Initial trust radius                 ....   0.400
   Minimum AH scaling param. (alpha)    ....   1.000
   Maximum AH scaling param. (alpha)    .... 1000.000
   Orbital update algorithm             .... Taylor
   White noise on init. David. guess    .... on
   Maximum white noise                  ....   0.010
   Quad. conv. algorithm                .... NR
 SOSCF                  CNVSOSCF        .... off
 Level Shifting         CNVShift        .... on
   Level shift para.    LevelShift      ....    0.2500
   Turn off err/grad.   ShiftErr        ....    0.0010
 Zerner damping         CNVZerner       .... off
 Static damping         CNVDamp         .... on
   Fraction old density DampFac         ....    0.7000
   Max. Damping (<1)    DampMax         ....    0.9800
   Min. Damping (>=0)   DampMin         ....    0.0000
   Turn off err/grad.   DampErr         ....    0.1000
 Fernandez-Rico         CNVRico         .... off

SCF Procedure:
 Maximum # iterations   MaxIter         ....   125
 SCF integral mode      SCFMode         .... Direct
   Integral package                     .... SHARK and LIBINT hybrid scheme
 Reset frequency        DirectResetFreq ....    20
 Integral Threshold     Thresh          ....  1.000e-10 Eh
 Primitive CutOff       TCut            ....  1.000e-11 Eh

Convergence Tolerance:
 Convergence Check Mode ConvCheckMode   .... Total+1el-Energy
 Convergence forced     ConvForced      .... 0
 Energy Change          TolE            ....  1.000e-06 Eh
 1-El. energy change                    ....  1.000e-03 Eh
 DIIS Error             TolErr          ....  1.000e-06


Diagonalization of the overlap matrix:
Smallest eigenvalue                        ... 1.091e-03
Time for diagonalization                   ...    0.015 sec
Threshold for overlap eigenvalues          ... 1.000e-08
Number of eigenvalues below threshold      ... 0
Time for construction of square roots      ...    0.011 sec
Total time needed                          ...    0.027 sec

Time for model grid setup =    0.120 sec

------------------------------
INITIAL GUESS: MODEL POTENTIAL
------------------------------
Loading Hartree-Fock densities                     ... done
Calculating cut-offs                               ... done
Initializing the effective Hamiltonian             ... done
Setting up the integral package (SHARK)            ... done
Starting the Coulomb interaction                   ... done (   0.0 sec)
Reading the grid                                   ... done
Mapping shells                                     ... done
Starting the XC term evaluation                    ... done (   0.0 sec)
  promolecular density results
     # of electrons  =    109.993432758
     EX              =    -88.041480139
     EC              =     -3.685211535
     EX+EC           =    -91.726691674
Transforming the Hamiltonian                       ... done (   0.0 sec)
Diagonalizing the Hamiltonian                      ... done (   0.0 sec)
Back transforming the eigenvectors                 ... done (   0.0 sec)
Now organizing SCF variables                       ... done
                      ------------------
                      INITIAL GUESS DONE (   0.3 sec)
                      ------------------
-------------------
DFT GRID GENERATION
-------------------

General Integration Accuracy     IntAcc      ... 4.388
Radial Grid Type                 RadialGrid  ... OptM3 with GC (2021)
Angular Grid (max. ang.)         AngularGrid ... 4 (Lebedev-302)
Angular grid pruning method      GridPruning ... 4 (adaptive)
Weight generation scheme         WeightScheme... Becke
Basis function cutoff            BFCut       ... 1.0000e-10
Integration weight cutoff        WCut        ... 1.0000e-14
Angular grids for H and He will be reduced by one unit
Partially contracted basis set               ... off
Rotationally invariant grid construction     ... off

Total number of grid points                  ...   144754
Total number of batches                      ...     2279
Average number of points per batch           ...       63
Average number of grid points per atom       ...     4386
Time for grid setup =    0.617 sec

--------------------
COSX GRID GENERATION
--------------------

GRIDX 1
-------
General Integration Accuracy     IntAcc      ... 3.816
Radial Grid Type                 RadialGrid  ... OptM3 with GC (2021)
Angular Grid (max. ang.)         AngularGrid ... 1 (Lebedev-50)
Angular grid pruning method      GridPruning ... 4 (adaptive)
Weight generation scheme         WeightScheme... Becke
Basis function cutoff            BFCut       ... 1.0000e-10
Integration weight cutoff        WCut        ... 1.0000e-14
Angular grids for H and He will be reduced by one unit
Partially contracted basis set               ... on
Rotationally invariant grid construction     ... off

Total number of grid points                  ...    18472
Total number of batches                      ...      310
Average number of points per batch           ...       59
Average number of grid points per atom       ...      560
UseSFitting                                  ... on

GRIDX 2
-------
General Integration Accuracy     IntAcc      ... 4.020
Radial Grid Type                 RadialGrid  ... OptM3 with GC (2021)
Angular Grid (max. ang.)         AngularGrid ... 2 (Lebedev-110)
Angular grid pruning method      GridPruning ... 4 (adaptive)
Weight generation scheme         WeightScheme... Becke
Basis function cutoff            BFCut       ... 1.0000e-10
Integration weight cutoff        WCut        ... 1.0000e-14
Angular grids for H and He will be reduced by one unit
Partially contracted basis set               ... on
Rotationally invariant grid construction     ... off

Total number of grid points                  ...    38985
Total number of batches                      ...      627
Average number of points per batch           ...       62
Average number of grid points per atom       ...     1181
UseSFitting                                  ... on

GRIDX 3
-------
General Integration Accuracy     IntAcc      ... 4.338
Radial Grid Type                 RadialGrid  ... OptM3 with GC (2021)
Angular Grid (max. ang.)         AngularGrid ... 3 (Lebedev-194)
Angular grid pruning method      GridPruning ... 4 (adaptive)
Weight generation scheme         WeightScheme... Becke
Basis function cutoff            BFCut       ... 1.0000e-10
Integration weight cutoff        WCut        ... 1.0000e-14
Angular grids for H and He will be reduced by one unit
Partially contracted basis set               ... on
Rotationally invariant grid construction     ... off

Total number of grid points                  ...    85021
Total number of batches                      ...     1344
Average number of points per batch           ...       63
Average number of grid points per atom       ...     2576
UseSFitting                                  ... on

Time for X-Grid setup             =    0.670 sec

--------------
SCF ITERATIONS
--------------
ITER       Energy         Delta-E        Max-DP      RMS-DP      [F,P]     Damp
               ***  Starting incremental Fock matrix formation  ***
  0   -668.1627033003   0.000000000000 0.06838184  0.00085433  0.1263643 0.7000
  1   -668.3688578459  -0.206154545569 0.04336836  0.00057759  0.0480009 0.7000
                               ***Turning on DIIS***
  2   -668.4427057249  -0.073847879006 0.05917967  0.00088271  0.0187164 0.0000
  3   -668.5645253441  -0.121819619200 0.03103051  0.00044479  0.0262028 0.0000
  4   -668.5911258837  -0.026600539577 0.01070556  0.00015462  0.0102607 0.0000
  5   -668.5931034769  -0.001977593257 0.00485327  0.00005778  0.0063600 0.0000
  6   -668.5935004829  -0.000397006004 0.00187497  0.00002114  0.0013023 0.0000
  7   -668.5935343710  -0.000033888119 0.00320876  0.00003462  0.0007242 0.0000
               *** Restarting incremental Fock matrix formation ***
                                   *** Resetting DIIS ***
  8   -668.5935648834  -0.000030512358 0.00271563  0.00002213  0.0010436 0.0000
  9   -668.5935641394   0.000000743966 0.00077723  0.00000709  0.0014372 0.0000
 10   -668.5935857094  -0.000021569952 0.00110153  0.00001343  0.0006760 0.0000
 11   -668.5935985353  -0.000012825886 0.00069712  0.00000770  0.0001920 0.0000
 12   -668.5936000125  -0.000001477218 0.00053388  0.00000541  0.0002221 0.0000
 13   -668.5936019131  -0.000001900561 0.00048127  0.00000400  0.0001704 0.0000
 14   -668.5936018598   0.000000053253 0.00056649  0.00000577  0.0001685 0.0000
 15   -668.5936030901  -0.000001230258 0.00035716  0.00000324  0.0000640 0.0000
                 **** Energy Check signals convergence ****

               *****************************************************
               *                     SUCCESS                       *
               *           SCF CONVERGED AFTER  16 CYCLES          *
               *****************************************************

Old exchange energy                            =    -17.853582059 Eh
New exchange energy                            =    -17.853597008 Eh
Exchange energy change after final integration =     -0.000014948 Eh
Total energy after final integration           =   -668.593618377 Eh
Final COS-X integration done in                =     2.198 sec

----------------
TOTAL SCF ENERGY
----------------

Total Energy       :         -668.59361838 Eh          -18193.35729 eV

Components:
Nuclear Repulsion  :          931.38678089 Eh           25344.32279 eV
Electronic Energy  :        -1599.98039926 Eh          -43537.68008 eV
One Electron Energy:        -2741.69385765 Eh          -74605.28273 eV
Two Electron Energy:         1141.71345839 Eh           31067.60265 eV
Max COSX asymmetry :            0.00000130 Eh               0.00004 eV

Virial components:
Potential Energy   :        -1332.57512947 Eh          -36261.21276 eV
Kinetic Energy     :          663.98151109 Eh           18067.85547 eV
Virial Ratio       :            2.00694614


DFT components:
N(Alpha)           :       55.000025624708 electrons
N(Beta)            :       54.000026293450 electrons
N(Total)           :      109.000051918158 electrons
E(X)               :      -70.981808363235 Eh       
E(C)               :       -4.315023776354 Eh       
E(XC)              :      -75.296832139589 Eh       
DFET-embed. en.    :        0.000000000000 Eh       

---------------
SCF CONVERGENCE
---------------

  Last Energy change         ...   -3.3853e-07  Tolerance :   1.0000e-06
  Last MAX-Density change    ...    0.0000e+00  Tolerance :   1.0000e-05
  Last RMS-Density change    ...    0.0000e+00  Tolerance :   1.0000e-06
  Last DIIS Error            ...    3.9353e-05  Tolerance :   1.0000e-06

             **** THE GBW FILE WAS UPDATED (epr_info.gbw) ****
             **** DENSITY epr_info.scfp WAS UPDATED ****
             **** ENERGY FILE WAS UPDATED (epr_info.en.tmp) ****
----------------------
UHF SPIN CONTAMINATION
----------------------

Warning: in a DFT calculation there is little theoretical justification to 
         calculate <S**2> as in Hartree-Fock theory. We will do it anyways
         but you should keep in mind that the values have only limited relevance

Expectation value of <S**2>     :     0.755738
Ideal value S*(S+1) for S=0.5   :     0.750000
Deviation                       :     0.005738

             **** THE GBW FILE WAS UPDATED (epr_info.gbw) ****
             **** DENSITY epr_info.scfp WAS UPDATED ****
----------------
ORBITAL ENERGIES
----------------
                 SPIN UP ORBITALS
  NO   OCC          E(Eh)            E(eV) 
   0   1.0000     -19.249678      -523.8104 
   1   1.0000     -19.249073      -523.7939 
   2   1.0000     -14.540756      -395.6741 
   3   1.0000     -14.510005      -394.8373 
   4   1.0000     -14.498113      -394.5137 
   5   1.0000     -10.429257      -283.7945 
   6   1.0000     -10.425998      -283.7058 
   7   1.0000     -10.383711      -282.5551 
   8   1.0000     -10.381118      -282.4846 
   9   1.0000     -10.344319      -281.4832 
  10   1.0000     -10.333813      -281.1974 
  11   1.0000     -10.328355      -281.0488 
  12   1.0000     -10.328133      -281.0428 
  13   1.0000     -10.300832      -280.2999 
  14   1.0000      -1.176331       -32.0096 
  15   1.0000      -1.167030       -31.7565 
  16   1.0000      -1.087911       -29.6036 
  17   1.0000      -1.065802       -29.0019 
  18   1.0000      -1.054534       -28.6953 
  19   1.0000      -0.946008       -25.7422 
  20   1.0000      -0.903643       -24.5894 
  21   1.0000      -0.857844       -23.3431 
  22   1.0000      -0.842784       -22.9333 
  23   1.0000      -0.809927       -22.0392 
  24   1.0000      -0.771756       -21.0005 
  25   1.0000      -0.741486       -20.1769 
  26   1.0000      -0.719876       -19.5888 
  27   1.0000      -0.707302       -19.2467 
  28   1.0000      -0.706351       -19.2208 
  29   1.0000      -0.666115       -18.1259 
  30   1.0000      -0.634810       -17.2740 
  31   1.0000      -0.615935       -16.7604 
  32   1.0000      -0.611633       -16.6434 
  33   1.0000      -0.601959       -16.3801 
  34   1.0000      -0.594953       -16.1895 
  35   1.0000      -0.580552       -15.7976 
  36   1.0000      -0.571116       -15.5408 
  37   1.0000      -0.565053       -15.3759 
  38   1.0000      -0.556250       -15.1363 
  39   1.0000      -0.548493       -14.9253 
  40   1.0000      -0.533691       -14.5225 
  41   1.0000      -0.527365       -14.3503 
  42   1.0000      -0.513166       -13.9640 
  43   1.0000      -0.510305       -13.8861 
  44   1.0000      -0.508694       -13.8423 
  45   1.0000      -0.504689       -13.7333 
  46   1.0000      -0.494170       -13.4470 
  47   1.0000      -0.489449       -13.3186 
  48   1.0000      -0.478647       -13.0246 
  49   1.0000      -0.472727       -12.8636 
  50   1.0000      -0.434028       -11.8105 
  51   1.0000      -0.409057       -11.1310 
  52   1.0000      -0.397579       -10.8187 
  53   1.0000      -0.386722       -10.5232 
  54   1.0000      -0.385661       -10.4944 
  55   0.0000      -0.121693        -3.3114 
  56   0.0000      -0.115289        -3.1372 
  57   0.0000      -0.105609        -2.8738 
  58   0.0000      -0.099118        -2.6971 
  59   0.0000      -0.090066        -2.4508 
  60   0.0000      -0.077173        -2.1000 
  61   0.0000      -0.071338        -1.9412 
  62   0.0000      -0.062877        -1.7110 
  63   0.0000      -0.037428        -1.0185 
  64   0.0000      -0.034638        -0.9425 
  65   0.0000      -0.027949        -0.7605 
  66   0.0000      -0.022220        -0.6046 
  67   0.0000      -0.010718        -0.2917 
  68   0.0000      -0.002727        -0.0742 
  69   0.0000      -0.000665        -0.0181 
  70   0.0000       0.018501         0.5034 
  71   0.0000       0.027664         0.7528 
  72   0.0000       0.036758         1.0002 
  73   0.0000       0.044092         1.1998 
  74   0.0000       0.050346         1.3700 
  75   0.0000       0.052049         1.4163 
  76   0.0000       0.057660         1.5690 
  77   0.0000       0.068600         1.8667 
  78   0.0000       0.073133         1.9900 
  79   0.0000       0.078321         2.1312 
  80   0.0000       0.080353         2.1865 
  81   0.0000       0.085308         2.3214 
  82   0.0000       0.092478         2.5164 
  83   0.0000       0.093543         2.5454 
  84   0.0000       0.095994         2.6121 
  85   0.0000       0.104214         2.8358 
  86   0.0000       0.111426         3.0320 
  87   0.0000       0.121360         3.3024 
  88   0.0000       0.128100         3.4858 
  89   0.0000       0.130462         3.5500 
  90   0.0000       0.135623         3.6905 
  91   0.0000       0.141301         3.8450 
  92   0.0000       0.146583         3.9887 
  93   0.0000       0.153635         4.1806 
  94   0.0000       0.158204         4.3049 
  95   0.0000       0.161388         4.3916 
  96   0.0000       0.163761         4.4562 
  97   0.0000       0.171550         4.6681 
  98   0.0000       0.177287         4.8242 
  99   0.0000       0.185938         5.0596 
 100   0.0000       0.189761         5.1637 
 101   0.0000       0.191520         5.2115 
 102   0.0000       0.203388         5.5345 
 103   0.0000       0.213714         5.8154 
 104   0.0000       0.228542         6.2189 
 105   0.0000       0.233742         6.3604 
 106   0.0000       0.240731         6.5506 
 107   0.0000       0.249279         6.7832 
 108   0.0000       0.255376         6.9491 
 109   0.0000       0.268909         7.3174 
 110   0.0000       0.273117         7.4319 
 111   0.0000       0.281970         7.6728 
 112   0.0000       0.288745         7.8572 
 113   0.0000       0.301863         8.2141 
 114   0.0000       0.314285         8.5521 
 115   0.0000       0.320255         8.7146 
 116   0.0000       0.335347         9.1252 
 117   0.0000       0.340151         9.2560 
 118   0.0000       0.350383         9.5344 
 119   0.0000       0.357433         9.7262 
 120   0.0000       0.366013         9.9597 
 121   0.0000       0.377096        10.2613 
 122   0.0000       0.392362        10.6767 
 123   0.0000       0.399883        10.8814 
 124   0.0000       0.420991        11.4557 
 125   0.0000       0.434019        11.8102 
 126   0.0000       0.439562        11.9611 
 127   0.0000       0.446946        12.1620 
 128   0.0000       0.458091        12.4653 
 129   0.0000       0.465761        12.6740 
 130   0.0000       0.482666        13.1340 
 131   0.0000       0.515375        14.0241 
 132   0.0000       0.529353        14.4044 
 133   0.0000       0.553487        15.0612 
 134   0.0000       0.556995        15.1566 
 135   0.0000       0.576952        15.6997 
 136   0.0000       0.589398        16.0383 
 137   0.0000       0.595806        16.2127 
 138   0.0000       0.615017        16.7355 
 139   0.0000       0.634936        17.2775 
 140   0.0000       0.663299        18.0493 
 141   0.0000       0.671388        18.2694 
 142   0.0000       0.681085        18.5333 
 143   0.0000       0.695975        18.9384 
 144   0.0000       0.705867        19.2076 
 145   0.0000       0.719387        19.5755 
 146   0.0000       0.732371        19.9288 
 147   0.0000       0.735504        20.0141 
 148   0.0000       0.737827        20.0773 
 149   0.0000       0.741986        20.1905 
 150   0.0000       0.746771        20.3207 
 151   0.0000       0.760329        20.6896 
 152   0.0000       0.761628        20.7249 
 153   0.0000       0.768061        20.9000 
 154   0.0000       0.772630        21.0243 
 155   0.0000       0.785051        21.3623 
 156   0.0000       0.788856        21.4659 
 157   0.0000       0.806267        21.9396 
 158   0.0000       0.812073        22.0976 
 159   0.0000       0.814733        22.1700 
 160   0.0000       0.823305        22.4033 
 161   0.0000       0.828052        22.5324 
 162   0.0000       0.837621        22.7928 
 163   0.0000       0.840720        22.8772 
 164   0.0000       0.854238        23.2450 
 165   0.0000       0.861385        23.4395 
 166   0.0000       0.871561        23.7164 
 167   0.0000       0.887587        24.1525 
 168   0.0000       0.894834        24.3497 
 169   0.0000       0.904354        24.6087 
 170   0.0000       0.917086        24.9552 
 171   0.0000       0.929501        25.2930 
 172   0.0000       0.931087        25.3362 
 173   0.0000       0.947664        25.7873 
 174   0.0000       0.953746        25.9528 
 175   0.0000       0.991723        26.9862 
 176   0.0000       1.010620        27.5004 
 177   0.0000       1.022093        27.8126 
 178   0.0000       1.031458        28.0674 
 179   0.0000       1.034117        28.1397 
 180   0.0000       1.039188        28.2777 
 181   0.0000       1.047491        28.5037 
 182   0.0000       1.049174        28.5495 
 183   0.0000       1.055514        28.7220 
 184   0.0000       1.082975        29.4692 
 185   0.0000       1.090919        29.6854 
 186   0.0000       1.111666        30.2500 
 187   0.0000       1.133091        30.8330 
 188   0.0000       1.154020        31.4025 
 189   0.0000       1.179641        32.0997 
 190   0.0000       1.211497        32.9665 
 191   0.0000       1.217985        33.1431 
 192   0.0000       1.234476        33.5918 
 193   0.0000       1.249473        33.9999 
 194   0.0000       1.272926        34.6381 
 195   0.0000       1.292913        35.1820 
 196   0.0000       1.299906        35.3722 
 197   0.0000       1.305203        35.5164 
 198   0.0000       1.311706        35.6933 
 199   0.0000       1.326020        36.0828 
 200   0.0000       1.342551        36.5327 
 201   0.0000       1.366104        37.1736 
 202   0.0000       1.375543        37.4304 
 203   0.0000       1.380200        37.5572 
 204   0.0000       1.387187        37.7473 
 205   0.0000       1.403622        38.1945 
 206   0.0000       1.407257        38.2934 
 207   0.0000       1.418019        38.5863 
 208   0.0000       1.426331        38.8124 
 209   0.0000       1.429514        38.8990 
 210   0.0000       1.446181        39.3526 
 211   0.0000       1.457544        39.6618 
 212   0.0000       1.462481        39.7961 
 213   0.0000       1.474004        40.1097 
 214   0.0000       1.489301        40.5259 
 215   0.0000       1.499798        40.8116 
 216   0.0000       1.506305        40.9886 
 217   0.0000       1.512044        41.1448 
 218   0.0000       1.521214        41.3943 
 219   0.0000       1.530701        41.6525 
 220   0.0000       1.547174        42.1007 
 221   0.0000       1.555107        42.3166 
 222   0.0000       1.568909        42.6922 
 223   0.0000       1.572566        42.7917 
 224   0.0000       1.576648        42.9028 
 225   0.0000       1.583279        43.0832 
 226   0.0000       1.595846        43.4252 
 227   0.0000       1.607322        43.7375 
 228   0.0000       1.615378        43.9567 
 229   0.0000       1.631879        44.4057 
 230   0.0000       1.643235        44.7147 
 231   0.0000       1.652199        44.9586 
 232   0.0000       1.665563        45.3223 
 233   0.0000       1.678804        45.6826 
 234   0.0000       1.688494        45.9463 
 235   0.0000       1.707809        46.4718 
 236   0.0000       1.710199        46.5369 
 237   0.0000       1.724140        46.9162 
 238   0.0000       1.744627        47.4737 
 239   0.0000       1.767011        48.0828 
 240   0.0000       1.772140        48.2224 
 241   0.0000       1.776667        48.3456 
 242   0.0000       1.816409        49.4270 
 243   0.0000       1.848704        50.3058 
 244   0.0000       1.863008        50.6950 
 245   0.0000       1.881829        51.2072 
 246   0.0000       1.902504        51.7698 
 247   0.0000       1.921731        52.2930 
 248   0.0000       1.927401        52.4472 
 249   0.0000       1.941818        52.8396 
 250   0.0000       1.948945        53.0335 
 251   0.0000       1.964204        53.4487 
 252   0.0000       1.977598        53.8132 
 253   0.0000       2.029222        55.2179 
 254   0.0000       2.045005        55.6474 
 255   0.0000       2.053111        55.8680 
 256   0.0000       2.067499        56.2595 
 257   0.0000       2.091234        56.9054 
 258   0.0000       2.098324        57.0983 
 259   0.0000       2.121720        57.7349 
 260   0.0000       2.123044        57.7710 
 261   0.0000       2.151269        58.5390 
 262   0.0000       2.154983        58.6401 
 263   0.0000       2.165743        58.9328 
 264   0.0000       2.178574        59.2820 
 265   0.0000       2.181169        59.3526 
 266   0.0000       2.200776        59.8862 
 267   0.0000       2.220450        60.4215 
 268   0.0000       2.228845        60.6500 
 269   0.0000       2.231563        60.7239 
 270   0.0000       2.270928        61.7951 
 271   0.0000       2.279192        62.0200 
 272   0.0000       2.281568        62.0846 
 273   0.0000       2.302945        62.6663 
 274   0.0000       2.317695        63.0677 
 275   0.0000       2.327909        63.3456 
 276   0.0000       2.344362        63.7933 
 277   0.0000       2.362120        64.2765 
 278   0.0000       2.367281        64.4170 
 279   0.0000       2.385630        64.9163 
 280   0.0000       2.392659        65.1076 
 281   0.0000       2.402823        65.3841 
 282   0.0000       2.418418        65.8085 
 283   0.0000       2.439329        66.3775 
 284   0.0000       2.455123        66.8073 
 285   0.0000       2.485829        67.6428 
 286   0.0000       2.489380        67.7395 
 287   0.0000       2.510915        68.3255 
 288   0.0000       2.519039        68.5465 
 289   0.0000       2.572609        70.0042 
 290   0.0000       2.578634        70.1682 
 291   0.0000       2.611165        71.0534 
 292   0.0000       2.621874        71.3448 
 293   0.0000       2.627532        71.4988 
 294   0.0000       2.652622        72.1815 
 295   0.0000       2.690973        73.2251 
 296   0.0000       2.756408        75.0057 
 297   0.0000       2.853813        77.6562 
 298   0.0000       2.894249        78.7565 
 299   0.0000       2.960554        80.5608 
 300   0.0000       2.976933        81.0065 
 301   0.0000       3.229564        87.8809 
 302   0.0000       3.287006        89.4440 
 303   0.0000       3.296554        89.7038 
 304   0.0000       3.313860        90.1747 
 305   0.0000       4.733379       128.8018 
 306   0.0000       4.858211       132.1987 
 307   0.0000       4.874491       132.6417 
 308   0.0000       4.879989       132.7913 
 309   0.0000       4.883989       132.9001 
 310   0.0000       4.904581       133.4604 
 311   0.0000       4.907270       133.5336 
 312   0.0000       4.911298       133.6432 
 313   0.0000       4.930050       134.1535 
 314   0.0000       4.946859       134.6109 
 315   0.0000       4.977096       135.4337 
 316   0.0000       4.987640       135.7206 
 317   0.0000       5.022554       136.6706 
 318   0.0000       5.055856       137.5768 
 319   0.0000       5.113581       139.1476 
 320   0.0000       5.129354       139.5768 
 321   0.0000       5.141613       139.9104 
 322   0.0000       5.169546       140.6705 
 323   0.0000       5.178305       140.9088 
 324   0.0000       5.203880       141.6048 
 325   0.0000       5.244431       142.7082 
 326   0.0000       5.257038       143.0513 
 327   0.0000       5.341167       145.3406 
 328   0.0000       5.466008       148.7376 
 329   0.0000       5.506370       149.8360 
 330   0.0000       5.570497       151.5809 
 331   0.0000       5.610753       152.6763 
 332   0.0000       5.710815       155.3992 
 333   0.0000       7.044023       191.6776 
 334   0.0000       7.152433       194.6276 
 335   0.0000       7.190870       195.6735 
 336   0.0000       8.936395       243.1717 
 337   0.0000       8.987169       244.5533 
 338   0.0000      29.453179       801.4618 
 339   0.0000      29.498830       802.7040 
 340   0.0000      29.636199       806.4420 
 341   0.0000      29.765481       809.9599 
 342   0.0000      29.821685       811.4893 
 343   0.0000      29.913731       813.9940 
 344   0.0000      29.964710       815.3812 
 345   0.0000      29.999305       816.3226 
 346   0.0000      30.132181       819.9383 
 347   0.0000      36.340437       988.8736 
 348   0.0000      36.480083       992.6735 
 349   0.0000      36.498434       993.1729 
 350   0.0000      36.498839       993.1839 
 351   0.0000      36.511364       993.5247 
 352   0.0000      36.522440       993.8261 
 353   0.0000      36.525063       993.8975 
 354   0.0000      36.537633       994.2395 
 355   0.0000      36.541059       994.3328 
 356   0.0000      36.572195       995.1800 
 357   0.0000      36.588384       995.6205 
 358   0.0000      36.604972       996.0719 
 359   0.0000      36.665825       997.7278 
 360   0.0000      36.669359       997.8240 
 361   0.0000      36.725242       999.3447 
 362   0.0000      36.749732      1000.0111 
 363   0.0000      36.784904      1000.9681 
 364   0.0000      36.807051      1001.5708 
 365   0.0000      36.817591      1001.8576 
 366   0.0000      40.971820      1114.8999 
 367   0.0000      41.084204      1117.9580 
 368   0.0000      41.134201      1119.3185 
 369   0.0000      53.472618      1455.0639 
 370   0.0000      53.519809      1456.3480 

                 SPIN DOWN ORBITALS
  NO   OCC          E(Eh)            E(eV) 
   0   1.0000     -19.248659      -523.7826 
   1   1.0000     -19.246326      -523.7192 
   2   1.0000     -14.531246      -395.4153 
   3   1.0000     -14.505899      -394.7256 
   4   1.0000     -14.497075      -394.4855 
   5   1.0000     -10.429358      -283.7973 
   6   1.0000     -10.426819      -283.7282 
   7   1.0000     -10.383422      -282.5473 
   8   1.0000     -10.380580      -282.4699 
   9   1.0000     -10.342632      -281.4373 
  10   1.0000     -10.332868      -281.1716 
  11   1.0000     -10.328344      -281.0485 
  12   1.0000     -10.327745      -281.0322 
  13   1.0000     -10.300802      -280.2991 
  14   1.0000      -1.173214       -31.9248 
  15   1.0000      -1.162968       -31.6460 
  16   1.0000      -1.068552       -29.0768 
  17   1.0000      -1.057576       -28.7781 
  18   1.0000      -1.052208       -28.6320 
  19   1.0000      -0.941535       -25.6205 
  20   1.0000      -0.898635       -24.4531 
  21   1.0000      -0.854438       -23.2504 
  22   1.0000      -0.840990       -22.8845 
  23   1.0000      -0.806745       -21.9527 
  24   1.0000      -0.768165       -20.9028 
  25   1.0000      -0.738639       -20.0994 
  26   1.0000      -0.718575       -19.5534 
  27   1.0000      -0.704737       -19.1769 
  28   1.0000      -0.700449       -19.0602 
  29   1.0000      -0.664475       -18.0813 
  30   1.0000      -0.629567       -17.1314 
  31   1.0000      -0.613400       -16.6915 
  32   1.0000      -0.607902       -16.5418 
  33   1.0000      -0.595254       -16.1977 
  34   1.0000      -0.592966       -16.1354 
  35   1.0000      -0.578135       -15.7319 
  36   1.0000      -0.568325       -15.4649 
  37   1.0000      -0.555050       -15.1037 
  38   1.0000      -0.552288       -15.0285 
  39   1.0000      -0.544676       -14.8214 
  40   1.0000      -0.531573       -14.4648 
  41   1.0000      -0.520832       -14.1726 
  42   1.0000      -0.512299       -13.9404 
  43   1.0000      -0.509702       -13.8697 
  44   1.0000      -0.504459       -13.7270 
  45   1.0000      -0.503649       -13.7050 
  46   1.0000      -0.488073       -13.2811 
  47   1.0000      -0.486543       -13.2395 
  48   1.0000      -0.476289       -12.9605 
  49   1.0000      -0.463378       -12.6092 
  50   1.0000      -0.397795       -10.8246 
  51   1.0000      -0.387979       -10.5574 
  52   1.0000      -0.381837       -10.3903 
  53   1.0000      -0.367407        -9.9977 
  54   0.0000      -0.338494        -9.2109 
  55   0.0000      -0.119082        -3.2404 
  56   0.0000      -0.113056        -3.0764 
  57   0.0000      -0.101505        -2.7621 
  58   0.0000      -0.097589        -2.6555 
  59   0.0000      -0.089189        -2.4270 
  60   0.0000      -0.076152        -2.0722 
  61   0.0000      -0.070363        -1.9147 
  62   0.0000      -0.062462        -1.6997 
  63   0.0000      -0.036924        -1.0048 
  64   0.0000      -0.033591        -0.9141 
  65   0.0000      -0.026426        -0.7191 
  66   0.0000      -0.021445        -0.5835 
  67   0.0000      -0.008967        -0.2440 
  68   0.0000      -0.001307        -0.0356 
  69   0.0000       0.000584         0.0159 
  70   0.0000       0.020215         0.5501 
  71   0.0000       0.029883         0.8132 
  72   0.0000       0.038053         1.0355 
  73   0.0000       0.045800         1.2463 
  74   0.0000       0.051389         1.3984 
  75   0.0000       0.052686         1.4337 
  76   0.0000       0.060085         1.6350 
  77   0.0000       0.069826         1.9001 
  78   0.0000       0.074727         2.0334 
  79   0.0000       0.079354         2.1593 
  80   0.0000       0.081592         2.2202 
  81   0.0000       0.085860         2.3364 
  82   0.0000       0.093887         2.5548 
  83   0.0000       0.094368         2.5679 
  84   0.0000       0.098150         2.6708 
  85   0.0000       0.107917         2.9366 
  86   0.0000       0.113422         3.0864 
  87   0.0000       0.122798         3.3415 
  88   0.0000       0.129658         3.5282 
  89   0.0000       0.131731         3.5846 
  90   0.0000       0.136247         3.7075 
  91   0.0000       0.142159         3.8683 
  92   0.0000       0.147947         4.0258 
  93   0.0000       0.154641         4.2080 
  94   0.0000       0.159511         4.3405 
  95   0.0000       0.162738         4.4283 
  96   0.0000       0.165255         4.4968 
  97   0.0000       0.172043         4.6815 
  98   0.0000       0.178831         4.8662 
  99   0.0000       0.186872         5.0851 
 100   0.0000       0.190744         5.1904 
 101   0.0000       0.192138         5.2284 
 102   0.0000       0.203765         5.5447 
 103   0.0000       0.214155         5.8275 
 104   0.0000       0.229140         6.2352 
 105   0.0000       0.234528         6.3818 
 106   0.0000       0.241370         6.5680 
 107   0.0000       0.250418         6.8142 
 108   0.0000       0.256527         6.9804 
 109   0.0000       0.269709         7.3392 
 110   0.0000       0.274612         7.4726 
 111   0.0000       0.283814         7.7230 
 112   0.0000       0.290588         7.9073 
 113   0.0000       0.302853         8.2411 
 114   0.0000       0.315183         8.5766 
 115   0.0000       0.321678         8.7533 
 116   0.0000       0.339040         9.2257 
 117   0.0000       0.341437         9.2910 
 118   0.0000       0.355230         9.6663 
 119   0.0000       0.359166         9.7734 
 120   0.0000       0.367957        10.0126 
 121   0.0000       0.378979        10.3125 
 122   0.0000       0.396295        10.7837 
 123   0.0000       0.402811        10.9610 
 124   0.0000       0.424209        11.5433 
 125   0.0000       0.436220        11.8701 
 126   0.0000       0.442978        12.0540 
 127   0.0000       0.453694        12.3456 
 128   0.0000       0.459251        12.4969 
 129   0.0000       0.470226        12.7955 
 130   0.0000       0.484815        13.1925 
 131   0.0000       0.518330        14.1045 
 132   0.0000       0.533716        14.5231 
 133   0.0000       0.556626        15.1466 
 134   0.0000       0.561067        15.2674 
 135   0.0000       0.579146        15.7594 
 136   0.0000       0.591454        16.0943 
 137   0.0000       0.598094        16.2750 
 138   0.0000       0.616109        16.7652 
 139   0.0000       0.636104        17.3093 
 140   0.0000       0.666041        18.1239 
 141   0.0000       0.674031        18.3413 
 142   0.0000       0.682322        18.5669 
 143   0.0000       0.698472        19.0064 
 144   0.0000       0.706772        19.2323 
 145   0.0000       0.720819        19.6145 
 146   0.0000       0.733232        19.9523 
 147   0.0000       0.736392        20.0382 
 148   0.0000       0.740562        20.1517 
 149   0.0000       0.743101        20.2208 
 150   0.0000       0.747816        20.3491 
 151   0.0000       0.761143        20.7117 
 152   0.0000       0.762298        20.7432 
 153   0.0000       0.769757        20.9462 
 154   0.0000       0.773582        21.0502 
 155   0.0000       0.787159        21.4197 
 156   0.0000       0.790058        21.4986 
 157   0.0000       0.806995        21.9594 
 158   0.0000       0.812987        22.1225 
 159   0.0000       0.816307        22.2128 
 160   0.0000       0.824325        22.4310 
 161   0.0000       0.829602        22.5746 
 162   0.0000       0.838572        22.8187 
 163   0.0000       0.842807        22.9340 
 164   0.0000       0.855461        23.2783 
 165   0.0000       0.862847        23.4793 
 166   0.0000       0.872837        23.7511 
 167   0.0000       0.889350        24.2004 
 168   0.0000       0.896699        24.4004 
 169   0.0000       0.905811        24.6484 
 170   0.0000       0.918711        24.9994 
 171   0.0000       0.930832        25.3292 
 172   0.0000       0.932623        25.3780 
 173   0.0000       0.951459        25.8905 
 174   0.0000       0.956667        26.0322 
 175   0.0000       0.993561        27.0362 
 176   0.0000       1.014795        27.6140 
 177   0.0000       1.024231        27.8707 
 178   0.0000       1.034805        28.1585 
 179   0.0000       1.038410        28.2566 
 180   0.0000       1.041740        28.3472 
 181   0.0000       1.049182        28.5497 
 182   0.0000       1.050554        28.5870 
 183   0.0000       1.057337        28.7716 
 184   0.0000       1.084657        29.5150 
 185   0.0000       1.092437        29.7267 
 186   0.0000       1.112711        30.2784 
 187   0.0000       1.134368        30.8677 
 188   0.0000       1.155899        31.4536 
 189   0.0000       1.182154        32.1681 
 190   0.0000       1.213222        33.0135 
 191   0.0000       1.219621        33.1876 
 192   0.0000       1.235074        33.6081 
 193   0.0000       1.250293        34.0222 
 194   0.0000       1.273796        34.6618 
 195   0.0000       1.294073        35.2135 
 196   0.0000       1.301965        35.4283 
 197   0.0000       1.307296        35.5733 
 198   0.0000       1.312119        35.7046 
 199   0.0000       1.327905        36.1341 
 200   0.0000       1.343891        36.5691 
 201   0.0000       1.367944        37.2237 
 202   0.0000       1.378426        37.5089 
 203   0.0000       1.380812        37.5738 
 204   0.0000       1.387829        37.7647 
 205   0.0000       1.404566        38.2202 
 206   0.0000       1.407872        38.3102 
 207   0.0000       1.418937        38.6112 
 208   0.0000       1.427516        38.8447 
 209   0.0000       1.430643        38.9298 
 210   0.0000       1.447060        39.3765 
 211   0.0000       1.458795        39.6958 
 212   0.0000       1.464574        39.8531 
 213   0.0000       1.475421        40.1482 
 214   0.0000       1.491308        40.5806 
 215   0.0000       1.501222        40.8503 
 216   0.0000       1.507808        41.0295 
 217   0.0000       1.512981        41.1703 
 218   0.0000       1.522716        41.4352 
 219   0.0000       1.532548        41.7027 
 220   0.0000       1.549229        42.1567 
 221   0.0000       1.555879        42.3376 
 222   0.0000       1.570725        42.7416 
 223   0.0000       1.574027        42.8314 
 224   0.0000       1.578027        42.9403 
 225   0.0000       1.585010        43.1303 
 226   0.0000       1.597352        43.4661 
 227   0.0000       1.608234        43.7623 
 228   0.0000       1.616887        43.9977 
 229   0.0000       1.633253        44.4431 
 230   0.0000       1.645851        44.7859 
 231   0.0000       1.653317        44.9891 
 232   0.0000       1.666615        45.3509 
 233   0.0000       1.680725        45.7349 
 234   0.0000       1.690541        46.0020 
 235   0.0000       1.709000        46.5043 
 236   0.0000       1.711749        46.5791 
 237   0.0000       1.726613        46.9835 
 238   0.0000       1.747103        47.5411 
 239   0.0000       1.769099        48.1396 
 240   0.0000       1.774079        48.2752 
 241   0.0000       1.778745        48.4021 
 242   0.0000       1.822238        49.5856 
 243   0.0000       1.851046        50.3695 
 244   0.0000       1.864205        50.7276 
 245   0.0000       1.890657        51.4474 
 246   0.0000       1.904110        51.8135 
 247   0.0000       1.923620        52.3444 
 248   0.0000       1.928447        52.4757 
 249   0.0000       1.944032        52.8998 
 250   0.0000       1.950449        53.0744 
 251   0.0000       1.966789        53.5190 
 252   0.0000       1.981932        53.9311 
 253   0.0000       2.031387        55.2768 
 254   0.0000       2.047414        55.7130 
 255   0.0000       2.055911        55.9442 
 256   0.0000       2.070533        56.3421 
 257   0.0000       2.098416        57.1008 
 258   0.0000       2.108341        57.3709 
 259   0.0000       2.123109        57.7727 
 260   0.0000       2.130702        57.9793 
 261   0.0000       2.152863        58.5824 
 262   0.0000       2.157121        58.6982 
 263   0.0000       2.167904        58.9917 
 264   0.0000       2.182087        59.3776 
 265   0.0000       2.183607        59.4190 
 266   0.0000       2.203841        59.9695 
 267   0.0000       2.223062        60.4926 
 268   0.0000       2.230404        60.6924 
 269   0.0000       2.239768        60.9472 
 270   0.0000       2.272924        61.8494 
 271   0.0000       2.280662        62.0600 
 272   0.0000       2.283089        62.1260 
 273   0.0000       2.305334        62.7313 
 274   0.0000       2.319486        63.1164 
 275   0.0000       2.330441        63.4145 
 276   0.0000       2.345604        63.8271 
 277   0.0000       2.363691        64.3193 
 278   0.0000       2.369834        64.4865 
 279   0.0000       2.386977        64.9529 
 280   0.0000       2.395290        65.1791 
 281   0.0000       2.404064        65.4179 
 282   0.0000       2.422092        65.9085 
 283   0.0000       2.442528        66.4646 
 284   0.0000       2.456490        66.8445 
 285   0.0000       2.489968        67.7555 
 286   0.0000       2.493283        67.8457 
 287   0.0000       2.514116        68.4126 
 288   0.0000       2.521625        68.6169 
 289   0.0000       2.577748        70.1441 
 290   0.0000       2.582427        70.2714 
 291   0.0000       2.618958        71.2655 
 292   0.0000       2.629297        71.5468 
 293   0.0000       2.632354        71.6300 
 294   0.0000       2.655484        72.2594 
 295   0.0000       2.692644        73.2706 
 296   0.0000       2.761799        75.1524 
 297   0.0000       2.857228        77.7491 
 298   0.0000       2.895748        78.7973 
 299   0.0000       2.965951        80.7076 
 300   0.0000       2.979336        81.0719 
 301   0.0000       3.231414        87.9312 
 302   0.0000       3.289707        89.5175 
 303   0.0000       3.298890        89.7674 
 304   0.0000       3.315234        90.2121 
 305   0.0000       4.731849       128.7602 
 306   0.0000       4.858802       132.2147 
 307   0.0000       4.875569       132.6710 
 308   0.0000       4.879678       132.7828 
 309   0.0000       4.884669       132.9186 
 310   0.0000       4.904486       133.4578 
 311   0.0000       4.907638       133.5436 
 312   0.0000       4.911425       133.6467 
 313   0.0000       4.930768       134.1730 
 314   0.0000       4.947045       134.6159 
 315   0.0000       4.976554       135.4189 
 316   0.0000       4.986888       135.7001 
 317   0.0000       5.023396       136.6935 
 318   0.0000       5.057451       137.6202 
 319   0.0000       5.115291       139.1941 
 320   0.0000       5.129195       139.5725 
 321   0.0000       5.142079       139.9231 
 322   0.0000       5.170529       140.6972 
 323   0.0000       5.178709       140.9198 
 324   0.0000       5.204685       141.6267 
 325   0.0000       5.244502       142.7102 
 326   0.0000       5.257346       143.0596 
 327   0.0000       5.342629       145.3803 
 328   0.0000       5.467105       148.7675 
 329   0.0000       5.507440       149.8651 
 330   0.0000       5.571947       151.6204 
 331   0.0000       5.610668       152.6740 
 332   0.0000       5.712728       155.4512 
 333   0.0000       7.065765       192.2693 
 334   0.0000       7.161403       194.8717 
 335   0.0000       7.193395       195.7422 
 336   0.0000       8.942553       243.3393 
 337   0.0000       8.989500       244.6167 
 338   0.0000      29.453813       801.4790 
 339   0.0000      29.498002       802.6814 
 340   0.0000      29.636909       806.4613 
 341   0.0000      29.765945       809.9725 
 342   0.0000      29.822022       811.4985 
 343   0.0000      29.914671       814.0196 
 344   0.0000      29.964887       815.3860 
 345   0.0000      30.000137       816.3452 
 346   0.0000      30.133363       819.9705 
 347   0.0000      36.335304       988.7339 
 348   0.0000      36.482697       992.7447 
 349   0.0000      36.498197       993.1664 
 350   0.0000      36.499433       993.2001 
 351   0.0000      36.511933       993.5402 
 352   0.0000      36.522301       993.8223 
 353   0.0000      36.524797       993.8903 
 354   0.0000      36.532747       994.1066 
 355   0.0000      36.541399       994.3420 
 356   0.0000      36.572116       995.1779 
 357   0.0000      36.586763       995.5764 
 358   0.0000      36.604383       996.0559 
 359   0.0000      36.669081       997.8164 
 360   0.0000      36.672227       997.9020 
 361   0.0000      36.726598       999.3815 
 362   0.0000      36.749890      1000.0154 
 363   0.0000      36.785888      1000.9949 
 364   0.0000      36.807050      1001.5707 
 365   0.0000      36.817621      1001.8584 
 366   0.0000      40.984056      1115.2329 
 367   0.0000      41.089351      1118.0981 
 368   0.0000      41.135587      1119.3562 
 369   0.0000      53.475827      1455.1512 
 370   0.0000      53.521062      1456.3821 

                    ********************************
                    * MULLIKEN POPULATION ANALYSIS *
                    ********************************

--------------------------------------------
MULLIKEN ATOMIC CHARGES AND SPIN POPULATIONS
--------------------------------------------
   0 N :   -0.060921    0.207041
   1 C :   -0.136906    0.018791
   2 C :    0.090494   -0.007349
   3 O :   -0.289339    0.039313
   4 C :   -0.266846    0.052791
   5 C :   -0.225231    0.017695
   6 C :   -0.293510    0.085309
   7 C :   -0.269075    0.004829
   8 N :   -0.290844    0.477193
   9 H :    0.275167   -0.007862
  10 C :    0.167724   -0.046028
  11 N :   -0.092561    0.045962
  12 H :    0.247978   -0.001678
  13 O :   -0.239008    0.108513
  14 C :   -0.435538    0.000989
  15 H :    0.191935    0.002924
  16 H :    0.172829    0.002371
  17 H :    0.202391    0.000233
  18 C :   -0.522845    0.002208
  19 H :    0.208958   -0.001126
  20 H :    0.158743   -0.000157
  21 H :    0.200178   -0.001011
  22 H :    0.184587    0.013669
  23 H :    0.163890   -0.001283
  24 H :    0.196108    0.002606
  25 H :    0.172811    0.000712
  26 H :    0.157415   -0.000774
  27 H :    0.175582   -0.001119
  28 H :    0.175262   -0.002779
  29 H :    0.200129    0.010312
[...]

 Raw HFC matrix (all values in MHz): 
 -----------------------------------
                26.8761              -0.0684               1.5774
                -0.0688              28.3225              -2.9586
                 1.5691              -2.9549              35.2226

 A(FC)          30.1357              30.1357              30.1357
 A(SD)          -3.7559              -2.6450               6.4009
 A(ORB+DIA)     -0.0022               0.0036               0.0126    A(PC) =   0.0047
 A(ORB)         -0.0024               0.0032               0.0117    A(PC) =   0.0042
 A(DIA)          0.0002               0.0004               0.0008    A(PC) =   0.0005
             ----------           ----------           ----------
 A(Tot)         26.3776              27.4944              36.5492    A(iso)=   30.1404
 Orientation: 
  X           0.8625223           -0.4820506           -0.1538915
  Y          -0.4132847           -0.8465676            0.3354386
  Z          -0.2919779           -0.2257223           -0.9294075

Notes:  (1) The A matrix conforms to the "SAI" spin Hamiltonian convention.
        (2) Tensor is right-handed.

 -----------------------------------------------------------
 Nucleus  30H : A:ISTP=    1 I=  0.5 P=533.5514 MHz/au**3
                Q:ISTP=    2 I=  1.0 Q=  0.0029 barn     
 -----------------------------------------------------------
 Solving for nuclear perturbation:
Forming RHS of the CP-SCF equations         ... 
Calc. nucleus orbit integrals (SHARK)       ... done

------------------------------------------------------------------------------
                           ORCA CP-SCF CALCULATION
------------------------------------------------------------------------------

Input orbitals are from        ... epr_info.gbw
Input Perturbation             ... epr_info.pin.tmp
Wavefunction output            ... epr_info.pout.tmp
Perturbation mode              ... Imaginary perturbation
Solver                         ... POPLE
Max. number of iterations      ... 64
Convergence tolerance          ... 1.000e-03
Integral handling              ... Direct
DFT GridXC                     ... 1
COSX GridX                     ... 1
COSX IntAccX                   ... 3.067
COSX Algorithm                 ... Auto
Number of perturbations        ... 3
Number of operators            ... 2
Orbital ranges used for CP-SCF:
 Operator 0:  Orbitals   0... 54  to  55...370
 Operator 1:  Orbitals   0... 53  to  54...370
Variables per perturbation     ... 34498
DFT calculation                         ... on
XC functional terms                     ... off
Hybrid DFT                              ... on
   Exchange mixing (SCF)                ...  0.200
   Exchange mixing (CP-SCF)             ...  0.200
   GGA exch. scaling(SCF)               ...  0.720
   GGA exch. scaling (CP-SCF)           ...  0.720
   GGA corr. scaling (SCF)              ...  0.810
   GGA corr. scaling (CP-SCF)           ...  0.810

CP-SCF GRID
-----------

General Integration Accuracy     IntAcc      ... 3.467
Radial Grid Type                 RadialGrid  ... OptM3 with GC (2021)
Angular Grid (max. ang.)         AngularGrid ... 1 (Lebedev-50)
Angular grid pruning method      GridPruning ... 4 (adaptive)
Weight generation scheme         WeightScheme... Becke
Basis function cutoff            BFCut       ... 1.0000e-10
Integration weight cutoff        WCut        ... 1.0000e-14
Angular grids for H and He will be reduced by one unit
Partially contracted basis set               ... off
Rotationally invariant grid construction     ... off

Total number of grid points                  ...    20310
Total number of batches                      ...      332
Average number of points per batch           ...       61
Average number of grid points per atom       ...      615

CP-SCF GRIDX
------------

General Integration Accuracy     IntAcc      ... 3.067
Radial Grid Type                 RadialGrid  ... OptM3 with GC (2021)
Angular Grid (max. ang.)         AngularGrid ... 1 (Lebedev-50)
Angular grid pruning method      GridPruning ... 4 (adaptive)
Weight generation scheme         WeightScheme... Becke
Basis function cutoff            BFCut       ... 1.0000e-10
Integration weight cutoff        WCut        ... 1.0000e-14
Angular grids for H and He will be reduced by one unit
Partially contracted basis set               ... on
Rotationally invariant grid construction     ... off

Total number of grid points                  ...     9607
Total number of batches                      ...      171
Average number of points per batch           ...       56
Average number of grid points per atom       ...      291

Memory available               ... 922.2 MB
Memory needed per perturbation ...   8.2 MB
Perturbations treated per batch... 3
Number of batches              ... 1
     CP-SCF ITERATION   0:   6.6701e-02 (   0.5 sec   0/  3 done)
     CP-SCF ITERATION   1:   1.9105e-02 (   0.5 sec   0/  3 done)
     CP-SCF ITERATION   2:   3.0611e-03 (   0.5 sec   1/  3 done)
     CP-SCF ITERATION   3:   7.7196e-04 (   0.4 sec   3/  3 done)
                    *** THE CP-SCF HAS CONVERGED ***

Forming final perturbed densities           ... done
Transforming perturbed density to AO basis  ... done

 Raw HFC matrix (all values in MHz): 
 -----------------------------------
                28.0915               3.2263              -1.1290
                 3.2289              22.3188              -0.7822
                -1.1205              -0.7803              20.1596

 A(FC)          23.5186              23.5186              23.5186
 A(SD)          -3.6121              -2.5813               6.1933
 A(ORB+DIA)     -0.0014               0.0029               0.0126    A(PC) =   0.0047
 A(ORB)         -0.0017               0.0025               0.0118    A(PC) =   0.0042
 A(DIA)          0.0002               0.0004               0.0008    A(PC) =   0.0005
             ----------           ----------           ----------
 A(Tot)         19.9051              20.9403              29.7245    A(iso)=   23.5233
 Orientation: 
  X           0.0207302           -0.4306502           -0.9022808
  Y           0.2829428            0.8681076           -0.4078389
  Z           0.9589127           -0.2468393            0.1398454

Notes:  (1) The A matrix conforms to the "SAI" spin Hamiltonian convention.
        (2) Tensor is right-handed.

 -----------------------------------------------------------
 Nucleus  31H : A:ISTP=    1 I=  0.5 P=533.5514 MHz/au**3
                Q:ISTP=    2 I=  1.0 Q=  0.0029 barn     
 -----------------------------------------------------------
 Solving for nuclear perturbation:
Forming RHS of the CP-SCF equations         ... 
Calc. nucleus orbit integrals (SHARK)       ... done

------------------------------------------------------------------------------
                           ORCA CP-SCF CALCULATION
------------------------------------------------------------------------------

Input orbitals are from        ... epr_info.gbw
Input Perturbation             ... epr_info.pin.tmp
Wavefunction output            ... epr_info.pout.tmp
Perturbation mode              ... Imaginary perturbation
Solver                         ... POPLE
Max. number of iterations      ... 64
Convergence tolerance          ... 1.000e-03
Integral handling              ... Direct
DFT GridXC                     ... 1
COSX GridX                     ... 1
COSX IntAccX                   ... 3.067
COSX Algorithm                 ... Auto
Number of perturbations        ... 3
Number of operators            ... 2
Orbital ranges used for CP-SCF:
 Operator 0:  Orbitals   0... 54  to  55...370
 Operator 1:  Orbitals   0... 53  to  54...370
Variables per perturbation     ... 34498
DFT calculation                         ... on
XC functional terms                     ... off
Hybrid DFT                              ... on
   Exchange mixing (SCF)                ...  0.200
   Exchange mixing (CP-SCF)             ...  0.200
   GGA exch. scaling(SCF)               ...  0.720
   GGA exch. scaling (CP-SCF)           ...  0.720
   GGA corr. scaling (SCF)              ...  0.810
   GGA corr. scaling (CP-SCF)           ...  0.810

CP-SCF GRID
-----------

General Integration Accuracy     IntAcc      ... 3.467
Radial Grid Type                 RadialGrid  ... OptM3 with GC (2021)
Angular Grid (max. ang.)         AngularGrid ... 1 (Lebedev-50)
Angular grid pruning method      GridPruning ... 4 (adaptive)
Weight generation scheme         WeightScheme... Becke
Basis function cutoff            BFCut       ... 1.0000e-10
Integration weight cutoff        WCut        ... 1.0000e-14
Angular grids for H and He will be reduced by one unit
Partially contracted basis set               ... off
Rotationally invariant grid construction     ... off

Total number of grid points                  ...    20310
Total number of batches                      ...      332
Average number of points per batch           ...       61
Average number of grid points per atom       ...      615

CP-SCF GRIDX
------------

General Integration Accuracy     IntAcc      ... 3.067
Radial Grid Type                 RadialGrid  ... OptM3 with GC (2021)
Angular Grid (max. ang.)         AngularGrid ... 1 (Lebedev-50)
Angular grid pruning method      GridPruning ... 4 (adaptive)
Weight generation scheme         WeightScheme... Becke
Basis function cutoff            BFCut       ... 1.0000e-10
Integration weight cutoff        WCut        ... 1.0000e-14
Angular grids for H and He will be reduced by one unit
Partially contracted basis set               ... on
Rotationally invariant grid construction     ... off

Total number of grid points                  ...     9607
Total number of batches                      ...      171
Average number of points per batch           ...       56
Average number of grid points per atom       ...      291

Memory available               ... 921.8 MB
Memory needed per perturbation ...   8.2 MB
Perturbations treated per batch... 3
Number of batches              ... 1
     CP-SCF ITERATION   0:   7.4725e-02 (   0.5 sec   0/  3 done)
     CP-SCF ITERATION   1:   1.9645e-02 (   0.5 sec   0/  3 done)
     CP-SCF ITERATION   2:   3.3342e-03 (   0.5 sec   0/  3 done)
     CP-SCF ITERATION   3:   7.4611e-04 (   0.5 sec   3/  3 done)
                    *** THE CP-SCF HAS CONVERGED ***

Forming final perturbed densities           ... done
Transforming perturbed density to AO basis  ... done

 Raw HFC matrix (all values in MHz): 
 -----------------------------------
               -41.4222             -12.7249              18.2228
               -12.7236             -40.0990              -5.7763
                18.2165              -5.7763              -9.0183

 A(FC)         -30.2003             -30.2003             -30.2003
 A(SD)          32.0469              -6.3986             -25.6483
 A(ORB+DIA)      0.0388              -0.0016               0.0242    A(PC) =   0.0205
 A(ORB)          0.0343               0.0005               0.0240    A(PC) =   0.0196
 A(DIA)          0.0045              -0.0021               0.0002    A(PC) =   0.0009
             ----------           ----------           ----------
 A(Tot)          1.8854             -36.6005             -55.8244    A(iso)=  -30.1798
 Orientation: 
  X           0.4371763           -0.4189216           -0.7958528
  Y          -0.2512931            0.7927546           -0.5553305
  Z           0.8635558            0.4427696            0.2413014

Notes:  (1) The A matrix conforms to the "SAI" spin Hamiltonian convention.
        (2) Tensor is right-handed.

 -----------------------------------------------------------
 Nucleus  32H : A:ISTP=    1 I=  0.5 P=533.5514 MHz/au**3
                Q:ISTP=    2 I=  1.0 Q=  0.0029 barn     
 -----------------------------------------------------------
 Solving for nuclear perturbation:
Forming RHS of the CP-SCF equations         ... 
Calc. nucleus orbit integrals (SHARK)       ... done

------------------------------------------------------------------------------
                           ORCA CP-SCF CALCULATION
------------------------------------------------------------------------------

Input orbitals are from        ... epr_info.gbw
Input Perturbation             ... epr_info.pin.tmp
Wavefunction output            ... epr_info.pout.tmp
Perturbation mode              ... Imaginary perturbation
Solver                         ... POPLE
Max. number of iterations      ... 64
Convergence tolerance          ... 1.000e-03
Integral handling              ... Direct
DFT GridXC                     ... 1
COSX GridX                     ... 1
COSX IntAccX                   ... 3.067
COSX Algorithm                 ... Auto
Number of perturbations        ... 3
Number of operators            ... 2
Orbital ranges used for CP-SCF:
 Operator 0:  Orbitals   0... 54  to  55...370
 Operator 1:  Orbitals   0... 53  to  54...370
Variables per perturbation     ... 34498
DFT calculation                         ... on
XC functional terms                     ... off
Hybrid DFT                              ... on
   Exchange mixing (SCF)                ...  0.200
   Exchange mixing (CP-SCF)             ...  0.200
   GGA exch. scaling(SCF)               ...  0.720
   GGA exch. scaling (CP-SCF)           ...  0.720
   GGA corr. scaling (SCF)              ...  0.810
   GGA corr. scaling (CP-SCF)           ...  0.810

CP-SCF GRID
-----------

General Integration Accuracy     IntAcc      ... 3.467
Radial Grid Type                 RadialGrid  ... OptM3 with GC (2021)
Angular Grid (max. ang.)         AngularGrid ... 1 (Lebedev-50)
Angular grid pruning method      GridPruning ... 4 (adaptive)
Weight generation scheme         WeightScheme... Becke
Basis function cutoff            BFCut       ... 1.0000e-10
Integration weight cutoff        WCut        ... 1.0000e-14
Angular grids for H and He will be reduced by one unit
Partially contracted basis set               ... off
Rotationally invariant grid construction     ... off

Total number of grid points                  ...    20310
Total number of batches                      ...      332
Average number of points per batch           ...       61
Average number of grid points per atom       ...      615

CP-SCF GRIDX
------------

General Integration Accuracy     IntAcc      ... 3.067
Radial Grid Type                 RadialGrid  ... OptM3 with GC (2021)
Angular Grid (max. ang.)         AngularGrid ... 1 (Lebedev-50)
Angular grid pruning method      GridPruning ... 4 (adaptive)
Weight generation scheme         WeightScheme... Becke
Basis function cutoff            BFCut       ... 1.0000e-10
Integration weight cutoff        WCut        ... 1.0000e-14
Angular grids for H and He will be reduced by one unit
Partially contracted basis set               ... on
Rotationally invariant grid construction     ... off

Total number of grid points                  ...     9607
Total number of batches                      ...      171
Average number of points per batch           ...       56
Average number of grid points per atom       ...      291

Memory available               ... 921.4 MB
Memory needed per perturbation ...   8.2 MB
Perturbations treated per batch... 3
Number of batches              ... 1
     CP-SCF ITERATION   0:   7.3082e-02 (   0.5 sec   0/  3 done)
     CP-SCF ITERATION   1:   1.6052e-02 (   0.5 sec   0/  3 done)
     CP-SCF ITERATION   2:   3.6320e-03 (   0.5 sec   0/  3 done)
     CP-SCF ITERATION   3:   7.1093e-04 (   0.5 sec   3/  3 done)
                    *** THE CP-SCF HAS CONVERGED ***

Forming final perturbed densities           ... done
Transforming perturbed density to AO basis  ... done

 Raw HFC matrix (all values in MHz): 
 -----------------------------------
                -2.5828              11.5132               4.0798
                11.5121             -38.4762              10.1242
                 4.0868              10.1253             -50.0473

 A(FC)         -30.3893             -30.3893             -30.3893
 A(SD)          32.0574              -6.3924             -25.6650
 A(ORB+DIA)      0.0389              -0.0020               0.0246    A(PC) =   0.0205
 A(ORB)          0.0344               0.0001               0.0244    A(PC) =   0.0196
 A(DIA)          0.0045              -0.0021               0.0002    A(PC) =   0.0009
             ----------           ----------           ----------
 A(Tot)          1.7070             -36.7837             -56.0296    A(iso)=  -30.3688
 Orientation: 
  X           0.9432347           -0.3287121            0.0475039
  Y           0.3039746            0.7967778           -0.5222496
  Z           0.1338197            0.5070439            0.8514686

Notes:  (1) The A matrix conforms to the "SAI" spin Hamiltonian convention.
        (2) Tensor is right-handed.


--------------------------------------------------------------------------------
----------------------------------------------------------------------------
                           ORCA EULER ANGLE PROGRAM
----------------------------------------------------------------------------

Only g-tensor available        -->  using g-tensor as reference tensor

Reference tensor               ...  g

g-tensor ordering              ...  |g_min> --> |gx>
                                    |g_mid> --> |gy>
                                    |g_max> --> |gz>

A- and EFG-tensor ordering     ...  the axes |Ax>, |Qx>, |Ay>, etc. are assigned
                                    such that the Euler rotation is minimal. You
                                    can find the respective eigenvalues as Ax,
                                    EFGx, Ay, etc. in the tables below.
                                    The relation of |Ax>, |Ay>,  etc. to Amin, Amid, etc.
                                    (as printed in the ORCA EPR/NMR CALCULATION Output)
                                    is obtained in the detailed printout.

Euler rotation around          ...  z - y - z
   First rotation              -->  by alpha around z
   Second rotation             -->  by beta around y'
   Third rotation              -->  by gamma around z''
   Positive / Negative angle   -->  clockwise / counterclockwise rotation

Plot EFG-tensors                    (-)
Plot HFC-tensors                    (-)
Detailed Printout                   (-)

-------------------------------------------------------------------------
          Euler rotation of hyperfine tensor to g-tensor
-------------------------------------------------------------------------

-------------------------------------------------------------------
 Atom  |   Alpha    Beta    Gamma   |   Ax       Ay       Az 
       |          [degrees]         |           [MHz]         
-------------------------------------------------------------------
  8N       12.3     35.8     -6.3      28.75    30.35   888.58
 27H      -91.9     31.5    115.1      -3.87     1.18   -10.30
 28H      -72.3     40.7     61.3      -5.80   -12.05    -0.14
 29H      107.2     41.3    -65.9      27.49    36.55    26.38
 30H     -117.1     28.3     88.1      20.94    29.72    19.91
 31H       48.0     39.0    -10.3     -55.82     1.89   -36.60
 32H      -22.7     37.7     -0.3     -56.03     1.71   -36.78
-------------------------------------------------------------------


Maximum memory used throughout the entire EPRNMR-calculation: 137.8 MB

Timings for individual modules:

Sum of individual times         ...      260.854 sec (=   4.348 min)
GTO integral calculation        ...        3.571 sec (=   0.060 min)   1.4 %
Spin-Orbit-Coupling Matrices    ...        4.833 sec (=   0.081 min)   1.9 %
SCF iterations                  ...       32.672 sec (=   0.545 min)  12.5 %
EPR/NMR calculation             ...      219.779 sec (=   3.663 min)  84.3 %
                             ****ORCA TERMINATED NORMALLY****
TOTAL RUN TIME: 0 days 0 hours 4 minutes 23 seconds 471 msec
