
                                 *****************
                                 * O   R   C   A *
                                 *****************

                                            #,                                       
                                            ###                                      
                                            ####                                     
                                            #####                                    
                                            ######                                   
                                           ########,                                 
                                     ,,################,,,,,                         
                               ,,#################################,,                 
                          ,,##########################################,,             
                       ,#########################################, ''#####,          
                    ,#############################################,,   '####,        
                  ,##################################################,,,,####,       
                ,###########''''           ''''###############################       
              ,#####''   ,,,,##########,,,,          '''####'''          '####       
            ,##' ,,,,###########################,,,                        '##       
           ' ,,###''''                  '''############,,,                           
         ,,##''                                '''############,,,,        ,,,,,,###''
      ,#''                                            '''#######################'''  
     '                                                          ''''####''''         
             ,#######,   #######,   ,#######,      ##                                
            ,#'     '#,  ##    ##  ,#'     '#,    #''#        ######   ,####,        
            ##       ##  ##   ,#'  ##            #'  '#       #        #'  '#        
            ##       ##  #######   ##           ,######,      #####,   #    #        
            '#,     ,#'  ##    ##  '#,     ,#' ,#      #,         ##   #,  ,#        
             '#######'   ##     ##  '#######'  #'      '#     #####' # '####'        



                  #######################################################
                  #                        -***-                        #
                  #          Department of theory and spectroscopy      #
                  #    Directorship and core code : Frank Neese         #
                  #        Max Planck Institute fuer Kohlenforschung    #
                  #                Kaiser Wilhelm Platz 1               #
                  #                 D-45470 Muelheim/Ruhr               #
                  #                      Germany                        #
                  #                                                     #
                  #                  All rights reserved                #
                  #                        -***-                        #
                  #######################################################


                         Program Version 5.0.4 -  RELEASE  -


 With contributions from (in alphabetic order):
   Daniel Aravena         : Magnetic Suceptibility
   Michael Atanasov       : Ab Initio Ligand Field Theory (pilot matlab implementation)
   Alexander A. Auer      : GIAO ZORA, VPT2 properties, NMR spectrum
   Ute Becker             : Parallelization
   Giovanni Bistoni       : ED, misc. LED, open-shell LED, HFLD
   Martin Brehm           : Molecular dynamics
   Dmytro Bykov           : SCF Hessian
   Vijay G. Chilkuri      : MRCI spin determinant printing, contributions to CSF-ICE
   Dipayan Datta          : RHF DLPNO-CCSD density
   Achintya Kumar Dutta   : EOM-CC, STEOM-CC
   Dmitry Ganyushin       : Spin-Orbit,Spin-Spin,Magnetic field MRCI
   Miquel Garcia          : C-PCM and meta-GGA Hessian, CC/C-PCM, Gaussian charge scheme
   Yang Guo               : DLPNO-NEVPT2, F12-NEVPT2, CIM, IAO-localization
   Andreas Hansen         : Spin unrestricted coupled pair/coupled cluster methods
   Benjamin Helmich-Paris : MC-RPA, TRAH-SCF, COSX integrals
   Lee Huntington         : MR-EOM, pCC
   Robert Izsak           : Overlap fitted RIJCOSX, COSX-SCS-MP3, EOM
   Marcus Kettner         : VPT2
   Christian Kollmar      : KDIIS, OOCD, Brueckner-CCSD(T), CCSD density, CASPT2, CASPT2-K
   Simone Kossmann        : Meta GGA functionals, TD-DFT gradient, OOMP2, MP2 Hessian
   Martin Krupicka        : Initial AUTO-CI
   Lucas Lang             : DCDCAS
   Marvin Lechner         : AUTO-CI (C++ implementation), FIC-MRCC
   Dagmar Lenk            : GEPOL surface, SMD
   Dimitrios Liakos       : Extrapolation schemes; Compound Job, initial MDCI parallelization
   Dimitrios Manganas     : Further ROCIS development; embedding schemes
   Dimitrios Pantazis     : SARC Basis sets
   Anastasios Papadopoulos: AUTO-CI, single reference methods and gradients
   Taras Petrenko         : DFT Hessian,TD-DFT gradient, ASA, ECA, R-Raman, ABS, FL, XAS/XES, NRVS
   Peter Pinski           : DLPNO-MP2, DLPNO-MP2 Gradient
   Christoph Reimann      : Effective Core Potentials
   Marius Retegan         : Local ZFS, SOC
   Christoph Riplinger    : Optimizer, TS searches, QM/MM, DLPNO-CCSD(T), (RO)-DLPNO pert. Triples
   Tobias Risthaus        : Range-separated hybrids, TD-DFT gradient, RPA, STAB
   Michael Roemelt        : Original ROCIS implementation
   Masaaki Saitow         : Open-shell DLPNO-CCSD energy and density
   Barbara Sandhoefer     : DKH picture change effects
   Avijit Sen             : IP-ROCIS
   Kantharuban Sivalingam : CASSCF convergence, NEVPT2, FIC-MRCI
   Bernardo de Souza      : ESD, SOC TD-DFT
   Georgi Stoychev        : AutoAux, RI-MP2 NMR, DLPNO-MP2 response
   Willem Van den Heuvel  : Paramagnetic NMR
   Boris Wezisla          : Elementary symmetry handling
   Frank Wennmohs         : Technical directorship


 We gratefully acknowledge several colleagues who have allowed us to
 interface, adapt or use parts of their codes:
   Stefan Grimme, W. Hujo, H. Kruse, P. Pracht,  : VdW corrections, initial TS optimization,
                  C. Bannwarth, S. Ehlert          DFT functionals, gCP, sTDA/sTD-DF
   Ed Valeev, F. Pavosevic, A. Kumar             : LibInt (2-el integral package), F12 methods
   Garnet Chan, S. Sharma, J. Yang, R. Olivares  : DMRG
   Ulf Ekstrom                                   : XCFun DFT Library
   Mihaly Kallay                                 : mrcc  (arbitrary order and MRCC methods)
   Jiri Pittner, Ondrej Demel                    : Mk-CCSD
   Frank Weinhold                                : gennbo (NPA and NBO analysis)
   Christopher J. Cramer and Donald G. Truhlar   : smd solvation model
   Lars Goerigk                                  : TD-DFT with DH, B97 family of functionals
   V. Asgeirsson, H. Jonsson                     : NEB implementation
   FAccTs GmbH                                   : IRC, NEB, NEB-TS, DLPNO-Multilevel, CI-OPT
                                                   MM, QMMM, 2- and 3-layer-ONIOM, Crystal-QMMM,
                                                   LR-CPCM, SF, NACMEs, symmetry and pop. for TD-DFT,
                                                   nearIR, NL-DFT gradient (VV10), updates on ESD,
                                                   ML-optimized integration grids
   S Lehtola, MJT Oliveira, MAL Marques          : LibXC Library
   Liviu Ungur et al                             : ANISO software


 Your calculation uses the libint2 library for the computation of 2-el integrals
 For citations please refer to: http://libint.valeyev.net

 Your ORCA version has been built with support for libXC version: 5.1.0
 For citations please refer to: https://tddft.org/programs/libxc/

 This ORCA versions uses:
   CBLAS   interface :  Fast vector & matrix operations
   LAPACKE interface :  Fast linear algebra routines
   SCALAPACK package :  Parallel linear algebra routines
   Shared memory     :  Shared parallel matrices
   BLAS/LAPACK       :  OpenBLAS 0.3.15  USE64BITINT DYNAMIC_ARCH NO_AFFINITY Zen SINGLE_THREADED
        Core in use  :  Zen
   Copyright (c) 2011-2014, The OpenBLAS Project




***************************************
The coordinates will be read from file: opt.xyz
***************************************


XCFun DFT library Copyright 2009-2010 Ulf Ekstrom and contributors.
See http://admol.org/xcfun for more information.
This is free software; see the source code for copying conditions.
There is ABSOLUTELY NO WARRANTY; not even for MERCHANTABILITY or FITNESS FOR A PARTICULAR PURPOSE.
For details see the documentation.
Scientific users of this library should cite U. Ekstrom, L. Visscher, R. Bast, A. J. Thorvaldsen and K. Ruud;
J.Chem.Theor.Comp. 2010, DOI: 10.1021/ct100117s
XCFun Version 0.99 

================================================================================

----- Orbital basis set information -----
Your calculation utilizes the basis: def2-TZVP
   F. Weigend and R. Ahlrichs, Phys. Chem. Chem. Phys. 7, 3297 (2005).

----- AuxJ basis set information -----
Your calculation utilizes the auxiliary basis: def2/J
   F. Weigend, Phys. Chem. Chem. Phys. 8, 1057 (2006).

================================================================================
                                        WARNINGS
                       Please study these warnings very carefully!
================================================================================


WARNING: your system is open-shell and RHF/RKS was chosen
  ===> : WILL SWITCH to UHF/UKS


WARNING: Geometry Optimization
  ===> : Switching off AutoStart
         For restart on a previous wavefunction, please use MOREAD

WARNING: Minnesota functionals are quite sensitive to the integration grid.
         see SE Wheeler, KN Houk, JCTC 2010, 6, 395,
             N Mardirossian, M Head-Gordon, JCTC 2016, 12, 4303.
         DEFGRID3 seems to be a minimum grid for reliable results with these functionals!
  ===> : Please increase the integration grid!


INFO   : the flag for use of the SHARK integral package has been found!

================================================================================
                                       INPUT FILE
================================================================================
NAME = freq.inp
|  1> ! M062X def2-TZVP OPT FREQ
|  2> %pal nprocs 16 end
|  3> *XYZFile 1 2 opt.xyz
|  4> 
|  5>                          ****END OF INPUT****
================================================================================

                       *****************************
                       * Geometry Optimization Run *
                       *****************************

Geometry optimization settings:
Update method            Update   .... BFGS
Choice of coordinates    CoordSys .... Z-matrix Internals
Initial Hessian          InHess   .... Almoef's Model

Convergence Tolerances:
Energy Change            TolE     ....  5.0000e-06 Eh
Max. Gradient            TolMAXG  ....  3.0000e-04 Eh/bohr
RMS Gradient             TolRMSG  ....  1.0000e-04 Eh/bohr
Max. Displacement        TolMAXD  ....  4.0000e-03 bohr
RMS Displacement         TolRMSD  ....  2.0000e-03 bohr
Strict Convergence                ....  False
------------------------------------------------------------------------------
                        ORCA OPTIMIZATION COORDINATE SETUP
------------------------------------------------------------------------------

The optimization will be done in new redundant internal coordinates
Making redundant internal coordinates   ...  (new redundants) done
Evaluating the initial hessian          ...  (Almloef) done
Evaluating the coordinates              ...  done
Calculating the B-matrix                .... done
Calculating the G-matrix                .... done
Diagonalizing the G-matrix              .... done
Small eigenvalue found = 6.243e-03
Small eigenvalue found = 6.525e-03
Small eigenvalue found = 1.025e-02
Small eigenvalue found = 2.340e-02
Small eigenvalue found = 2.475e-02
The first mode is                       ....   70
The number of degrees of freedom        ....   93

    -----------------------------------------------------------------
                    Redundant Internal Coordinates


    -----------------------------------------------------------------
         Definition                    Initial Value    Approx d2E/dq
    -----------------------------------------------------------------
      1. B(C   1,N   0)                  1.4350         0.474294   
      2. B(C   2,C   1)                  1.5449         0.353674   
      3. B(O   3,C   2)                  1.2314         1.002196   
      4. B(C   4,C   1)                  1.5844         0.305957   
      5. B(C   5,C   4)                  1.5315         0.371522   
      6. B(C   6,C   5)                  1.5437         0.355280   
      7. B(C   7,C   6)                  1.5815         0.309158   
      8. B(N   8,C   7)                  1.4302         0.482791   
      9. B(H   9,N   0)                  1.0168         0.422105   
     10. B(C  10,N   0)                  1.3877         0.564306   
     11. B(N  11,C   2)                  1.3566         0.632722   
     12. B(H  12,N  11)                  1.0105         0.431841   
     13. B(O  13,C  10)                  1.2284         1.013362   
     14. B(C  14,N  11)                  1.4656         0.423878   
     15. B(H  15,C  14)                  1.0948         0.353857   
     16. B(H  16,C  14)                  1.0924         0.356904   
     17. B(H  17,C  14)                  1.0898         0.360398   
     18. B(C  18,C  10)                  1.5164         0.392740   
     19. B(H  19,C  18)                  1.0942         0.354605   
     20. B(H  20,C  18)                  1.0923         0.357065   
     21. B(H  21,C  18)                  1.0927         0.356595   
     22. B(H  22,C   1)                  1.0967         0.351391   
     23. B(H  23,C   4)                  1.0953         0.353166   
     24. B(H  24,C   4)                  1.0954         0.353048   
     25. B(H  25,C   5)                  1.0950         0.353502   
     26. B(H  26,C   5)                  1.0958         0.352460   
     27. B(H  27,C   6)                  1.0950         0.353524   
     28. B(H  28,C   6)                  1.0950         0.353506   
     29. B(H  29,C   7)                  1.0941         0.354666   
     30. B(H  30,C   7)                  1.0934         0.355581   
     31. B(H  31,N   8)                  1.0130         0.427977   
     32. B(H  32,N   8)                  1.0131         0.427879   
     33. A(C   1,N   0,H   9)          115.6483         0.341382   
     34. A(C   1,N   0,C  10)          122.6673         0.401709   
     35. A(H   9,N   0,C  10)          121.6678         0.351506   
     36. A(N   0,C   1,C   2)          106.7064         0.372663   
     37. A(N   0,C   1,H  22)          108.2089         0.333977   
     38. A(N   0,C   1,C   4)          113.9514         0.363509   
     39. A(C   2,C   1,H  22)          112.9011         0.320137   
     40. A(C   4,C   1,H  22)          104.9242         0.312678   
     41. A(C   2,C   1,C   4)          110.2754         0.347999   
     42. A(C   1,C   2,N  11)          115.5247         0.391783   
     43. A(C   1,C   2,O   3)          119.7945         0.425001   
     44. A(O   3,C   2,N  11)          124.6514         0.469126   
     45. A(C   1,C   4,C   5)          114.4749         0.350902   
     46. A(H  23,C   4,H  24)          107.5134         0.289056   
     47. A(C   1,C   4,H  24)          104.9905         0.312916   
     48. A(C   5,C   4,H  23)          110.6492         0.322994   
     49. A(C   1,C   4,H  23)          107.5261         0.312933   
     50. A(C   5,C   4,H  24)          111.2966         0.322976   
     51. A(C   4,C   5,C   6)          109.4290         0.359913   
     52. A(C   6,C   5,H  26)          109.6791         0.320533   
     53. A(H  25,C   5,H  26)          107.0023         0.289023   
     54. A(C   4,C   5,H  26)          109.8925         0.322888   
     55. A(C   6,C   5,H  25)          109.6204         0.320688   
     56. A(C   4,C   5,H  25)          111.1820         0.323044   
     57. A(C   5,C   6,C   7)          110.0307         0.348877   
     58. A(C   7,C   6,H  28)          108.7021         0.313510   
     59. A(C   7,C   6,H  27)          108.3756         0.313513   
     60. A(C   5,C   6,H  27)          110.9621         0.320691   
     61. A(H  27,C   6,H  28)          107.9256         0.289160   
     62. A(C   5,C   6,H  28)          110.7655         0.320689   
     63. A(N   8,C   7,H  30)          109.0460         0.335625   
     64. A(H  29,C   7,H  30)          109.2690         0.289572   
     65. A(C   6,C   7,H  30)          108.8496         0.313808   
     66. A(C   6,C   7,H  29)          108.5931         0.313677   
     67. A(N   8,C   7,H  29)          109.2198         0.335481   
     68. A(C   6,C   7,N   8)          111.8291         0.365264   
     69. A(C   7,N   8,H  32)          120.0538         0.343179   
     70. A(H  31,N   8,H  32)          115.6574         0.302183   
     71. A(C   7,N   8,H  31)          120.0923         0.343192   
     72. A(N   0,C  10,O  13)          119.8511         0.460337   
     73. A(O  13,C  10,C  18)          123.5826         0.433928   
     74. A(N   0,C  10,C  18)          116.5647         0.391122   
     75. A(C   2,N  11,H  12)          118.1796         0.359788   
     76. A(H  12,N  11,C  14)          118.0576         0.336317   
     77. A(C   2,N  11,C  14)          122.7449         0.401854   
     78. A(H  16,C  14,H  17)          109.8712         0.290470   
     79. A(H  15,C  14,H  17)          108.8641         0.290080   
     80. A(N  11,C  14,H  17)          108.4041         0.329197   
     81. A(H  15,C  14,H  16)          109.2351         0.289637   
     82. A(N  11,C  14,H  16)          109.4382         0.328668   
     83. A(N  11,C  14,H  15)          111.0128         0.328203   
     84. A(H  20,C  18,H  21)          109.8156         0.290008   
     85. A(H  19,C  18,H  21)          107.3941         0.289693   
     86. A(C  10,C  18,H  21)          108.8391         0.326472   
     87. A(H  19,C  18,H  20)          109.0074         0.289753   
     88. A(C  10,C  18,H  20)          113.4492         0.326543   
     89. A(C  10,C  18,H  19)          108.1485         0.326172   
     90. D(C   2,C   1,N   0,H   9)     18.2279         0.019229   
     91. D(C   2,C   1,N   0,C  10)   -163.2339         0.019229   
     92. D(C   4,C   1,N   0,C  10)     74.8134         0.019229   
     93. D(C   4,C   1,N   0,H   9)   -103.7248         0.019229   
     94. D(H  22,C   1,N   0,C  10)    -41.4686         0.019229   
     95. D(H  22,C   1,N   0,H   9)    139.9931         0.019229   
     96. D(O   3,C   2,C   1,N   0)    -29.7028         0.009434   
     97. D(N  11,C   2,C   1,N   0)    152.1767         0.009434   
     98. D(N  11,C   2,C   1,C   4)    -83.5787         0.009434   
     99. D(N  11,C   2,C   1,H  22)     33.4287         0.009434   
    100. D(O   3,C   2,C   1,C   4)     94.5418         0.009434   
    101. D(O   3,C   2,C   1,H  22)   -148.4508         0.009434   
    102. D(C   5,C   4,C   1,N   0)     61.2155         0.007758   
    103. D(C   5,C   4,C   1,C   2)    -58.7470         0.007758   
    104. D(H  24,C   4,C   1,C   2)    178.9089         0.007758   
    105. D(C   5,C   4,C   1,H  22)    179.3966         0.007758   
    106. D(H  23,C   4,C   1,H  22)    -57.2314         0.007758   
    107. D(H  23,C   4,C   1,C   2)     64.6250         0.007758   
    108. D(H  23,C   4,C   1,N   0)   -175.4124         0.007758   
    109. D(H  24,C   4,C   1,H  22)     57.0525         0.007758   
    110. D(H  24,C   4,C   1,N   0)    -61.1286         0.007758   
    111. D(H  26,C   5,C   4,H  24)     64.8893         0.011029   
    112. D(H  26,C   5,C   4,H  23)   -175.6345         0.011029   
    113. D(H  26,C   5,C   4,C   1)    -53.9575         0.011029   
    114. D(H  25,C   5,C   4,H  23)    -57.3587         0.011029   
    115. D(H  25,C   5,C   4,C   1)     64.3184         0.011029   
    116. D(C   6,C   5,C   4,H  24)    -55.5999         0.011029   
    117. D(H  25,C   5,C   4,H  24)   -176.8349         0.011029   
    118. D(C   6,C   5,C   4,H  23)     63.8763         0.011029   
    119. D(C   6,C   5,C   4,C   1)   -174.4467         0.011029   
    120. D(C   7,C   6,C   5,C   4)    177.6939         0.010146   
    121. D(H  28,C   6,C   5,H  25)    179.6543         0.010146   
    122. D(H  28,C   6,C   5,C   4)     57.4791         0.010146   
    123. D(H  27,C   6,C   5,H  26)    177.0081         0.010146   
    124. D(H  27,C   6,C   5,H  25)     59.8025         0.010146   
    125. D(H  27,C   6,C   5,C   4)    -62.3726         0.010146   
    126. D(C   7,C   6,C   5,H  26)     57.0746         0.010146   
    127. D(H  28,C   6,C   5,H  26)    -63.1401         0.010146   
    128. D(C   7,C   6,C   5,H  25)    -60.1309         0.010146   
    129. D(H  30,C   7,C   6,H  28)     62.8782         0.007900   
    130. D(H  30,C   7,C   6,C   5)    -58.5765         0.007900   
    131. D(H  29,C   7,C   6,H  28)   -178.2564         0.007900   
    132. D(H  29,C   7,C   6,H  27)    -61.2012         0.007900   
    133. D(H  29,C   7,C   6,C   5)     60.2888         0.007900   
    134. D(N   8,C   7,C   6,H  28)    -57.6659         0.007900   
    135. D(H  30,C   7,C   6,H  27)    179.9335         0.007900   
    136. D(N   8,C   7,C   6,H  27)     59.3893         0.007900   
    137. D(N   8,C   7,C   6,C   5)   -179.1207         0.007900   
    138. D(H  32,N   8,C   7,H  30)    163.1136         0.019944   
    139. D(H  32,N   8,C   7,H  29)     43.7679         0.019944   
    140. D(H  32,N   8,C   7,C   6)    -76.4568         0.019944   
    141. D(H  31,N   8,C   7,H  30)    -40.8970         0.019944   
    142. D(H  31,N   8,C   7,H  29)   -160.2427         0.019944   
    143. D(H  31,N   8,C   7,C   6)     79.5326         0.019944   
    144. D(C  18,C  10,N   0,H   9)     -4.2373         0.025454   
    145. D(C  18,C  10,N   0,C   1)    177.3110         0.025454   
    146. D(O  13,C  10,N   0,H   9)    176.2075         0.025454   
    147. D(O  13,C  10,N   0,C   1)     -2.2443         0.025454   
    148. D(C  14,N  11,C   2,O   3)      4.7973         0.032523   
    149. D(C  14,N  11,C   2,C   1)   -177.1854         0.032523   
    150. D(H  12,N  11,C   2,O   3)    173.0216         0.032523   
    151. D(H  12,N  11,C   2,C   1)     -8.9611         0.032523   
    152. D(H  15,C  14,N  11,C   2)     96.8050         0.015319   
    153. D(H  17,C  14,N  11,H  12)    169.0399         0.015319   
    154. D(H  17,C  14,N  11,C   2)    -22.7222         0.015319   
    155. D(H  16,C  14,N  11,H  12)     49.2180         0.015319   
    156. D(H  16,C  14,N  11,C   2)   -142.5441         0.015319   
    157. D(H  15,C  14,N  11,H  12)    -71.4329         0.015319   
    158. D(H  21,C  18,C  10,O  13)    -51.6450         0.011467   
    159. D(H  21,C  18,C  10,N   0)    128.8180         0.011467   
    160. D(H  20,C  18,C  10,O  13)   -174.2212         0.011467   
    161. D(H  20,C  18,C  10,N   0)      6.2418         0.011467   
    162. D(H  19,C  18,C  10,O  13)     64.7296         0.011467   
    163. D(H  19,C  18,C  10,N   0)   -114.8074         0.011467   
    -----------------------------------------------------------------

Number of atoms                         .... 33
Number of degrees of freedom            .... 163

         *************************************************************
         *                GEOMETRY OPTIMIZATION CYCLE   1            *
         *************************************************************
---------------------------------
CARTESIAN COORDINATES (ANGSTROEM)
---------------------------------
  N     -7.870461    0.826523    0.035052
  C     -6.440480    0.872750    0.145971
  C     -6.111651    0.865289    1.655453
  O     -6.905426    1.358932    2.457027
  C     -5.781514    2.132514   -0.553268
  C     -6.226610    3.481290    0.019605
  C     -5.628220    4.622707   -0.830104
  C     -6.127031    6.021563   -0.286418
  N     -5.610467    7.107757   -1.060227
  H     -8.385453    1.086060    0.872436
  C     -8.519696    0.482071   -1.142068
  N     -4.911010    0.329432    1.989516
  H     -4.383485   -0.145234    1.270063
  O     -7.865326    0.241720   -2.153451
  C     -4.465122    0.187441    3.378416
  H     -4.664807   -0.821444    3.753619
  H     -3.392946    0.388047    3.438346
  H     -5.011052    0.905334    3.990134
  C    -10.033661    0.416365   -1.087282
  H    -10.336101   -0.621494   -1.256461
  H    -10.449429    0.757612   -0.136590
  H    -10.442594    1.013358   -1.905991
  H     -6.027396    0.006706   -0.385068
  H     -4.694564    2.020611   -0.477880
  H     -6.049628    2.041746   -1.611447
  H     -5.908672    3.592953    1.061501
  H     -7.320364    3.548049    0.009436
  H     -4.533989    4.607607   -0.791478
  H     -5.929832    4.525580   -1.878288
  H     -5.797780    6.130039    0.751352
  H     -7.219604    6.045479   -0.322718
  H     -6.036606    7.347067   -1.947520
  H     -4.648507    7.402578   -0.941929

----------------------------
CARTESIAN COORDINATES (A.U.)
----------------------------
  NO LB      ZA    FRAG     MASS         X           Y           Z
   0 N     7.0000    0    14.007  -14.873016    1.561902    0.066239
   1 C     6.0000    0    12.011  -12.170743    1.649259    0.275845
   2 C     6.0000    0    12.011  -11.549346    1.635160    3.128353
   3 O     8.0000    0    15.999  -13.049364    2.568009    4.643108
   4 C     6.0000    0    12.011  -10.925478    4.029867   -1.045526
   5 C     6.0000    0    12.011  -11.766587    6.578684    0.037049
   6 C     6.0000    0    12.011  -10.635794    8.735650   -1.568670
   7 C     6.0000    0    12.011  -11.578411   11.379105   -0.541251
   8 N     7.0000    0    14.007  -10.602246   13.431714   -2.003539
   9 H     1.0000    0     1.008  -15.846209    2.052356    1.648665
  10 C     6.0000    0    12.011  -16.099891    0.910983   -2.158195
  11 N     7.0000    0    14.007   -9.280464    0.622536    3.759641
  12 H     1.0000    0     1.008   -8.283586   -0.274452    2.400072
  13 O     8.0000    0    15.999  -14.863313    0.456784   -4.069432
  14 C     6.0000    0    12.011   -8.437858    0.354213    6.384281
  15 H     1.0000    0     1.008   -8.815208   -1.552304    7.093313
  16 H     1.0000    0     1.008   -6.411739    0.733303    6.497532
  17 H     1.0000    0     1.008   -9.469516    1.710834    7.540261
  18 C     6.0000    0    12.011  -18.960872    0.786815   -2.054666
  19 H     1.0000    0     1.008  -19.532400   -1.174454   -2.374368
  20 H     1.0000    0     1.008  -19.746559    1.431679   -0.258118
  21 H     1.0000    0     1.008  -19.733644    1.914968   -3.601801
  22 H     1.0000    0     1.008  -11.390127    0.012672   -0.727673
  23 H     1.0000    0     1.008   -8.871440    3.818402   -0.903063
  24 H     1.0000    0     1.008  -11.432140    3.858341   -3.045194
  25 H     1.0000    0     1.008  -11.165772    6.789697    2.005946
  26 H     1.0000    0     1.008  -13.833484    6.704840    0.017832
  27 H     1.0000    0     1.008   -8.567997    8.707115   -1.495677
  28 H     1.0000    0     1.008  -11.205758    8.552106   -3.549450
  29 H     1.0000    0     1.008  -10.956216   11.584095    1.419850
  30 H     1.0000    0     1.008  -13.643075   11.424300   -0.609848
  31 H     1.0000    0     1.008  -11.407532   13.883945   -3.680280
  32 H     1.0000    0     1.008   -8.784406   13.988845   -1.779987

--------------------------------
INTERNAL COORDINATES (ANGSTROEM)
--------------------------------
 N      0   0   0     0.000000000000     0.00000000     0.00000000
 C      1   0   0     1.435020992782     0.00000000     0.00000000
 C      2   1   0     1.544901828502   106.70636179     0.00000000
 O      3   2   1     1.231374206562   119.79452575   330.29724551
 C      2   1   3     1.584353555437   113.95137978   238.04725505
 C      5   2   1     1.531499735028   114.47491726    61.21549083
 C      6   5   2     1.543667854261   109.42898059   185.55329863
 C      7   6   5     1.581520197888   110.03072917   177.69388668
 N      8   7   6     1.430187593892   111.82905384   180.87929649
 H      1   2   3     1.016753402353   115.64831294    18.22789773
 C      1   2   3     1.387718846063   122.66728817   196.76612493
 N      3   2   1     1.356568887430   115.52470696   152.17672657
 H     12   3   2     1.010545684122   118.17964289   351.03886123
 O     11   1   2     1.228358116732   119.85113501   357.75573884
 C     12   3   2     1.465612480106   122.74485636   182.81457123
 H     15  12   3     1.094760912729   111.01283469    96.80502189
 H     15  12   3     1.092426996034   109.43824816   217.45587019
 H     15  12   3     1.089774698243   108.40405582   337.27782954
 C     11   1   2     1.516381057125   116.56465497   177.31097822
 H     19  11   1     1.094185700001   108.14845127   245.19259166
 H     19  11   1     1.092304202084   113.44915601     6.24179812
 H     19  11   1     1.092662238146   108.83914209   128.81800708
 H      2   1   3     1.096664613061   108.20891566   121.76522807
 H      5   2   1     1.095292641547   107.52609907   184.58756287
 H      5   2   1     1.095383839040   104.99050635   298.87141705
 H      6   5   2     1.095033917077   111.18204210    64.31836308
 H      6   5   2     1.095837351479   109.89246669   306.04250261
 H      7   6   5     1.095016571888   110.96209480   297.62735503
 H      7   6   5     1.095030581145   110.76545200    57.47910220
 H      8   7   6     1.094138980331   108.59306309    60.28882952
 H      8   7   6     1.093437500417   108.84956105   301.42346911
 H      9   8   7     1.012992361450   120.09231012    79.53260392
 H      9   8   7     1.013054745291   120.05377245   283.54320629

---------------------------
INTERNAL COORDINATES (A.U.)
---------------------------
 N      0   0   0     0.000000000000     0.00000000     0.00000000
 C      1   0   0     2.711796672785     0.00000000     0.00000000
 C      2   1   0     2.919441359662   106.70636179     0.00000000
 O      3   2   1     2.326960018776   119.79452575   330.29724551
 C      2   1   3     2.993994319080   113.95137978   238.04725505
 C      5   2   1     2.894115073375   114.47491726    61.21549083
 C      6   5   2     2.917109486291   109.42898059   185.55329863
 C      7   6   5     2.988640049273   110.03072917   177.69388668
 N      8   7   6     2.702662872587   111.82905384   180.87929649
 H      1   2   3     1.921385476180   115.64831294    18.22789773
 C      1   2   3     2.622408569941   122.66728817   196.76612493
 N      3   2   1     2.563543679040   115.52470696   152.17672657
 H     12   3   2     1.909654588807   118.17964289   351.03886123
 O     11   1   2     2.321260435003   119.85113501   357.75573884
 C     12   3   2     2.769606205857   122.74485636   182.81457123
 H     15  12   3     2.068798307179   111.01283469    96.80502189
 H     15  12   3     2.064387843806   109.43824816   217.45587019
 H     15  12   3     2.059375727356   108.40405582   337.27782954
 C     11   1   2     2.865544912632   116.56465497   177.31097822
 H     19  11   1     2.067711312654   108.14845127   245.19259166
 H     19  11   1     2.064155796871   113.44915601     6.24179812
 H     19  11   1     2.064832386974   108.83914209   128.81800708
 H      2   1   3     2.072395779448   108.20891566   121.76522807
 H      5   2   1     2.069803129024   107.52609907   184.58756287
 H      5   2   1     2.069975467310   104.99050635   298.87141705
 H      6   5   2     2.069314210631   111.18204210    64.31836308
 H      6   5   2     2.070832481616   109.89246669   306.04250261
 H      7   6   5     2.069281432974   110.96209480   297.62735503
 H      7   6   5     2.069307906633   110.76545200    57.47910220
 H      8   7   6     2.067623025274   108.59306309    60.28882952
 H      8   7   6     2.066297420348   108.84956105   301.42346911
 H      9   8   7     1.914278138894   120.09231012    79.53260392
 H      9   8   7     1.914396027269   120.05377245   283.54320629

---------------------
BASIS SET INFORMATION
---------------------
There are 4 groups of distinct atoms

 Group   1 Type N   : 11s6p2d1f contracted to 5s3p2d1f pattern {62111/411/11/1}
 Group   2 Type C   : 11s6p2d1f contracted to 5s3p2d1f pattern {62111/411/11/1}
 Group   3 Type O   : 11s6p2d1f contracted to 5s3p2d1f pattern {62111/411/11/1}
 Group   4 Type H   : 5s1p contracted to 3s1p pattern {311/1}

Atom   0N    basis set group =>   1
Atom   1C    basis set group =>   2
Atom   2C    basis set group =>   2
Atom   3O    basis set group =>   3
Atom   4C    basis set group =>   2
Atom   5C    basis set group =>   2
Atom   6C    basis set group =>   2
Atom   7C    basis set group =>   2
Atom   8N    basis set group =>   1
Atom   9H    basis set group =>   4
Atom  10C    basis set group =>   2
Atom  11N    basis set group =>   1
Atom  12H    basis set group =>   4
Atom  13O    basis set group =>   3
Atom  14C    basis set group =>   2
Atom  15H    basis set group =>   4
Atom  16H    basis set group =>   4
Atom  17H    basis set group =>   4
Atom  18C    basis set group =>   2
Atom  19H    basis set group =>   4
Atom  20H    basis set group =>   4
Atom  21H    basis set group =>   4
Atom  22H    basis set group =>   4
Atom  23H    basis set group =>   4
Atom  24H    basis set group =>   4
Atom  25H    basis set group =>   4
Atom  26H    basis set group =>   4
Atom  27H    basis set group =>   4
Atom  28H    basis set group =>   4
Atom  29H    basis set group =>   4
Atom  30H    basis set group =>   4
Atom  31H    basis set group =>   4
Atom  32H    basis set group =>   4
---------------------------------
AUXILIARY/J BASIS SET INFORMATION
---------------------------------
There are 4 groups of distinct atoms

 Group   1 Type N   : 12s5p4d2f1g contracted to 6s4p3d1f1g pattern {711111/2111/211/2/1}
 Group   2 Type C   : 12s5p4d2f1g contracted to 6s4p3d1f1g pattern {711111/2111/211/2/1}
 Group   3 Type O   : 12s5p4d2f1g contracted to 6s4p3d1f1g pattern {711111/2111/211/2/1}
 Group   4 Type H   : 5s2p1d contracted to 3s1p1d pattern {311/2/1}

Atom   0N    basis set group =>   1
Atom   1C    basis set group =>   2
Atom   2C    basis set group =>   2
Atom   3O    basis set group =>   3
Atom   4C    basis set group =>   2
Atom   5C    basis set group =>   2
Atom   6C    basis set group =>   2
Atom   7C    basis set group =>   2
Atom   8N    basis set group =>   1
Atom   9H    basis set group =>   4
Atom  10C    basis set group =>   2
Atom  11N    basis set group =>   1
Atom  12H    basis set group =>   4
Atom  13O    basis set group =>   3
Atom  14C    basis set group =>   2
Atom  15H    basis set group =>   4
Atom  16H    basis set group =>   4
Atom  17H    basis set group =>   4
Atom  18C    basis set group =>   2
Atom  19H    basis set group =>   4
Atom  20H    basis set group =>   4
Atom  21H    basis set group =>   4
Atom  22H    basis set group =>   4
Atom  23H    basis set group =>   4
Atom  24H    basis set group =>   4
Atom  25H    basis set group =>   4
Atom  26H    basis set group =>   4
Atom  27H    basis set group =>   4
Atom  28H    basis set group =>   4
Atom  29H    basis set group =>   4
Atom  30H    basis set group =>   4
Atom  31H    basis set group =>   4
Atom  32H    basis set group =>   4


           ************************************************************
           *        Program running with 16 parallel MPI-processes    *
           *              working on a common directory               *
           ************************************************************
------------------------------------------------------------------------------
                           ORCA GTO INTEGRAL CALCULATION
                           -- RI-GTO INTEGRALS CHOSEN --
------------------------------------------------------------------------------
------------------------------------------------------------------------------
                   ___                                                        
                  /   \      - P O W E R E D   B Y -                         
                 /     \                                                     
                 |  |  |   _    _      __       _____    __    __             
                 |  |  |  | |  | |    /  \     |  _  \  |  |  /  |          
                  \  \/   | |  | |   /    \    | | | |  |  | /  /          
                 / \  \   | |__| |  /  /\  \   | |_| |  |  |/  /          
                |  |  |   |  __  | /  /__\  \  |    /   |      \           
                |  |  |   | |  | | |   __   |  |    \   |  |\   \          
                \     /   | |  | | |  |  |  |  | |\  \  |  | \   \       
                 \___/    |_|  |_| |__|  |__|  |_| \__\ |__|  \__/        
                                                                              
                      - O R C A' S   B I G   F R I E N D -                    
                                      &                                       
                       - I N T E G R A L  F E E D E R -                       
                                                                              
 v1 FN, 2020, v2 2021                                                         
------------------------------------------------------------------------------


Reading SHARK input file freq.SHARKINP.tmp ... ok
----------------------
SHARK INTEGRAL PACKAGE
----------------------

Number of atoms                             ...     33
Number of basis functions                   ...    548
Number of shells                            ...    230
Maximum angular momentum                    ...      3
Integral batch strategy                     ... SHARK/LIBINT Hybrid
RI-J (if used) integral strategy            ... SPLIT-RIJ (Revised 2003 algorithm where possible)
Printlevel                                  ...      1
Contraction scheme used                     ... SEGMENTED contraction
Coulomb Range Separation                    ... NOT USED
Exchange Range Separation                   ... NOT USED
Finite Nucleus Model                        ... NOT USED
Auxiliary Coulomb fitting basis             ... AVAILABLE
   # of basis functions in Aux-J            ...    895
   # of shells in Aux-J                     ...    305
   Maximum angular momentum in Aux-J        ...      4
Auxiliary J/K fitting basis                 ... NOT available
Auxiliary Correlation fitting basis         ... NOT available
Auxiliary 'external' fitting basis          ... NOT available
Integral threshold                          ...     2.500000e-11
Primitive cut-off                           ...     2.500000e-12
Primitive pair pre-selection threshold      ...     2.500000e-12

Calculating pre-screening integrals         ... done (  0.0 sec) Dimension = 230
Organizing shell pair data                  ... done (  0.1 sec)
Shell pair information
Total number of shell pairs                 ...     26565
Shell pairs after pre-screening             ...     19934
Total number of primitive shell pairs       ...     78180
Primitive shell pairs kept                  ...     40887
          la=0 lb=0:   6052 shell pairs
          la=1 lb=0:   5927 shell pairs
          la=1 lb=1:   1494 shell pairs
          la=2 lb=0:   2624 shell pairs
          la=2 lb=1:   1310 shell pairs
          la=2 lb=2:    307 shell pairs
          la=3 lb=0:   1248 shell pairs
          la=3 lb=1:    624 shell pairs
          la=3 lb=2:    276 shell pairs
          la=3 lb=3:     72 shell pairs

Calculating one electron integrals          ... done (  0.0 sec)
Calculating RI/J V-Matrix + Cholesky decomp.... done (  0.0 sec)
Calculating Nuclear repulsion               ... done (  0.0 sec) ENN=    931.386780886691 Eh

SHARK setup successfully completed in   0.4 seconds

Maximum memory used throughout the entire GTOINT-calculation: 31.5 MB


           ************************************************************
           *        Program running with 16 parallel MPI-processes    *
           *              working on a common directory               *
           ************************************************************
-------------------------------------------------------------------------------
                                 ORCA SCF
-------------------------------------------------------------------------------

------------
SCF SETTINGS
------------
Hamiltonian:
 Density Functional     Method          .... DFT(GTOs)
 Exchange Functional    Exchange        .... M062X
 Correlation Functional Correlation     .... M062X
 Gradients option       PostSCFGGA      .... off
 Hybrid DFT is turned on
   Fraction HF Exchange ScalHFX         ....  0.540000
   Scaling of DF-GGA-X  ScalDFX         ....  0.460000
   Scaling of DF-GGA-C  ScalDFC         ....  1.000000
   Scaling of DF-LDA-C  ScalLDAC        ....  1.000000
   Perturbative correction              ....  0.000000
   Density functional embedding theory  .... OFF
 RI-approximation to the Coulomb term is turned on
   Number of AuxJ basis functions       .... 895
   RIJ-COSX (HFX calculated with COS-X)).... on


General Settings:
 Integral files         IntName         .... freq
 Hartree-Fock type      HFTyp           .... UHF
 Total Charge           Charge          ....    1
 Multiplicity           Mult            ....    2
 Number of Electrons    NEL             ....  109
 Basis Dimension        Dim             ....  548
 Nuclear Repulsion      ENuc            ....    931.3867808867 Eh

Convergence Acceleration:
 DIIS                   CNVDIIS         .... on
   Start iteration      DIISMaxIt       ....    12
   Startup error        DIISStart       ....  0.200000
   # of expansion vecs  DIISMaxEq       ....     5
   Bias factor          DIISBfac        ....   1.050
   Max. coefficient     DIISMaxC        ....  10.000
 Trust-Rad. Augm. Hess. CNVTRAH         .... auto
   Auto Start mean grad. ratio tolernc. ....  1.125000
   Auto Start start iteration           ....    20
   Auto Start num. interpolation iter.  ....    10
   Max. Number of Micro iterations      ....    16
   Max. Number of Macro iterations      .... Maxiter - #DIIS iter
   Number of Davidson start vectors     ....     2
   Converg. threshold I  (grad. norm)   ....   1.000e-05
   Converg. threshold II (energy diff.) ....   1.000e-08
   Grad. Scal. Fac. for Micro threshold ....   0.100
   Minimum threshold for Micro iter.    ....   0.010
   NR start threshold (gradient norm)   ....   0.001
   Initial trust radius                 ....   0.400
   Minimum AH scaling param. (alpha)    ....   1.000
   Maximum AH scaling param. (alpha)    .... 1000.000
   Orbital update algorithm             .... Taylor
   White noise on init. David. guess    .... on
   Maximum white noise                  ....   0.010
   Quad. conv. algorithm                .... NR
 SOSCF                  CNVSOSCF        .... off
 Level Shifting         CNVShift        .... on
   Level shift para.    LevelShift      ....    0.2500
   Turn off err/grad.   ShiftErr        ....    0.0010
 Zerner damping         CNVZerner       .... off
 Static damping         CNVDamp         .... on
   Fraction old density DampFac         ....    0.7000
   Max. Damping (<1)    DampMax         ....    0.9800
   Min. Damping (>=0)   DampMin         ....    0.0000
   Turn off err/grad.   DampErr         ....    0.1000
 Fernandez-Rico         CNVRico         .... off

SCF Procedure:
 Maximum # iterations   MaxIter         ....   125
 SCF integral mode      SCFMode         .... Direct
   Integral package                     .... SHARK and LIBINT hybrid scheme
 Reset frequency        DirectResetFreq ....    20
 Integral Threshold     Thresh          ....  2.500e-11 Eh
 Primitive CutOff       TCut            ....  2.500e-12 Eh

Convergence Tolerance:
 Convergence Check Mode ConvCheckMode   .... Total+1el-Energy
 Convergence forced     ConvForced      .... 0
 Energy Change          TolE            ....  1.000e-08 Eh
 1-El. energy change                    ....  1.000e-05 Eh
 DIIS Error             TolErr          ....  5.000e-07


Diagonalization of the overlap matrix:
Smallest eigenvalue                        ... 6.119e-05
Time for diagonalization                   ...    0.036 sec
Threshold for overlap eigenvalues          ... 1.000e-08
Number of eigenvalues below threshold      ... 0
Time for construction of square roots      ...    0.024 sec
Total time needed                          ...    0.062 sec

Time for model grid setup =    0.128 sec

------------------------------
INITIAL GUESS: MODEL POTENTIAL
------------------------------
Loading Hartree-Fock densities                     ... done
Calculating cut-offs                               ... done
Initializing the effective Hamiltonian             ... done
Setting up the integral package (SHARK)            ... done
Starting the Coulomb interaction                   ... done (   0.1 sec)
Reading the grid                                   ... done
Mapping shells                                     ... done
Starting the XC term evaluation                    ... done (   0.1 sec)
  promolecular density results
     # of electrons  =    109.993433588
     EX              =    -87.557305831
     EC              =     -3.646647296
     EX+EC           =    -91.203953127
Transforming the Hamiltonian                       ... done (   0.0 sec)
Diagonalizing the Hamiltonian                      ... done (   0.0 sec)
Back transforming the eigenvectors                 ... done (   0.0 sec)
Now organizing SCF variables                       ... done
                      ------------------
                      INITIAL GUESS DONE (   0.4 sec)
                      ------------------
-------------------
DFT GRID GENERATION
-------------------

General Integration Accuracy     IntAcc      ... 4.388
Radial Grid Type                 RadialGrid  ... OptM3 with GC (2021)
Angular Grid (max. ang.)         AngularGrid ... 4 (Lebedev-302)
Angular grid pruning method      GridPruning ... 4 (adaptive)
Weight generation scheme         WeightScheme... Becke
Basis function cutoff            BFCut       ... 1.0000e-11
Integration weight cutoff        WCut        ... 1.0000e-14
Angular grids for H and He will be reduced by one unit
Partially contracted basis set               ... off
Rotationally invariant grid construction     ... off

Total number of grid points                  ...   144754
Total number of batches                      ...     2279
Average number of points per batch           ...       63
Average number of grid points per atom       ...     4386
Time for grid setup =    0.644 sec

--------------------
COSX GRID GENERATION
--------------------

GRIDX 1
-------
General Integration Accuracy     IntAcc      ... 3.816
Radial Grid Type                 RadialGrid  ... OptM3 with GC (2021)
Angular Grid (max. ang.)         AngularGrid ... 1 (Lebedev-50)
Angular grid pruning method      GridPruning ... 4 (adaptive)
Weight generation scheme         WeightScheme... Becke
Basis function cutoff            BFCut       ... 1.0000e-11
Integration weight cutoff        WCut        ... 1.0000e-14
Angular grids for H and He will be reduced by one unit
Partially contracted basis set               ... on
Rotationally invariant grid construction     ... off

Total number of grid points                  ...    18472
Total number of batches                      ...      310
Average number of points per batch           ...       59
Average number of grid points per atom       ...      560
UseSFitting                                  ... on

GRIDX 2
-------
General Integration Accuracy     IntAcc      ... 4.020
Radial Grid Type                 RadialGrid  ... OptM3 with GC (2021)
Angular Grid (max. ang.)         AngularGrid ... 2 (Lebedev-110)
Angular grid pruning method      GridPruning ... 4 (adaptive)
Weight generation scheme         WeightScheme... Becke
Basis function cutoff            BFCut       ... 1.0000e-11
Integration weight cutoff        WCut        ... 1.0000e-14
Angular grids for H and He will be reduced by one unit
Partially contracted basis set               ... on
Rotationally invariant grid construction     ... off

Total number of grid points                  ...    38985
Total number of batches                      ...      627
Average number of points per batch           ...       62
Average number of grid points per atom       ...     1181
UseSFitting                                  ... on

GRIDX 3
-------
General Integration Accuracy     IntAcc      ... 4.338
Radial Grid Type                 RadialGrid  ... OptM3 with GC (2021)
Angular Grid (max. ang.)         AngularGrid ... 3 (Lebedev-194)
Angular grid pruning method      GridPruning ... 4 (adaptive)
Weight generation scheme         WeightScheme... Becke
Basis function cutoff            BFCut       ... 1.0000e-11
Integration weight cutoff        WCut        ... 1.0000e-14
Angular grids for H and He will be reduced by one unit
Partially contracted basis set               ... on
Rotationally invariant grid construction     ... off

Total number of grid points                  ...    85021
Total number of batches                      ...     1344
Average number of points per batch           ...       63
Average number of grid points per atom       ...     2576
UseSFitting                                  ... on

Time for X-Grid setup             =    0.856 sec

--------------
SCF ITERATIONS
--------------
ITER       Energy         Delta-E        Max-DP      RMS-DP      [F,P]     Damp
               ***  Starting incremental Fock matrix formation  ***
  0   -668.3603968667   0.000000000000 0.03790548  0.00039831  0.1474917 0.7000
  1   -668.5486735278  -0.188276661097 0.03909729  0.00032248  0.0701636 0.7000
                               ***Turning on DIIS***
  2   -668.6319094943  -0.083235966449 0.08405819  0.00065651  0.0255194 0.0000
  3   -668.7652902760  -0.133380781743 0.01408829  0.00020925  0.0348177 0.0000
  4   -668.7898861571  -0.024595881109 0.00469918  0.00006420  0.0066900 0.0000
  5   -668.7908998857  -0.001013728629 0.00244556  0.00002758  0.0032212 0.0000
  6   -668.7911086122  -0.000208726438 0.00254527  0.00003013  0.0008387 0.0000
               *** Restarting incremental Fock matrix formation ***
                                   *** Resetting DIIS ***
  7   -668.7912981047  -0.000189492498 0.00129980  0.00001363  0.0018204 0.0000
  8   -668.7913242719  -0.000026167188 0.00048124  0.00000491  0.0013922 0.0000
  9   -668.7913521195  -0.000027847617 0.00095484  0.00001217  0.0002884 0.0000
 10   -668.7913695973  -0.000017477791 0.00046416  0.00000429  0.0008752 0.0000
 11   -668.7913786600  -0.000009062737 0.00088212  0.00000751  0.0005640 0.0000
 12   -668.7913869452  -0.000008285189 0.00049450  0.00000396  0.0003460 0.0000
 13   -668.7913893478  -0.000002402585 0.00042837  0.00000362  0.0001809 0.0000
 14   -668.7913906423  -0.000001294513 0.00043408  0.00000361  0.0001424 0.0000
 15   -668.7913912571  -0.000000614784 0.00012121  0.00000106  0.0000364 0.0000
 16   -668.7913913234  -0.000000066310 0.00002876  0.00000034  0.0000268 0.0000
 17   -668.7913913249  -0.000000001508 0.00005402  0.00000063  0.0000189 0.0000
 18   -668.7913913372  -0.000000012309 0.00001797  0.00000019  0.0000054 0.0000
 19   -668.7913913484  -0.000000011147 0.00000780  0.00000010  0.0000062 0.0000
                 **** Energy Check signals convergence ****

               *****************************************************
               *                     SUCCESS                       *
               *           SCF CONVERGED AFTER  20 CYCLES          *
               *****************************************************

Old exchange energy                            =    -48.255744329 Eh
New exchange energy                            =    -48.255769050 Eh
Exchange energy change after final integration =     -0.000024721 Eh
Total energy after final integration           =   -668.791416066 Eh
Final COS-X integration done in                =     4.908 sec

----------------
TOTAL SCF ENERGY
----------------

Total Energy       :         -668.79141607 Eh          -18198.73964 eV

Components:
Nuclear Repulsion  :          931.38678089 Eh           25344.32279 eV
Electronic Energy  :        -1600.17819695 Eh          -43543.06243 eV
One Electron Energy:        -2741.99284595 Eh          -74613.41861 eV
Two Electron Energy:         1141.81464900 Eh           31070.35619 eV
Max COSX asymmetry :            0.00000099 Eh               0.00003 eV

Virial components:
Potential Energy   :        -1333.91179651 Eh          -36297.58532 eV
Kinetic Energy     :          665.12038044 Eh           18098.84568 eV
Virial Ratio       :            2.00551936


DFT components:
N(Alpha)           :       55.000027986164 electrons
N(Beta)            :       54.000028039977 electrons
N(Total)           :      109.000056026141 electrons
E(XC)              :      -45.038331402916 Eh       
DFET-embed. en.    :        0.000000000000 Eh       

---------------
SCF CONVERGENCE
---------------

  Last Energy change         ...    3.8523e-09  Tolerance :   1.0000e-08
  Last MAX-Density change    ...    0.0000e+00  Tolerance :   1.0000e-07
  Last RMS-Density change    ...    0.0000e+00  Tolerance :   5.0000e-09
  Last DIIS Error            ...    4.7386e-06  Tolerance :   5.0000e-07

             **** THE GBW FILE WAS UPDATED (freq.gbw) ****
             **** DENSITY freq.scfp WAS UPDATED ****
             **** ENERGY FILE WAS UPDATED (freq.en.tmp) ****
----------------------
UHF SPIN CONTAMINATION
----------------------

Warning: in a DFT calculation there is little theoretical justification to 
         calculate <S**2> as in Hartree-Fock theory. We will do it anyways
         but you should keep in mind that the values have only limited relevance

Expectation value of <S**2>     :     0.756897
Ideal value S*(S+1) for S=0.5   :     0.750000
Deviation                       :     0.006897

             **** THE GBW FILE WAS UPDATED (freq.gbw) ****
             **** DENSITY freq.scfp WAS UPDATED ****
----------------
ORBITAL ENERGIES
----------------
                 SPIN UP ORBITALS
  NO   OCC          E(Eh)            E(eV) 
   0   1.0000     -19.714156      -536.4495 
   1   1.0000     -19.707159      -536.2591 
   2   1.0000     -15.012098      -408.5000 
   3   1.0000     -14.898444      -405.4073 
   4   1.0000     -14.895473      -405.3264 
   5   1.0000     -10.767689      -293.0037 
   6   1.0000     -10.766117      -292.9609 
   7   1.0000     -10.758050      -292.7414 
   8   1.0000     -10.721373      -291.7434 
   9   1.0000     -10.720260      -291.7131 
  10   1.0000     -10.688246      -290.8420 
  11   1.0000     -10.681944      -290.6705 
  12   1.0000     -10.670839      -290.3683 
  13   1.0000     -10.639729      -289.5217 
  14   1.0000      -1.280205       -34.8361 
  15   1.0000      -1.268326       -34.5129 
  16   1.0000      -1.245669       -33.8964 
  17   1.0000      -1.153023       -31.3754 
  18   1.0000      -1.147778       -31.2326 
  19   1.0000      -1.060634       -28.8613 
  20   1.0000      -1.003386       -27.3035 
  21   1.0000      -0.956596       -26.0303 
  22   1.0000      -0.926733       -25.2177 
  23   1.0000      -0.902661       -24.5627 
  24   1.0000      -0.863121       -23.4867 
  25   1.0000      -0.827919       -22.5288 
  26   1.0000      -0.826965       -22.5029 
  27   1.0000      -0.786757       -21.4087 
  28   1.0000      -0.774992       -21.0886 
  29   1.0000      -0.739600       -20.1255 
  30   1.0000      -0.730267       -19.8716 
  31   1.0000      -0.703844       -19.1526 
  32   1.0000      -0.690999       -18.8030 
  33   1.0000      -0.676587       -18.4109 
  34   1.0000      -0.657085       -17.8802 
  35   1.0000      -0.650956       -17.7134 
  36   1.0000      -0.649194       -17.6655 
  37   1.0000      -0.636376       -17.3167 
  38   1.0000      -0.625269       -17.0144 
  39   1.0000      -0.613931       -16.7059 
  40   1.0000      -0.597571       -16.2607 
  41   1.0000      -0.590920       -16.0798 
  42   1.0000      -0.584057       -15.8930 
  43   1.0000      -0.579802       -15.7772 
  44   1.0000      -0.564179       -15.3521 
  45   1.0000      -0.561772       -15.2866 
  46   1.0000      -0.558274       -15.1914 
  47   1.0000      -0.551746       -15.0138 
  48   1.0000      -0.545406       -14.8413 
  49   1.0000      -0.538042       -14.6409 
  50   1.0000      -0.517851       -14.0914 
  51   1.0000      -0.461248       -12.5512 
  52   1.0000      -0.445703       -12.1282 
  53   1.0000      -0.444364       -12.0918 
  54   1.0000      -0.431133       -11.7317 
  55   0.0000      -0.109198        -2.9714 
  56   0.0000      -0.070175        -1.9096 
  57   0.0000      -0.065472        -1.7816 
  58   0.0000      -0.063805        -1.7362 
  59   0.0000      -0.051426        -1.3994 
  60   0.0000      -0.045737        -1.2446 
  61   0.0000      -0.034765        -0.9460 
  62   0.0000      -0.029720        -0.8087 
  63   0.0000      -0.011518        -0.3134 
  64   0.0000       0.001722         0.0469 
  65   0.0000       0.005315         0.1446 
  66   0.0000       0.006563         0.1786 
  67   0.0000       0.013972         0.3802 
  68   0.0000       0.019701         0.5361 
  69   0.0000       0.026122         0.7108 
  70   0.0000       0.027882         0.7587 
  71   0.0000       0.032132         0.8744 
  72   0.0000       0.043430         1.1818 
  73   0.0000       0.060226         1.6388 
  74   0.0000       0.061294         1.6679 
  75   0.0000       0.063071         1.7163 
  76   0.0000       0.065861         1.7922 
  77   0.0000       0.071249         1.9388 
  78   0.0000       0.077554         2.1103 
  79   0.0000       0.078637         2.1398 
  80   0.0000       0.082172         2.2360 
  81   0.0000       0.094458         2.5703 
  82   0.0000       0.109894         2.9904 
  83   0.0000       0.110272         3.0006 
  84   0.0000       0.122292         3.3277 
  85   0.0000       0.124538         3.3889 
  86   0.0000       0.135122         3.6769 
  87   0.0000       0.140706         3.8288 
  88   0.0000       0.145195         3.9509 
  89   0.0000       0.152753         4.1566 
  90   0.0000       0.155552         4.2328 
  91   0.0000       0.160439         4.3658 
  92   0.0000       0.163980         4.4621 
  93   0.0000       0.169567         4.6142 
  94   0.0000       0.178944         4.8693 
  95   0.0000       0.186390         5.0719 
  96   0.0000       0.190983         5.1969 
  97   0.0000       0.206876         5.6294 
  98   0.0000       0.214994         5.8503 
  99   0.0000       0.221122         6.0170 
 100   0.0000       0.227230         6.1832 
 101   0.0000       0.231534         6.3004 
 102   0.0000       0.239875         6.5273 
 103   0.0000       0.251166         6.8346 
 104   0.0000       0.264512         7.1977 
 105   0.0000       0.265423         7.2225 
 106   0.0000       0.275010         7.4834 
 107   0.0000       0.285413         7.7665 
 108   0.0000       0.290874         7.9151 
 109   0.0000       0.297544         8.0966 
 110   0.0000       0.302014         8.2182 
 111   0.0000       0.310892         8.4598 
 112   0.0000       0.318031         8.6541 
 113   0.0000       0.326503         8.8846 
 114   0.0000       0.327973         8.9246 
 115   0.0000       0.330366         8.9897 
 116   0.0000       0.334438         9.1005 
 117   0.0000       0.343004         9.3336 
 118   0.0000       0.345329         9.3969 
 119   0.0000       0.347321         9.4511 
 120   0.0000       0.352094         9.5810 
 121   0.0000       0.356834         9.7100 
 122   0.0000       0.359559         9.7841 
 123   0.0000       0.360855         9.8194 
 124   0.0000       0.373047        10.1511 
 125   0.0000       0.374530        10.1915 
 126   0.0000       0.381191        10.3727 
 127   0.0000       0.390896        10.6368 
 128   0.0000       0.399352        10.8669 
 129   0.0000       0.402263        10.9461 
 130   0.0000       0.404074        10.9954 
 131   0.0000       0.408509        11.1161 
 132   0.0000       0.411839        11.2067 
 133   0.0000       0.421144        11.4599 
 134   0.0000       0.430133        11.7045 
 135   0.0000       0.432974        11.7818 
 136   0.0000       0.445090        12.1115 
 137   0.0000       0.456264        12.4156 
 138   0.0000       0.464668        12.6442 
 139   0.0000       0.469979        12.7888 
 140   0.0000       0.481188        13.0938 
 141   0.0000       0.483207        13.1487 
 142   0.0000       0.488051        13.2805 
 143   0.0000       0.493787        13.4366 
 144   0.0000       0.495893        13.4939 
 145   0.0000       0.505318        13.7504 
 146   0.0000       0.517440        14.0803 
 147   0.0000       0.530292        14.4300 
 148   0.0000       0.531493        14.4627 
 149   0.0000       0.539487        14.6802 
 150   0.0000       0.543424        14.7873 
 151   0.0000       0.554304        15.0834 
 152   0.0000       0.573403        15.6031 
 153   0.0000       0.579625        15.7724 
 154   0.0000       0.599568        16.3151 
 155   0.0000       0.607923        16.5424 
 156   0.0000       0.624551        16.9949 
 157   0.0000       0.635050        17.2806 
 158   0.0000       0.644640        17.5415 
 159   0.0000       0.665439        18.1075 
 160   0.0000       0.676751        18.4153 
 161   0.0000       0.687596        18.7105 
 162   0.0000       0.693788        18.8789 
 163   0.0000       0.706195        19.2166 
 164   0.0000       0.711846        19.3703 
 165   0.0000       0.719194        19.5703 
 166   0.0000       0.723856        19.6971 
 167   0.0000       0.731993        19.9185 
 168   0.0000       0.756460        20.5843 
 169   0.0000       0.763296        20.7703 
 170   0.0000       0.779772        21.2187 
 171   0.0000       0.784586        21.3497 
 172   0.0000       0.788362        21.4524 
 173   0.0000       0.806506        21.9461 
 174   0.0000       0.822977        22.3943 
 175   0.0000       0.827062        22.5055 
 176   0.0000       0.853627        23.2284 
 177   0.0000       0.867774        23.6133 
 178   0.0000       0.873092        23.7580 
 179   0.0000       0.879360        23.9286 
 180   0.0000       0.898925        24.4610 
 181   0.0000       0.902881        24.5686 
 182   0.0000       0.914756        24.8918 
 183   0.0000       0.916153        24.9298 
 184   0.0000       0.936072        25.4718 
 185   0.0000       0.957837        26.0641 
 186   0.0000       0.962111        26.1804 
 187   0.0000       0.972243        26.4561 
 188   0.0000       0.983730        26.7687 
 189   0.0000       0.989055        26.9136 
 190   0.0000       0.995959        27.1014 
 191   0.0000       1.005343        27.3568 
 192   0.0000       1.012316        27.5465 
 193   0.0000       1.017539        27.6887 
 194   0.0000       1.028068        27.9751 
 195   0.0000       1.045569        28.4514 
 196   0.0000       1.063521        28.9399 
 197   0.0000       1.080665        29.4064 
 198   0.0000       1.095241        29.8030 
 199   0.0000       1.107426        30.1346 
 200   0.0000       1.113372        30.2964 
 201   0.0000       1.133689        30.8492 
 202   0.0000       1.146313        31.1928 
 203   0.0000       1.165054        31.7027 
 204   0.0000       1.174419        31.9576 
 205   0.0000       1.186074        32.2747 
 206   0.0000       1.206449        32.8291 
 207   0.0000       1.213509        33.0213 
 208   0.0000       1.219456        33.1831 
 209   0.0000       1.236605        33.6497 
 210   0.0000       1.248626        33.9769 
 211   0.0000       1.274510        34.6812 
 212   0.0000       1.283430        34.9239 
 213   0.0000       1.307897        35.5897 
 214   0.0000       1.320242        35.9256 
 215   0.0000       1.323609        36.0172 
 216   0.0000       1.343811        36.5669 
 217   0.0000       1.357703        36.9450 
 218   0.0000       1.363922        37.1142 
 219   0.0000       1.390380        37.8342 
 220   0.0000       1.394819        37.9549 
 221   0.0000       1.403497        38.1911 
 222   0.0000       1.420831        38.6628 
 223   0.0000       1.425316        38.7848 
 224   0.0000       1.430245        38.9189 
 225   0.0000       1.443767        39.2869 
 226   0.0000       1.448879        39.4260 
 227   0.0000       1.461504        39.7695 
 228   0.0000       1.463485        39.8234 
 229   0.0000       1.470442        40.0127 
 230   0.0000       1.476405        40.1750 
 231   0.0000       1.482492        40.3407 
 232   0.0000       1.489289        40.5256 
 233   0.0000       1.491563        40.5875 
 234   0.0000       1.499534        40.8044 
 235   0.0000       1.518612        41.3235 
 236   0.0000       1.523757        41.4635 
 237   0.0000       1.530538        41.6480 
 238   0.0000       1.533241        41.7216 
 239   0.0000       1.553066        42.2611 
 240   0.0000       1.556239        42.3474 
 241   0.0000       1.572123        42.7797 
 242   0.0000       1.574383        42.8411 
 243   0.0000       1.592845        43.3435 
 244   0.0000       1.613275        43.8994 
 245   0.0000       1.618399        44.0389 
 246   0.0000       1.624132        44.1949 
 247   0.0000       1.642736        44.7011 
 248   0.0000       1.655039        45.0359 
 249   0.0000       1.673652        45.5424 
 250   0.0000       1.676462        45.6189 
 251   0.0000       1.687164        45.9101 
 252   0.0000       1.703163        46.3454 
 253   0.0000       1.708256        46.4840 
 254   0.0000       1.714806        46.6622 
 255   0.0000       1.724118        46.9156 
 256   0.0000       1.732942        47.1558 
 257   0.0000       1.745273        47.4913 
 258   0.0000       1.749270        47.6001 
 259   0.0000       1.765350        48.0376 
 260   0.0000       1.770043        48.1653 
 261   0.0000       1.783240        48.5244 
 262   0.0000       1.784210        48.5508 
 263   0.0000       1.794154        48.8214 
 264   0.0000       1.796640        48.8891 
 265   0.0000       1.804277        49.0969 
 266   0.0000       1.812098        49.3097 
 267   0.0000       1.829189        49.7748 
 268   0.0000       1.842960        50.1495 
 269   0.0000       1.858496        50.5722 
 270   0.0000       1.871098        50.9152 
 271   0.0000       1.877968        51.1021 
 272   0.0000       1.894013        51.5387 
 273   0.0000       1.906056        51.8664 
 274   0.0000       1.918136        52.1951 
 275   0.0000       1.941622        52.8342 
 276   0.0000       1.954249        53.1778 
 277   0.0000       1.955548        53.2132 
 278   0.0000       1.966431        53.5093 
 279   0.0000       2.001035        54.4509 
 280   0.0000       2.012792        54.7709 
 281   0.0000       2.017119        54.8886 
 282   0.0000       2.041527        55.5528 
 283   0.0000       2.058864        56.0245 
 284   0.0000       2.065650        56.2092 
 285   0.0000       2.077557        56.5332 
 286   0.0000       2.092255        56.9332 
 287   0.0000       2.107103        57.3372 
 288   0.0000       2.118027        57.6344 
 289   0.0000       2.129695        57.9519 
 290   0.0000       2.141611        58.2762 
 291   0.0000       2.153234        58.5925 
 292   0.0000       2.157865        58.7185 
 293   0.0000       2.172212        59.1089 
 294   0.0000       2.178802        59.2882 
 295   0.0000       2.190336        59.6021 
 296   0.0000       2.204920        59.9989 
 297   0.0000       2.205183        60.0061 
 298   0.0000       2.230014        60.6818 
 299   0.0000       2.240030        60.9543 
 300   0.0000       2.257523        61.4303 
 301   0.0000       2.262450        61.5644 
 302   0.0000       2.267815        61.7104 
 303   0.0000       2.274221        61.8847 
 304   0.0000       2.277248        61.9671 
 305   0.0000       2.283705        62.1428 
 306   0.0000       2.287792        62.2540 
 307   0.0000       2.313034        62.9409 
 308   0.0000       2.317246        63.0555 
 309   0.0000       2.328280        63.3557 
 310   0.0000       2.334972        63.5378 
 311   0.0000       2.349131        63.9231 
 312   0.0000       2.371621        64.5351 
 313   0.0000       2.383449        64.8570 
 314   0.0000       2.389357        65.0177 
 315   0.0000       2.390783        65.0565 
 316   0.0000       2.407897        65.5222 
 317   0.0000       2.411991        65.6336 
 318   0.0000       2.425505        66.0013 
 319   0.0000       2.433251        66.2121 
 320   0.0000       2.444242        66.5112 
 321   0.0000       2.453117        66.7527 
 322   0.0000       2.467913        67.1553 
 323   0.0000       2.471888        67.2635 
 324   0.0000       2.478272        67.4372 
 325   0.0000       2.481713        67.5309 
 326   0.0000       2.491304        67.7918 
 327   0.0000       2.497965        67.9731 
 328   0.0000       2.512997        68.3821 
 329   0.0000       2.519075        68.5475 
 330   0.0000       2.525901        68.7333 
 331   0.0000       2.535200        68.9863 
 332   0.0000       2.539426        69.1013 
 333   0.0000       2.552409        69.4546 
 334   0.0000       2.563406        69.7538 
 335   0.0000       2.575025        70.0700 
 336   0.0000       2.585940        70.3670 
 337   0.0000       2.595842        70.6365 
 338   0.0000       2.600792        70.7712 
 339   0.0000       2.614649        71.1482 
 340   0.0000       2.622497        71.3618 
 341   0.0000       2.634990        71.7017 
 342   0.0000       2.647180        72.0334 
 343   0.0000       2.653092        72.1943 
 344   0.0000       2.667194        72.5780 
 345   0.0000       2.688014        73.1446 
 346   0.0000       2.700346        73.4801 
 347   0.0000       2.726836        74.2010 
 348   0.0000       2.740723        74.5789 
 349   0.0000       2.771949        75.4286 
 350   0.0000       2.784211        75.7622 
 351   0.0000       2.795198        76.0612 
 352   0.0000       2.806468        76.3679 
 353   0.0000       2.836617        77.1883 
 354   0.0000       2.840598        77.2966 
 355   0.0000       2.861549        77.8667 
 356   0.0000       2.867926        78.0402 
 357   0.0000       2.880253        78.3757 
 358   0.0000       2.891731        78.6880 
 359   0.0000       2.901827        78.9627 
 360   0.0000       2.906583        79.0922 
 361   0.0000       2.911973        79.2388 
 362   0.0000       2.936788        79.9141 
 363   0.0000       2.956022        80.4374 
 364   0.0000       2.958928        80.5165 
 365   0.0000       2.965806        80.7037 
 366   0.0000       2.979163        81.0671 
 367   0.0000       2.988240        81.3142 
 368   0.0000       3.000074        81.6362 
 369   0.0000       3.013902        82.0124 
 370   0.0000       3.017708        82.1160 
 371   0.0000       3.024236        82.2936 
 372   0.0000       3.042128        82.7805 
 373   0.0000       3.045082        82.8609 
 374   0.0000       3.059962        83.2658 
 375   0.0000       3.062971        83.3477 
 376   0.0000       3.079192        83.7891 
 377   0.0000       3.089734        84.0759 
 378   0.0000       3.100964        84.3815 
 379   0.0000       3.103741        84.4571 
 380   0.0000       3.113918        84.7340 
 381   0.0000       3.119016        84.8727 
 382   0.0000       3.133812        85.2753 
 383   0.0000       3.146711        85.6264 
 384   0.0000       3.152463        85.7829 
 385   0.0000       3.158550        85.9485 
 386   0.0000       3.165793        86.1456 
 387   0.0000       3.172509        86.3284 
 388   0.0000       3.180910        86.5570 
 389   0.0000       3.202091        87.1333 
 390   0.0000       3.209393        87.3320 
 391   0.0000       3.212765        87.4238 
 392   0.0000       3.212957        87.4290 
 393   0.0000       3.220010        87.6209 
 394   0.0000       3.244783        88.2950 
 395   0.0000       3.247512        88.3693 
 396   0.0000       3.258588        88.6707 
 397   0.0000       3.266470        88.8852 
 398   0.0000       3.273234        89.0692 
 399   0.0000       3.282500        89.3214 
 400   0.0000       3.304217        89.9123 
 401   0.0000       3.312185        90.1291 
 402   0.0000       3.317263        90.2673 
 403   0.0000       3.326395        90.5158 
 404   0.0000       3.328670        90.5777 
 405   0.0000       3.335750        90.7704 
 406   0.0000       3.349509        91.1448 
 407   0.0000       3.358097        91.3785 
 408   0.0000       3.364719        91.5587 
 409   0.0000       3.374547        91.8261 
 410   0.0000       3.390944        92.2723 
 411   0.0000       3.406410        92.6931 
 412   0.0000       3.417563        92.9966 
 413   0.0000       3.426571        93.2417 
 414   0.0000       3.445215        93.7491 
 415   0.0000       3.449915        93.8770 
 416   0.0000       3.461439        94.1905 
 417   0.0000       3.483466        94.7899 
 418   0.0000       3.498873        95.2092 
 419   0.0000       3.513203        95.5991 
 420   0.0000       3.539145        96.3050 
 421   0.0000       3.572623        97.2160 
 422   0.0000       3.589537        97.6763 
 423   0.0000       3.606131        98.1278 
 424   0.0000       3.610356        98.2428 
 425   0.0000       3.621519        98.5466 
 426   0.0000       3.645980        99.2121 
 427   0.0000       3.664065        99.7043 
 428   0.0000       3.675755       100.0224 
 429   0.0000       3.682781       100.2136 
 430   0.0000       3.691300       100.4454 
 431   0.0000       3.711437       100.9933 
 432   0.0000       3.724816       101.3574 
 433   0.0000       3.735866       101.6581 
 434   0.0000       3.750053       102.0441 
 435   0.0000       3.770978       102.6135 
 436   0.0000       3.778507       102.8184 
 437   0.0000       3.795031       103.2680 
 438   0.0000       3.821641       103.9921 
 439   0.0000       3.841010       104.5192 
 440   0.0000       3.864733       105.1647 
 441   0.0000       3.894751       105.9816 
 442   0.0000       3.907919       106.3399 
 443   0.0000       3.927692       106.8779 
 444   0.0000       3.964600       107.8823 
 445   0.0000       3.980154       108.3055 
 446   0.0000       4.001350       108.8823 
 447   0.0000       4.006103       109.0116 
 448   0.0000       4.031040       109.6902 
 449   0.0000       4.050785       110.2275 
 450   0.0000       4.056866       110.3929 
 451   0.0000       4.069157       110.7274 
 452   0.0000       4.124423       112.2312 
 453   0.0000       4.131286       112.4180 
 454   0.0000       4.166014       113.3630 
 455   0.0000       4.201449       114.3272 
 456   0.0000       4.213486       114.6548 
 457   0.0000       4.244099       115.4878 
 458   0.0000       4.248632       115.6111 
 459   0.0000       4.260951       115.9464 
 460   0.0000       4.276031       116.3567 
 461   0.0000       4.294439       116.8576 
 462   0.0000       4.308946       117.2524 
 463   0.0000       4.324782       117.6833 
 464   0.0000       4.354177       118.4832 
 465   0.0000       4.375820       119.0721 
 466   0.0000       4.386126       119.3526 
 467   0.0000       4.399633       119.7201 
 468   0.0000       4.414311       120.1195 
 469   0.0000       4.421160       120.3059 
 470   0.0000       4.457156       121.2854 
 471   0.0000       4.470291       121.6428 
 472   0.0000       4.477752       121.8458 
 473   0.0000       4.488340       122.1339 
 474   0.0000       4.506563       122.6298 
 475   0.0000       4.574241       124.4714 
 476   0.0000       4.585080       124.7664 
 477   0.0000       4.600910       125.1971 
 478   0.0000       4.619127       125.6928 
 479   0.0000       4.655452       126.6813 
 480   0.0000       4.668617       127.0395 
 481   0.0000       4.680545       127.3641 
 482   0.0000       4.734169       128.8233 
 483   0.0000       4.794586       130.4673 
 484   0.0000       4.796041       130.5069 
 485   0.0000       4.828141       131.3804 
 486   0.0000       4.864958       132.3822 
 487   0.0000       4.873942       132.6267 
 488   0.0000       4.892621       133.1350 
 489   0.0000       4.908237       133.5599 
 490   0.0000       4.919766       133.8736 
 491   0.0000       4.937696       134.3615 
 492   0.0000       4.967983       135.1857 
 493   0.0000       4.989135       135.7613 
 494   0.0000       4.999231       136.0360 
 495   0.0000       5.026017       136.7649 
 496   0.0000       5.038374       137.1011 
 497   0.0000       5.060011       137.6899 
 498   0.0000       5.084714       138.3621 
 499   0.0000       5.100252       138.7849 
 500   0.0000       5.110387       139.0607 
 501   0.0000       5.158184       140.3613 
 502   0.0000       5.168429       140.6401 
 503   0.0000       5.184537       141.0784 
 504   0.0000       5.193621       141.3256 
 505   0.0000       5.249789       142.8540 
 506   0.0000       5.298722       144.1855 
 507   0.0000       5.324847       144.8964 
 508   0.0000       5.364155       145.9661 
 509   0.0000       5.410908       147.2383 
 510   0.0000       5.467523       148.7789 
 511   0.0000       5.532754       150.5539 
 512   0.0000       5.561792       151.3440 
 513   0.0000       5.612906       152.7349 
 514   0.0000       5.637911       153.4154 
 515   0.0000       5.656194       153.9129 
 516   0.0000       5.774826       157.1410 
 517   0.0000       5.786624       157.4620 
 518   0.0000       5.971207       162.4848 
 519   0.0000       6.006522       163.4458 
 520   0.0000       6.186123       168.3330 
 521   0.0000       6.196654       168.6195 
 522   0.0000       6.312675       171.7766 
 523   0.0000       6.339272       172.5004 
 524   0.0000       6.437964       175.1859 
 525   0.0000       6.445200       175.3828 
 526   0.0000       6.538987       177.9349 
 527   0.0000       6.548078       178.1823 
 528   0.0000       6.716915       182.7766 
 529   0.0000       6.733145       183.2182 
 530   0.0000       6.936228       188.7444 
 531   0.0000       6.963022       189.4735 
 532   0.0000       6.966390       189.5651 
 533   0.0000       6.988980       190.1798 
 534   0.0000      22.291630       606.5861 
 535   0.0000      22.313136       607.1713 
 536   0.0000      22.366934       608.6352 
 537   0.0000      22.374609       608.8441 
 538   0.0000      22.438939       610.5946 
 539   0.0000      22.508190       612.4790 
 540   0.0000      22.688464       617.3845 
 541   0.0000      23.211688       631.6221 
 542   0.0000      23.292517       633.8216 
 543   0.0000      31.814493       865.7164 
 544   0.0000      32.381616       881.1486 
 545   0.0000      32.552051       885.7863 
 546   0.0000      43.950751      1195.9607 
 547   0.0000      44.027556      1198.0507 

                 SPIN DOWN ORBITALS
  NO   OCC          E(Eh)            E(eV) 
   0   1.0000     -19.714041      -536.4463 
   1   1.0000     -19.706201      -536.2330 
   2   1.0000     -15.003585      -408.2683 
   3   1.0000     -14.896721      -405.3604 
   4   1.0000     -14.895209      -405.3192 
   5   1.0000     -10.767511      -292.9989 
   6   1.0000     -10.766116      -292.9609 
   7   1.0000     -10.758276      -292.7476 
[...]
     47      -0.000311   0.000007  -0.000310
     48      -0.000609   0.000068   0.003188
     49      -0.000035  -0.000022  -0.000138
     50      -0.000107   0.000018   0.001423
     51       0.000348  -0.000012   0.005314
     52      -0.000027  -0.000036  -0.007941
     53       0.000142  -0.000016  -0.009613
     54      -0.000053   0.000004   0.000002
     55       0.000126   0.000011   0.000007
     56       0.000261  -0.000001   0.000014
     57      -0.000045   0.000009   0.000039
     58      -0.000183  -0.000017   0.000008
     59      -0.000072  -0.000007   0.000007
     60       0.000539   0.000006  -0.000050
     61      -0.001241   0.000020  -0.000022
     62      -0.005055  -0.000019  -0.000084
     63      -0.000163   0.000031   0.000011
     64       0.000043   0.000031  -0.000026
     65      -0.000025   0.000026   0.000032
     66       0.005994   0.000027   0.002608
     67      -0.005776  -0.000045  -0.002269
     68      -0.002242  -0.000058  -0.000838
     69       0.001149   0.000154   0.000223
     70      -0.000066  -0.000064  -0.000322
     71      -0.000013   0.000007  -0.000344
     72      -0.000409  -0.000017   0.000168
     73      -0.001063   0.000008  -0.000187
     74       0.000825   0.000051   0.000488
     75       0.000562   0.000169   0.000142
     76       0.000563   0.000195   0.000267
     77       0.000393   0.000391   0.000144
     78      -0.000312   0.000267  -0.000142
     79      -0.000521  -0.000184   0.000014
     80      -0.000281  -0.000021  -0.000012
     81      -0.000032   0.000942  -0.000080
     82       0.000138   0.000797  -0.000023
     83      -0.000036   0.000014   0.000020
     84       0.000013   0.000487  -0.000022
     85      -0.000336  -0.000715  -0.000060
     86      -0.000321   0.000646   0.000053
     87      -0.000742  -0.007492   0.000167
     88       0.000243   0.001735   0.000030
     89       0.000766  -0.013122  -0.000031
     90      -0.000219  -0.015102   0.000032
     91       0.000235  -0.002645   0.000031
     92       0.000917   0.002785  -0.000152
     93       0.025629  -0.430465  -0.001474
     94      -0.012217   0.206667   0.000724
     95       0.029582  -0.511981  -0.001628
     96      -0.039118  -0.664496   0.007268
     97      -0.014541  -0.244700   0.002709
     98       0.000602   0.019335  -0.000148


-----------
IR SPECTRUM
-----------

 Mode   freq       eps      Int      T**2         TX        TY        TZ
       cm**-1   L/(mol*cm) km/mol    a.u.
----------------------------------------------------------------------------
  6:     27.98   0.001049    5.30  0.011698  ( 0.080541  0.054683  0.047125)
  7:     43.39   0.000096    0.48  0.000690  (-0.012530  0.004243  0.022698)
  8:     60.16   0.000386    1.95  0.002000  ( 0.030636  0.006299 -0.031970)
  9:     67.64   0.000460    2.32  0.002121  ( 0.036259  0.017250 -0.022556)
 10:     85.41   0.000531    2.68  0.001941  (-0.004874  0.041754 -0.013190)
 11:     89.10   0.001846    9.33  0.006465  ( 0.001569 -0.079262  0.013421)
 12:     97.84   0.001708    8.63  0.005446  (-0.020568  0.047928 -0.052212)
 13:    104.99   0.000144    0.73  0.000428  ( 0.002132 -0.014171  0.014904)
 14:    122.78   0.001502    7.59  0.003818  ( 0.033290  0.037803  0.035783)
 15:    152.28   0.000199    1.01  0.000408  (-0.007819  0.001592 -0.018549)
 16:    156.24   0.000620    3.13  0.001238  ( 0.025362 -0.010034  0.022237)
 17:    186.14   0.002350   11.88  0.003940  (-0.031123 -0.054404 -0.003415)
 18:    211.57   0.000226    1.14  0.000334  ( 0.015446 -0.005509  0.008036)
 19:    254.23   0.000627    3.17  0.000769  ( 0.021711 -0.001756  0.017165)
 20:    290.66   0.001109    5.61  0.001191  (-0.028071  0.016409 -0.011565)
 21:    308.77   0.002725   13.77  0.002754  (-0.025729 -0.043974  0.012568)
 22:    353.38   0.001139    5.76  0.001006  ( 0.017638  0.025852  0.005131)
 23:    365.52   0.000165    0.84  0.000141  ( 0.003914 -0.005972 -0.009493)
 24:    367.28   0.000569    2.87  0.000483  ( 0.015481 -0.005408 -0.014640)
 25:    381.89   0.004140   20.92  0.003383  ( 0.030440 -0.028213  0.040744)
 26:    467.61   0.001792    9.06  0.001196  ( 0.033246  0.000535 -0.009499)
 27:    513.69   0.004639   23.44  0.002818  (-0.022185 -0.041102  0.025230)
 28:    548.41   0.002952   14.92  0.001680  ( 0.020931  0.035127 -0.002801)
 29:    567.03   0.015651   79.09  0.008613  (-0.064998 -0.065830 -0.007424)
 30:    653.43   0.042107  212.79  0.020109  ( 0.020560 -0.133504 -0.043167)
 31:    654.57   0.010052   50.80  0.004792  (-0.018249  0.066557  0.005419)
 32:    666.30   0.003348   16.92  0.001568  (-0.021612 -0.028984 -0.016152)
 33:    700.86   0.044417  224.47  0.019777  ( 0.023030  0.135798  0.028386)
 34:    712.85   0.004950   25.02  0.002167  (-0.015632 -0.042253 -0.011727)
 35:    758.16   0.001548    7.82  0.000637  (-0.017245 -0.017037 -0.007049)
 36:    794.93   0.016397   82.86  0.006437  ( 0.011506  0.078334 -0.012973)
 37:    824.24   0.009570   48.37  0.003623  ( 0.007877  0.057749 -0.015049)
 38:    886.41   0.001821    9.20  0.000641  (-0.008655  0.012605 -0.020185)
 39:    890.15   0.004120   20.82  0.001444  (-0.017537 -0.033108 -0.006375)
 40:    934.49   0.003419   17.28  0.001142  ( 0.016224 -0.029611  0.001327)
 41:    994.98   0.001154    5.83  0.000362  ( 0.007914  0.017007  0.003178)
 42:    998.97   0.004761   24.06  0.001487  (-0.002116 -0.038503 -0.000556)
 43:   1021.72   0.001883    9.51  0.000575  ( 0.003924 -0.004558  0.023213)
 44:   1032.76   0.003982   20.12  0.001203  ( 0.017865  0.029639  0.002359)
 45:   1043.97   0.021917  110.76  0.006552  (-0.032871 -0.073963 -0.000729)
 46:   1064.07   0.000741    3.74  0.000217  ( 0.001949  0.014556 -0.001270)
 47:   1073.20   0.001850    9.35  0.000538  ( 0.022035  0.006868 -0.002291)
 48:   1122.31   0.027589  139.43  0.007671  (-0.023907 -0.082544  0.016922)
 49:   1138.80   0.003656   18.48  0.001002  (-0.021582 -0.022826  0.003883)
 50:   1158.23   0.042396  214.25  0.011423  ( 0.002783  0.105000 -0.019745)
 51:   1167.26   0.222266  1123.24  0.059422  ( 0.069491  0.232691 -0.021168)
 52:   1185.33   0.026992  136.40  0.007106  (-0.033811 -0.077212  0.001088)
 53:   1189.66   0.003393   17.15  0.000890  ( 0.021804 -0.014642  0.014153)
 54:   1232.29   0.003608   18.23  0.000914  (-0.024946 -0.006656 -0.015716)
 55:   1249.26   0.003095   15.64  0.000773  (-0.011425 -0.018618 -0.017204)
 56:   1251.85   0.013771   69.59  0.003433  ( 0.039697  0.036797  0.022428)
 57:   1261.64   0.093266  471.33  0.023069  (-0.043859 -0.145332  0.004892)
 58:   1279.72   0.002939   14.85  0.000717  (-0.017469 -0.010717 -0.017221)
 59:   1291.62   0.008225   41.57  0.001987  ( 0.014568  0.038368  0.017405)
 60:   1311.78   0.001382    6.98  0.000329  ( 0.013359  0.008939  0.008383)
 61:   1343.36   0.003326   16.81  0.000773  ( 0.015256  0.022616  0.005325)
 62:   1351.63   0.000366    1.85  0.000084  ( 0.002440  0.008854  0.000313)
 63:   1368.53   0.001406    7.11  0.000321  ( 0.001572  0.007741 -0.016071)
 64:   1384.70   0.010626   53.70  0.002395  (-0.028930 -0.021253 -0.033259)
 65:   1408.01   0.019300   97.53  0.004277  (-0.048764 -0.035803 -0.024854)
 66:   1455.45   0.006219   31.43  0.001333  (-0.015179  0.032675  0.005951)
 67:   1471.73   0.002401   12.14  0.000509  (-0.007670  0.007431 -0.019879)
 68:   1483.99   0.002816   14.23  0.000592  ( 0.007060  0.022331 -0.006601)
 69:   1485.30   0.002852   14.41  0.000599  (-0.006705 -0.009822 -0.021396)
 70:   1488.37   0.013883   70.16  0.002911  (-0.025321 -0.032786 -0.034565)
 71:   1494.84   0.029300  148.07  0.006117  (-0.027841 -0.072819  0.006245)
 72:   1499.34   0.004343   21.95  0.000904  (-0.023414 -0.005291 -0.018104)
 73:   1502.51   0.013201   66.71  0.002742  ( 0.032827  0.033733 -0.022942)
 74:   1510.00   0.014151   71.51  0.002925  (-0.031714 -0.006289 -0.043350)
 75:   1528.84   0.128296  648.36  0.026188  ( 0.112859  0.099147  0.060169)
 76:   1591.23   0.050370  254.55  0.009878  ( 0.052098 -0.070692  0.046548)
 77:   1656.46   0.011281   57.01  0.002125  (-0.013926 -0.032009  0.030113)
 78:   1780.87   0.078749  397.97  0.013799  ( 0.076034 -0.037287 -0.081411)
 79:   1792.74   0.015921   80.46  0.002771  ( 0.048899  0.017018  0.009522)
 80:   3065.86   0.008147   41.17  0.000829  (-0.013127 -0.025623 -0.000649)
 81:   3081.98   0.001298    6.56  0.000131  ( 0.006553 -0.002815  0.008973)
 82:   3087.33   0.004345   21.96  0.000439  ( 0.011086 -0.010259  0.014526)
 83:   3090.65   0.000312    1.58  0.000032  ( 0.000798 -0.003395 -0.004400)
 84:   3092.15   0.001274    6.44  0.000129  (-0.010463  0.003334  0.002817)
 85:   3105.28   0.000902    4.56  0.000091  ( 0.005066 -0.003583 -0.007222)
 86:   3113.41   0.000178    0.90  0.000018  ( 0.001801  0.003683 -0.001007)
 87:   3132.11   0.000123    0.62  0.000012  (-0.000018  0.002683  0.002248)
 88:   3149.34   0.003154   15.94  0.000312  (-0.004528  0.016647 -0.003856)
 89:   3161.80   0.000974    4.92  0.000096  (-0.007835 -0.005821  0.000911)
 90:   3171.30   0.000363    1.84  0.000036  ( 0.004641  0.002227 -0.003042)
 91:   3175.68   0.000864    4.37  0.000085  ( 0.006180 -0.005644  0.003855)
 92:   3187.73   0.000749    3.78  0.000073  ( 0.004352 -0.000414 -0.007362)
 93:   3197.37   0.000035    0.18  0.000003  ( 0.001394 -0.001127  0.000415)
 94:   3199.98   0.000388    1.96  0.000038  (-0.005398 -0.001276 -0.002654)
 95:   3509.43   0.458984  2319.52  0.040814  (-0.046488 -0.190231  0.049646)
 96:   3605.34   0.044862  226.71  0.003883  ( 0.019479  0.041598 -0.042109)
 97:   3639.10   0.025205  127.37  0.002161  (-0.042240 -0.000274 -0.019419)
 98:   3644.22   0.013175   66.58  0.001128  ( 0.022165 -0.023437 -0.009359)

* The epsilon (eps) is given for a Dirac delta lineshape.
** The dipole moment derivative (T) already includes vibrational overlap.

The first frequency considered to be a vibration is 6
The total number of vibrations considered is 93


--------------------------
THERMOCHEMISTRY AT 298.15K
--------------------------

Temperature         ... 298.15 K
Pressure            ... 1.00 atm
Total Mass          ... 201.27 AMU

Throughout the following assumptions are being made:
  (1) The electronic state is orbitally nondegenerate
      but the spin degeneracy is treated
  (2) There are no thermally accessible electronically excited states
  (3) Hindered rotations indicated by low frequency modes are not
      treated as such but are treated as vibrations and this may
      cause some error
  (4) All equations used are the standard statistical mechanics
      equations for an ideal gas
  (5) All vibrations are strictly harmonic

freq.      27.98  E(vib)   ...       0.55 
freq.      43.39  E(vib)   ...       0.53 
freq.      60.16  E(vib)   ...       0.51 
freq.      67.64  E(vib)   ...       0.50 
freq.      85.41  E(vib)   ...       0.48 
freq.      89.10  E(vib)   ...       0.47 
freq.      97.84  E(vib)   ...       0.46 
freq.     104.99  E(vib)   ...       0.46 
freq.     122.78  E(vib)   ...       0.43 
freq.     152.28  E(vib)   ...       0.40 
freq.     156.24  E(vib)   ...       0.40 
freq.     186.14  E(vib)   ...       0.37 
freq.     211.57  E(vib)   ...       0.34 
freq.     254.23  E(vib)   ...       0.30 
freq.     290.66  E(vib)   ...       0.27 
freq.     308.77  E(vib)   ...       0.26 
freq.     353.38  E(vib)   ...       0.22 
freq.     365.52  E(vib)   ...       0.22 
freq.     367.28  E(vib)   ...       0.21 
freq.     381.89  E(vib)   ...       0.21 
freq.     467.61  E(vib)   ...       0.16 
freq.     513.69  E(vib)   ...       0.13 
freq.     548.41  E(vib)   ...       0.12 
freq.     567.03  E(vib)   ...       0.11 
freq.     653.43  E(vib)   ...       0.08 
freq.     654.57  E(vib)   ...       0.08 
freq.     666.30  E(vib)   ...       0.08 
freq.     700.86  E(vib)   ...       0.07 
freq.     712.85  E(vib)   ...       0.07 
freq.     758.16  E(vib)   ...       0.06 
freq.     794.93  E(vib)   ...       0.05 
freq.     824.24  E(vib)   ...       0.04 
freq.     886.41  E(vib)   ...       0.04 
freq.     890.15  E(vib)   ...       0.04 
freq.     934.49  E(vib)   ...       0.03 
freq.     994.98  E(vib)   ...       0.02 
freq.     998.97  E(vib)   ...       0.02 
freq.    1021.72  E(vib)   ...       0.02 
freq.    1032.76  E(vib)   ...       0.02 
freq.    1043.97  E(vib)   ...       0.02 
freq.    1064.07  E(vib)   ...       0.02 
freq.    1073.20  E(vib)   ...       0.02 
freq.    1122.31  E(vib)   ...       0.01 
freq.    1138.80  E(vib)   ...       0.01 
freq.    1158.23  E(vib)   ...       0.01 
freq.    1167.26  E(vib)   ...       0.01 
freq.    1185.33  E(vib)   ...       0.01 
freq.    1189.66  E(vib)   ...       0.01 
freq.    1232.29  E(vib)   ...       0.01 
freq.    1249.26  E(vib)   ...       0.01 
freq.    1251.85  E(vib)   ...       0.01 
freq.    1261.64  E(vib)   ...       0.01 
freq.    1279.72  E(vib)   ...       0.01 
freq.    1291.62  E(vib)   ...       0.01 
freq.    1311.78  E(vib)   ...       0.01 
freq.    1343.36  E(vib)   ...       0.01 
freq.    1351.63  E(vib)   ...       0.01 
freq.    1368.53  E(vib)   ...       0.01 
freq.    1384.70  E(vib)   ...       0.00 
freq.    1408.01  E(vib)   ...       0.00 
freq.    1455.45  E(vib)   ...       0.00 
freq.    1471.73  E(vib)   ...       0.00 
freq.    1483.99  E(vib)   ...       0.00 
freq.    1485.30  E(vib)   ...       0.00 
freq.    1488.37  E(vib)   ...       0.00 
freq.    1494.84  E(vib)   ...       0.00 
freq.    1499.34  E(vib)   ...       0.00 
freq.    1502.51  E(vib)   ...       0.00 
freq.    1510.00  E(vib)   ...       0.00 
freq.    1528.84  E(vib)   ...       0.00 
freq.    1591.23  E(vib)   ...       0.00 
freq.    1656.46  E(vib)   ...       0.00 
freq.    1780.87  E(vib)   ...       0.00 
freq.    1792.74  E(vib)   ...       0.00 
freq.    3065.86  E(vib)   ...       0.00 
freq.    3081.98  E(vib)   ...       0.00 
freq.    3087.33  E(vib)   ...       0.00 
freq.    3090.65  E(vib)   ...       0.00 
freq.    3092.15  E(vib)   ...       0.00 
freq.    3105.28  E(vib)   ...       0.00 
freq.    3113.41  E(vib)   ...       0.00 
freq.    3132.11  E(vib)   ...       0.00 
freq.    3149.34  E(vib)   ...       0.00 
freq.    3161.80  E(vib)   ...       0.00 
freq.    3171.30  E(vib)   ...       0.00 
freq.    3175.68  E(vib)   ...       0.00 
freq.    3187.73  E(vib)   ...       0.00 
freq.    3197.37  E(vib)   ...       0.00 
freq.    3199.98  E(vib)   ...       0.00 
freq.    3509.43  E(vib)   ...       0.00 
freq.    3605.34  E(vib)   ...       0.00 
freq.    3639.10  E(vib)   ...       0.00 
freq.    3644.22  E(vib)   ...       0.00 

------------
INNER ENERGY
------------

The inner energy is: U= E(el) + E(ZPE) + E(vib) + E(rot) + E(trans)
    E(el)   - is the total energy from the electronic structure calculation
              = E(kin-el) + E(nuc-el) + E(el-el) + E(nuc-nuc)
    E(ZPE)  - the the zero temperature vibrational energy from the frequency calculation
    E(vib)  - the the finite temperature correction to E(ZPE) due to population
              of excited vibrational states
    E(rot)  - is the rotational thermal energy
    E(trans)- is the translational thermal energy

Summary of contributions to the inner energy U:
Electronic energy                ...   -668.79698961 Eh
Zero point energy                ...      0.29018784 Eh     182.10 kcal/mol
Thermal vibrational correction   ...      0.01449578 Eh       9.10 kcal/mol
Thermal rotational correction    ...      0.00141627 Eh       0.89 kcal/mol
Thermal translational correction ...      0.00141627 Eh       0.89 kcal/mol
-----------------------------------------------------------------------
Total thermal energy                   -668.48947344 Eh


Summary of corrections to the electronic energy:
(perhaps to be used in another calculation)
Total thermal correction                  0.01732832 Eh      10.87 kcal/mol
Non-thermal (ZPE) correction              0.29018784 Eh     182.10 kcal/mol
-----------------------------------------------------------------------
Total correction                          0.30751616 Eh     192.97 kcal/mol


--------
ENTHALPY
--------

The enthalpy is H = U + kB*T
                kB is Boltzmann's constant
Total free energy                 ...   -668.48947344 Eh 
Thermal Enthalpy correction       ...      0.00094421 Eh       0.59 kcal/mol
-----------------------------------------------------------------------
Total Enthalpy                    ...   -668.48852923 Eh


Note: Only C1 symmetry has been detected, increase convergence thresholds 
      if your molecule has a higher symmetry. Symmetry factor of 1.0 is   
      used for the rotational entropy correction. 
 

Note: Rotational entropy computed according to Herzberg 
Infrared and Raman Spectra, Chapter V,1, Van Nostrand Reinhold, 1945 
Point Group:  C1, Symmetry Number:   1  
Rotational constants in cm-1:     0.019642     0.014201     0.009399 

Vibrational entropy computed according to the QRRHO of S. Grimme
Chem.Eur.J. 2012 18 9955


-------
ENTROPY
-------

The entropy contributions are T*S = T*(S(el)+S(vib)+S(rot)+S(trans))
     S(el)   - electronic entropy
     S(vib)  - vibrational entropy
     S(rot)  - rotational entropy
     S(trans)- translational entropy
The entropies will be listed as multiplied by the temperature to get
units of energy

Electronic entropy                ...      0.00065446 Eh      0.41 kcal/mol
Vibrational entropy               ...      0.02632912 Eh     16.52 kcal/mol
Rotational entropy                ...      0.01557795 Eh      9.78 kcal/mol
Translational entropy             ...      0.01986189 Eh     12.46 kcal/mol
-----------------------------------------------------------------------
Final entropy term                ...      0.06242342 Eh     39.17 kcal/mol

In case the symmetry of your molecule has not been determined correctly
or in case you have a reason to use a different symmetry number we print 
out the resulting rotational entropy values for sn=1,12 :
 --------------------------------------------------------
|  sn= 1 | S(rot)=       0.01557795 Eh      9.78 kcal/mol|
|  sn= 2 | S(rot)=       0.01492349 Eh      9.36 kcal/mol|
|  sn= 3 | S(rot)=       0.01454066 Eh      9.12 kcal/mol|
|  sn= 4 | S(rot)=       0.01426904 Eh      8.95 kcal/mol|
|  sn= 5 | S(rot)=       0.01405835 Eh      8.82 kcal/mol|
|  sn= 6 | S(rot)=       0.01388620 Eh      8.71 kcal/mol|
|  sn= 7 | S(rot)=       0.01374066 Eh      8.62 kcal/mol|
|  sn= 8 | S(rot)=       0.01361458 Eh      8.54 kcal/mol|
|  sn= 9 | S(rot)=       0.01350337 Eh      8.47 kcal/mol|
|  sn=10 | S(rot)=       0.01340389 Eh      8.41 kcal/mol|
|  sn=11 | S(rot)=       0.01331390 Eh      8.35 kcal/mol|
|  sn=12 | S(rot)=       0.01323175 Eh      8.30 kcal/mol|
 --------------------------------------------------------


-------------------
GIBBS FREE ENERGY
-------------------

The Gibbs free energy is G = H - T*S

Total enthalpy                    ...   -668.48852923 Eh 
Total entropy correction          ...     -0.06242342 Eh    -39.17 kcal/mol
-----------------------------------------------------------------------
Final Gibbs free energy         ...   -668.55095265 Eh

For completeness - the Gibbs free energy minus the electronic energy
G-E(el)                           ...      0.24603695 Eh    154.39 kcal/mol


Timings for individual modules:

Sum of individual times         ...     1661.046 sec (=  27.684 min)
GTO integral calculation        ...       29.932 sec (=   0.499 min)   1.8 %
SCF iterations                  ...      597.682 sec (=   9.961 min)  36.0 %
SCF Gradient evaluation         ...      132.716 sec (=   2.212 min)   8.0 %
Geometry relaxation             ...        0.493 sec (=   0.008 min)   0.0 %
Analytical frequency calculation...      900.223 sec (=  15.004 min)  54.2 %
                             ****ORCA TERMINATED NORMALLY****
TOTAL RUN TIME: 0 days 0 hours 28 minutes 6 seconds 257 msec
