33
Energy: -6.685144547121918E+02
 N        -7.838223600683      0.849219271634      0.018621422744
 C        -6.417315259160      0.872380357093      0.152135512078
 C        -6.091483997798      0.907330604340      1.653988973879
 O        -6.831701358234      1.491219958563      2.423271685079
 C        -5.746155317166      2.103125292876     -0.572307126454
 C        -6.164085957870      3.445391085084      0.042880746344
 C        -5.670172145982      4.566644990037     -0.886755318126
 C        -6.127387629147      5.978196440865     -0.254354138919
 N        -5.728018032059      7.016877986412     -1.099898459045
 H        -8.375182776551      1.069247690056      0.850004961456
 C        -8.448875577215      0.504390459088     -1.164018263450
 N        -4.942703461421      0.313647679877      2.024524477767
 H        -4.444366326489     -0.250807576928      1.353406209308
 O        -7.785164885884      0.278779994331     -2.153241447275
 C        -4.530722737912      0.264874738767      3.420194273565
 H        -5.196001176349     -0.382879358511      4.003990642866
 H        -3.509069810797     -0.120393108243      3.471323613781
 H        -4.564630370405      1.271178498871      3.849603937954
 C        -9.964166813971      0.449000609057     -1.127947823994
 H       -10.315997782066     -0.029803672613     -2.044511578757
 H       -10.320751620712     -0.109322054643     -0.254348919884
 H       -10.374122036960      1.465965017094     -1.075178204930
 H        -6.002217909987     -0.011960283545     -0.350823638218
 H        -4.656939567121      1.977358031251     -0.526833107461
 H        -6.057554545705      2.024149613492     -1.621844517178
 H        -5.741142079985      3.569702445958      1.046909717868
 H        -7.256592628897      3.486649668668      0.138125702608
 H        -4.577752742647      4.579247848107     -0.975130976481
 H        -6.108706147715      4.483885702248     -1.887727838417
 H        -5.642487788027      6.065511512327      0.723752495398
 H        -7.217629924251      5.957035780985     -0.158946694923
 H        -6.298303250100      7.304330293398     -1.888143199018
 H        -4.783858220732      7.386832224005     -1.070983970165
