
                                 *****************
                                 * O   R   C   A *
                                 *****************

                                            #,                                       
                                            ###                                      
                                            ####                                     
                                            #####                                    
                                            ######                                   
                                           ########,                                 
                                     ,,################,,,,,                         
                               ,,#################################,,                 
                          ,,##########################################,,             
                       ,#########################################, ''#####,          
                    ,#############################################,,   '####,        
                  ,##################################################,,,,####,       
                ,###########''''           ''''###############################       
              ,#####''   ,,,,##########,,,,          '''####'''          '####       
            ,##' ,,,,###########################,,,                        '##       
           ' ,,###''''                  '''############,,,                           
         ,,##''                                '''############,,,,        ,,,,,,###''
      ,#''                                            '''#######################'''  
     '                                                          ''''####''''         
             ,#######,   #######,   ,#######,      ##                                
            ,#'     '#,  ##    ##  ,#'     '#,    #''#        ######   ,####,        
            ##       ##  ##   ,#'  ##            #'  '#       #        #'  '#        
            ##       ##  #######   ##           ,######,      #####,   #    #        
            '#,     ,#'  ##    ##  '#,     ,#' ,#      #,         ##   #,  ,#        
             '#######'   ##     ##  '#######'  #'      '#     #####' # '####'        



                  #######################################################
                  #                        -***-                        #
                  #          Department of theory and spectroscopy      #
                  #    Directorship and core code : Frank Neese         #
                  #        Max Planck Institute fuer Kohlenforschung    #
                  #                Kaiser Wilhelm Platz 1               #
                  #                 D-45470 Muelheim/Ruhr               #
                  #                      Germany                        #
                  #                                                     #
                  #                  All rights reserved                #
                  #                        -***-                        #
                  #######################################################


                         Program Version 5.0.4 -  RELEASE  -


 With contributions from (in alphabetic order):
   Daniel Aravena         : Magnetic Suceptibility
   Michael Atanasov       : Ab Initio Ligand Field Theory (pilot matlab implementation)
   Alexander A. Auer      : GIAO ZORA, VPT2 properties, NMR spectrum
   Ute Becker             : Parallelization
   Giovanni Bistoni       : ED, misc. LED, open-shell LED, HFLD
   Martin Brehm           : Molecular dynamics
   Dmytro Bykov           : SCF Hessian
   Vijay G. Chilkuri      : MRCI spin determinant printing, contributions to CSF-ICE
   Dipayan Datta          : RHF DLPNO-CCSD density
   Achintya Kumar Dutta   : EOM-CC, STEOM-CC
   Dmitry Ganyushin       : Spin-Orbit,Spin-Spin,Magnetic field MRCI
   Miquel Garcia          : C-PCM and meta-GGA Hessian, CC/C-PCM, Gaussian charge scheme
   Yang Guo               : DLPNO-NEVPT2, F12-NEVPT2, CIM, IAO-localization
   Andreas Hansen         : Spin unrestricted coupled pair/coupled cluster methods
   Benjamin Helmich-Paris : MC-RPA, TRAH-SCF, COSX integrals
   Lee Huntington         : MR-EOM, pCC
   Robert Izsak           : Overlap fitted RIJCOSX, COSX-SCS-MP3, EOM
   Marcus Kettner         : VPT2
   Christian Kollmar      : KDIIS, OOCD, Brueckner-CCSD(T), CCSD density, CASPT2, CASPT2-K
   Simone Kossmann        : Meta GGA functionals, TD-DFT gradient, OOMP2, MP2 Hessian
   Martin Krupicka        : Initial AUTO-CI
   Lucas Lang             : DCDCAS
   Marvin Lechner         : AUTO-CI (C++ implementation), FIC-MRCC
   Dagmar Lenk            : GEPOL surface, SMD
   Dimitrios Liakos       : Extrapolation schemes; Compound Job, initial MDCI parallelization
   Dimitrios Manganas     : Further ROCIS development; embedding schemes
   Dimitrios Pantazis     : SARC Basis sets
   Anastasios Papadopoulos: AUTO-CI, single reference methods and gradients
   Taras Petrenko         : DFT Hessian,TD-DFT gradient, ASA, ECA, R-Raman, ABS, FL, XAS/XES, NRVS
   Peter Pinski           : DLPNO-MP2, DLPNO-MP2 Gradient
   Christoph Reimann      : Effective Core Potentials
   Marius Retegan         : Local ZFS, SOC
   Christoph Riplinger    : Optimizer, TS searches, QM/MM, DLPNO-CCSD(T), (RO)-DLPNO pert. Triples
   Tobias Risthaus        : Range-separated hybrids, TD-DFT gradient, RPA, STAB
   Michael Roemelt        : Original ROCIS implementation
   Masaaki Saitow         : Open-shell DLPNO-CCSD energy and density
   Barbara Sandhoefer     : DKH picture change effects
   Avijit Sen             : IP-ROCIS
   Kantharuban Sivalingam : CASSCF convergence, NEVPT2, FIC-MRCI
   Bernardo de Souza      : ESD, SOC TD-DFT
   Georgi Stoychev        : AutoAux, RI-MP2 NMR, DLPNO-MP2 response
   Willem Van den Heuvel  : Paramagnetic NMR
   Boris Wezisla          : Elementary symmetry handling
   Frank Wennmohs         : Technical directorship


 We gratefully acknowledge several colleagues who have allowed us to
 interface, adapt or use parts of their codes:
   Stefan Grimme, W. Hujo, H. Kruse, P. Pracht,  : VdW corrections, initial TS optimization,
                  C. Bannwarth, S. Ehlert          DFT functionals, gCP, sTDA/sTD-DF
   Ed Valeev, F. Pavosevic, A. Kumar             : LibInt (2-el integral package), F12 methods
   Garnet Chan, S. Sharma, J. Yang, R. Olivares  : DMRG
   Ulf Ekstrom                                   : XCFun DFT Library
   Mihaly Kallay                                 : mrcc  (arbitrary order and MRCC methods)
   Jiri Pittner, Ondrej Demel                    : Mk-CCSD
   Frank Weinhold                                : gennbo (NPA and NBO analysis)
   Christopher J. Cramer and Donald G. Truhlar   : smd solvation model
   Lars Goerigk                                  : TD-DFT with DH, B97 family of functionals
   V. Asgeirsson, H. Jonsson                     : NEB implementation
   FAccTs GmbH                                   : IRC, NEB, NEB-TS, DLPNO-Multilevel, CI-OPT
                                                   MM, QMMM, 2- and 3-layer-ONIOM, Crystal-QMMM,
                                                   LR-CPCM, SF, NACMEs, symmetry and pop. for TD-DFT,
                                                   nearIR, NL-DFT gradient (VV10), updates on ESD,
                                                   ML-optimized integration grids
   S Lehtola, MJT Oliveira, MAL Marques          : LibXC Library
   Liviu Ungur et al                             : ANISO software


 Your calculation uses the libint2 library for the computation of 2-el integrals
 For citations please refer to: http://libint.valeyev.net

 Your ORCA version has been built with support for libXC version: 5.1.0
 For citations please refer to: https://tddft.org/programs/libxc/

 This ORCA versions uses:
   CBLAS   interface :  Fast vector & matrix operations
   LAPACKE interface :  Fast linear algebra routines
   SCALAPACK package :  Parallel linear algebra routines
   Shared memory     :  Shared parallel matrices
   BLAS/LAPACK       :  OpenBLAS 0.3.15  USE64BITINT DYNAMIC_ARCH NO_AFFINITY Zen SINGLE_THREADED
        Core in use  :  Zen
   Copyright (c) 2011-2014, The OpenBLAS Project




***************************************
The coordinates will be read from file: model.xyz
***************************************


================================================================================

----- Orbital basis set information -----
Your calculation utilizes the basis: EPR-II
   V. Barone, in Recent Advances in Density Functional Methods, Part 1 (ed. D. P. Chong), World Scientific, Singapore, 1995, p. 287.

----- AuxJ basis set information -----
Your calculation utilizes the auxiliary basis: def2/J
   F. Weigend, Phys. Chem. Chem. Phys. 8, 1057 (2006).

================================================================================
                                        WARNINGS
                       Please study these warnings very carefully!
================================================================================


WARNING: your system is open-shell and RHF/RKS was chosen
  ===> : WILL SWITCH to UHF/UKS


WARNING: Geometry Optimization
  ===> : Switching off AutoStart
         For restart on a previous wavefunction, please use MOREAD

INFO   : the flag for use of the SHARK integral package has been found!

================================================================================
                                       INPUT FILE
================================================================================
NAME = opt.inp
|  1> ! B3LYP EPR-II OPT
|  2> %pal nprocs 16 end
|  3> *XYZFile 1 2 model.xyz
|  4> 
|  5>                          ****END OF INPUT****
================================================================================

                       *****************************
                       * Geometry Optimization Run *
                       *****************************

Geometry optimization settings:
Update method            Update   .... BFGS
Choice of coordinates    CoordSys .... Z-matrix Internals
Initial Hessian          InHess   .... Almoef's Model

Convergence Tolerances:
Energy Change            TolE     ....  5.0000e-06 Eh
Max. Gradient            TolMAXG  ....  3.0000e-04 Eh/bohr
RMS Gradient             TolRMSG  ....  1.0000e-04 Eh/bohr
Max. Displacement        TolMAXD  ....  4.0000e-03 bohr
RMS Displacement         TolRMSD  ....  2.0000e-03 bohr
Strict Convergence                ....  False
------------------------------------------------------------------------------
                        ORCA OPTIMIZATION COORDINATE SETUP
------------------------------------------------------------------------------

The optimization will be done in new redundant internal coordinates
Making redundant internal coordinates   ...  (new redundants) done
Evaluating the initial hessian          ...  (Almloef) done
Evaluating the coordinates              ...  done
Calculating the B-matrix                .... done
Calculating the G-matrix                .... done
Diagonalizing the G-matrix              .... done
Small eigenvalue found = 5.918e-03
Small eigenvalue found = 6.775e-03
Small eigenvalue found = 1.061e-02
Small eigenvalue found = 2.301e-02
Small eigenvalue found = 2.493e-02
The first mode is                       ....   70
The number of degrees of freedom        ....   93

    -----------------------------------------------------------------
                    Redundant Internal Coordinates


    -----------------------------------------------------------------
         Definition                    Initial Value    Approx d2E/dq
    -----------------------------------------------------------------
      1. B(C   1,N   0)                  1.4274         0.487840   
      2. B(C   2,C   1)                  1.5372         0.363837   
      3. B(O   3,C   2)                  1.2168         1.057249   
      4. B(C   4,C   1)                  1.5780         0.313210   
      5. B(C   5,C   4)                  1.5345         0.367402   
      6. B(C   6,C   5)                  1.5380         0.362781   
      7. B(C   7,C   6)                  1.6129         0.275494   
      8. B(N   8,C   7)                  1.3976         0.544179   
      9. B(H   9,N   0)                  1.0139         0.426597   
     10. B(C  10,N   0)                  1.3749         0.591445   
     11. B(N  11,C   2)                  1.3452         0.659806   
     12. B(H  12,N  11)                  1.0086         0.434879   
     13. B(O  13,C  10)                  1.2124         1.074447   
     14. B(C  14,N  11)                  1.4560         0.439077   
     15. B(H  15,C  14)                  1.0968         0.351199   
     16. B(H  16,C  14)                  1.0931         0.356051   
     17. B(H  17,C  14)                  1.0946         0.354042   
     18. B(C  18,C  10)                  1.5167         0.392234   
     19. B(H  19,C  18)                  1.0923         0.357065   
     20. B(H  20,C  18)                  1.0964         0.351757   
     21. B(H  21,C  18)                  1.0978         0.349987   
     22. B(H  22,C   1)                  1.0988         0.348662   
     23. B(H  23,C   4)                  1.0974         0.350449   
     24. B(H  24,C   4)                  1.0976         0.350180   
     25. B(H  25,C   5)                  1.0965         0.351546   
     26. B(H  26,C   5)                  1.0974         0.350409   
     27. B(H  27,C   6)                  1.0961         0.352171   
     28. B(H  28,C   6)                  1.0960         0.352314   
     29. B(H  29,C   7)                  1.0952         0.353297   
     30. B(H  30,C   7)                  1.0946         0.354048   
     31. B(H  31,N   8)                  1.0145         0.425634   
     32. B(H  32,N   8)                  1.0145         0.425668   
     33. A(C   1,N   0,H   9)          116.5511         0.343605   
     34. A(C   1,N   0,C  10)          121.7796         0.407072   
     35. A(H   9,N   0,C  10)          121.6369         0.354948   
     36. A(N   0,C   1,C   2)          107.6238         0.376313   
     37. A(N   0,C   1,H  22)          108.6747         0.335109   
     38. A(N   0,C   1,C   4)          113.1488         0.366733   
     39. A(C   2,C   1,H  22)          112.6711         0.321214   
     40. A(C   4,C   1,H  22)          104.8865         0.313471   
     41. A(C   2,C   1,C   4)          109.9167         0.351052   
     42. A(C   1,C   2,N  11)          116.1111         0.396636   
     43. A(C   1,C   2,O   3)          119.9764         0.431280   
     44. A(O   3,C   2,N  11)          123.8587         0.477422   
     45. A(C   1,C   4,C   5)          112.4787         0.351631   
     46. A(H  23,C   4,H  24)          108.2384         0.288338   
     47. A(C   1,C   4,H  24)          105.2008         0.313691   
     48. A(C   5,C   4,H  23)          110.7293         0.321996   
     49. A(C   1,C   4,H  23)          108.2853         0.313730   
     50. A(C   5,C   4,H  24)          111.6545         0.321955   
     51. A(C   4,C   5,C   6)          107.9334         0.360511   
     52. A(C   6,C   5,H  26)          110.1669         0.321323   
     53. A(H  25,C   5,H  26)          107.4725         0.288508   
     54. A(C   4,C   5,H  26)          109.8042         0.321990   
     55. A(C   6,C   5,H  25)          110.3002         0.321494   
     56. A(C   4,C   5,H  25)          111.1731         0.322161   
     57. A(C   5,C   6,C   7)          108.0590         0.343383   
     58. A(C   7,C   6,H  28)          108.1055         0.307560   
     59. A(C   7,C   6,H  27)          107.7030         0.307540   
     60. A(C   5,C   6,H  27)          112.1602         0.321587   
     61. A(H  27,C   6,H  28)          109.0284         0.288834   
     62. A(C   5,C   6,H  28)          111.6240         0.321609   
     63. A(N   8,C   7,H  30)          110.5920         0.342150   
     64. A(H  29,C   7,H  30)          111.3881         0.289201   
     65. A(C   6,C   7,H  30)          107.4335         0.307803   
     66. A(C   6,C   7,H  29)          107.1237         0.307698   
     67. A(N   8,C   7,H  29)          110.7657         0.342028   
     68. A(C   6,C   7,N   8)          109.4020         0.365540   
     69. A(C   7,N   8,H  32)          121.3142         0.349853   
     70. A(H  31,N   8,H  32)          116.2315         0.301668   
     71. A(C   7,N   8,H  31)          121.3336         0.349848   
     72. A(N   0,C  10,O  13)          120.3536         0.469311   
     73. A(O  13,C  10,C  18)          124.0221         0.438426   
     74. A(N   0,C  10,C  18)          115.6208         0.394262   
     75. A(C   2,N  11,H  12)          119.0548         0.362804   
     76. A(H  12,N  11,C  14)          118.6363         0.338693   
     77. A(C   2,N  11,C  14)          121.3636         0.407365   
     78. A(H  16,C  14,H  17)          109.5499         0.289552   
     79. A(H  15,C  14,H  17)          108.3812         0.288930   
     80. A(N  11,C  14,H  17)          109.6620         0.330147   
     81. A(H  15,C  14,H  16)          109.5037         0.289186   
     82. A(N  11,C  14,H  16)          108.7297         0.330456   
     83. A(N  11,C  14,H  15)          110.9996         0.329707   
     84. A(H  20,C  18,H  21)          108.1799         0.288481   
     85. A(H  19,C  18,H  21)          109.0342         0.289158   
     86. A(C  10,C  18,H  21)          109.9016         0.325400   
     87. A(H  19,C  18,H  20)          109.9149         0.289387   
     88. A(C  10,C  18,H  20)          111.2523         0.325670   
     89. A(C  10,C  18,H  19)          108.5327         0.326474   
     90. D(C   2,C   1,N   0,H   9)     13.4499         0.020376   
     91. D(C   2,C   1,N   0,C  10)   -164.5121         0.020376   
     92. D(C   4,C   1,N   0,C  10)     73.8500         0.020376   
     93. D(C   4,C   1,N   0,H   9)   -108.1880         0.020376   
     94. D(H  22,C   1,N   0,C  10)    -42.2177         0.020376   
     95. D(H  22,C   1,N   0,H   9)    135.7443         0.020376   
     96. D(O   3,C   2,C   1,N   0)    -33.3119         0.009938   
     97. D(N  11,C   2,C   1,N   0)    149.2538         0.009938   
     98. D(N  11,C   2,C   1,C   4)    -87.1164         0.009938   
     99. D(N  11,C   2,C   1,H  22)     29.4656         0.009938   
    100. D(O   3,C   2,C   1,C   4)     90.3178         0.009938   
    101. D(O   3,C   2,C   1,H  22)   -153.1002         0.009938   
    102. D(C   5,C   4,C   1,N   0)     64.2038         0.008083   
    103. D(C   5,C   4,C   1,C   2)    -56.1365         0.008083   
    104. D(H  24,C   4,C   1,C   2)   -177.8893         0.008083   
    105. D(C   5,C   4,C   1,H  22)   -177.5033         0.008083   
    106. D(H  23,C   4,C   1,H  22)    -54.8092         0.008083   
    107. D(H  23,C   4,C   1,C   2)     66.5576         0.008083   
    108. D(H  23,C   4,C   1,N   0)   -173.1020         0.008083   
    109. D(H  24,C   4,C   1,H  22)     60.7439         0.008083   
    110. D(H  24,C   4,C   1,N   0)    -57.5490         0.008083   
    111. D(H  26,C   5,C   4,H  24)     68.4101         0.010800   
    112. D(H  26,C   5,C   4,H  23)   -170.9061         0.010800   
    113. D(H  26,C   5,C   4,C   1)    -49.5976         0.010800   
    114. D(H  25,C   5,C   4,H  23)    -52.1092         0.010800   
    115. D(H  25,C   5,C   4,C   1)     69.1993         0.010800   
    116. D(C   6,C   5,C   4,H  24)    -51.7013         0.010800   
    117. D(H  25,C   5,C   4,H  24)   -172.7930         0.010800   
    118. D(C   6,C   5,C   4,H  23)     68.9825         0.010800   
    119. D(C   6,C   5,C   4,C   1)   -169.7090         0.010800   
    120. D(C   7,C   6,C   5,C   4)    179.1551         0.010548   
    121. D(H  28,C   6,C   5,H  25)   -177.9531         0.010548   
    122. D(H  28,C   6,C   5,C   4)     60.4130         0.010548   
    123. D(H  27,C   6,C   5,H  26)    177.8366         0.010548   
    124. D(H  27,C   6,C   5,H  25)     59.3535         0.010548   
    125. D(H  27,C   6,C   5,C   4)    -62.2805         0.010548   
    126. D(C   7,C   6,C   5,H  26)     59.2721         0.010548   
    127. D(H  28,C   6,C   5,H  26)    -59.4700         0.010548   
    128. D(C   7,C   6,C   5,H  25)    -59.2110         0.010548   
    129. D(H  30,C   7,C   6,H  28)     62.8716         0.006496   
    130. D(H  30,C   7,C   6,C   5)    -58.0862         0.006496   
    131. D(H  29,C   7,C   6,H  28)   -177.3451         0.006496   
    132. D(H  29,C   7,C   6,H  27)    -59.6714         0.006496   
    133. D(H  29,C   7,C   6,C   5)     61.6971         0.006496   
    134. D(N   8,C   7,C   6,H  28)    -57.2235         0.006496   
    135. D(H  30,C   7,C   6,H  27)   -179.4547         0.006496   
    136. D(N   8,C   7,C   6,H  27)     60.4502         0.006496   
    137. D(N   8,C   7,C   6,C   5)   -178.1813         0.006496   
    138. D(H  32,N   8,C   7,H  30)    159.4288         0.025604   
    139. D(H  32,N   8,C   7,H  29)     35.4350         0.025604   
    140. D(H  32,N   8,C   7,C   6)    -82.4304         0.025604   
    141. D(H  31,N   8,C   7,H  30)    -33.1303         0.025604   
    142. D(H  31,N   8,C   7,H  29)   -157.1241         0.025604   
    143. D(H  31,N   8,C   7,C   6)     85.0106         0.025604   
    144. D(C  18,C  10,N   0,H   9)     -1.2253         0.028130   
    145. D(C  18,C  10,N   0,C   1)    176.6334         0.028130   
    146. D(O  13,C  10,N   0,H   9)    178.1217         0.028130   
    147. D(O  13,C  10,N   0,C   1)     -4.0196         0.028130   
    148. D(C  14,N  11,C   2,O   3)      3.4610         0.035623   
    149. D(C  14,N  11,C   2,C   1)   -179.2155         0.035623   
    150. D(H  12,N  11,C   2,O   3)    172.1829         0.035623   
    151. D(H  12,N  11,C   2,C   1)    -10.4936         0.035623   
    152. D(H  15,C  14,N  11,C   2)     68.1063         0.016439   
    153. D(H  17,C  14,N  11,H  12)    139.6135         0.016439   
    154. D(H  17,C  14,N  11,C   2)    -51.6187         0.016439   
    155. D(H  16,C  14,N  11,H  12)     19.8538         0.016439   
    156. D(H  16,C  14,N  11,C   2)   -171.3784         0.016439   
    157. D(H  15,C  14,N  11,H  12)   -100.6614         0.016439   
    158. D(H  21,C  18,C  10,O  13)   -106.8255         0.011439   
    159. D(H  21,C  18,C  10,N   0)     72.4946         0.011439   
    160. D(H  20,C  18,C  10,O  13)    133.3839         0.011439   
    161. D(H  20,C  18,C  10,N   0)    -47.2960         0.011439   
    162. D(H  19,C  18,C  10,O  13)     12.3298         0.011439   
    163. D(H  19,C  18,C  10,N   0)   -168.3501         0.011439   
    -----------------------------------------------------------------

Number of atoms                         .... 33
Number of degrees of freedom            .... 163

         *************************************************************
         *                GEOMETRY OPTIMIZATION CYCLE   1            *
         *************************************************************
---------------------------------
CARTESIAN COORDINATES (ANGSTROEM)
---------------------------------
  N     -7.838224    0.849219    0.018621
  C     -6.417315    0.872380    0.152136
  C     -6.091484    0.907331    1.653989
  O     -6.831701    1.491220    2.423272
  C     -5.746155    2.103125   -0.572307
  C     -6.164086    3.445391    0.042881
  C     -5.670172    4.566645   -0.886755
  C     -6.127388    5.978196   -0.254354
  N     -5.728018    7.016878   -1.099898
  H     -8.375183    1.069248    0.850005
  C     -8.448876    0.504390   -1.164018
  N     -4.942703    0.313648    2.024524
  H     -4.444366   -0.250808    1.353406
  O     -7.785165    0.278780   -2.153241
  C     -4.530723    0.264875    3.420194
  H     -5.196001   -0.382879    4.003991
  H     -3.509070   -0.120393    3.471324
  H     -4.564630    1.271178    3.849604
  C     -9.964167    0.449001   -1.127948
  H    -10.315998   -0.029804   -2.044512
  H    -10.320752   -0.109322   -0.254349
  H    -10.374122    1.465965   -1.075178
  H     -6.002218   -0.011960   -0.350824
  H     -4.656940    1.977358   -0.526833
  H     -6.057555    2.024150   -1.621845
  H     -5.741142    3.569702    1.046910
  H     -7.256593    3.486650    0.138126
  H     -4.577753    4.579248   -0.975131
  H     -6.108706    4.483886   -1.887728
  H     -5.642488    6.065512    0.723752
  H     -7.217630    5.957036   -0.158947
  H     -6.298303    7.304330   -1.888143
  H     -4.783858    7.386832   -1.070984

----------------------------
CARTESIAN COORDINATES (A.U.)
----------------------------
  NO LB      ZA    FRAG     MASS         X           Y           Z
   0 N     7.0000    0    14.007  -14.812096    1.604792    0.035189
   1 C     6.0000    0    12.011  -12.126968    1.648560    0.287494
   2 C     6.0000    0    12.011  -11.511237    1.714606    3.125586
   3 O     8.0000    0    15.999  -12.910045    2.817997    4.579320
   4 C     6.0000    0    12.011  -10.858660    3.974331   -1.081504
   5 C     6.0000    0    12.011  -11.648434    6.510846    0.081033
   6 C     6.0000    0    12.011  -10.715072    8.629708   -1.675725
   7 C     6.0000    0    12.011  -11.579085   11.297154   -0.480660
   8 N     7.0000    0    14.007  -10.824385   13.259978   -2.078507
   9 H     1.0000    0     1.008  -15.826802    2.020585    1.606277
  10 C     6.0000    0    12.011  -15.966061    0.953160   -2.199676
  11 N     7.0000    0    14.007   -9.340356    0.592708    3.825797
  12 H     1.0000    0     1.008   -8.398635   -0.473958    2.557567
  13 O     8.0000    0    15.999  -14.711830    0.526818   -4.069037
  14 C     6.0000    0    12.011   -8.561825    0.500541    6.463231
  15 H     1.0000    0     1.008   -9.819019   -0.723537    7.566446
  16 H     1.0000    0     1.008   -6.631181   -0.227510    6.559851
  17 H     1.0000    0     1.008   -8.625901    2.402179    7.274697
  18 C     6.0000    0    12.011  -18.829546    0.848488   -2.131512
  19 H     1.0000    0     1.008  -19.494411   -0.056321   -3.863567
  20 H     1.0000    0     1.008  -19.503394   -0.206589   -0.480650
  21 H     1.0000    0     1.008  -19.604250    2.770272   -2.031792
  22 H     1.0000    0     1.008  -11.342548   -0.022602   -0.662961
  23 H     1.0000    0     1.008   -8.800340    3.736665   -0.995570
  24 H     1.0000    0     1.008  -11.447119    3.825088   -3.064842
  25 H     1.0000    0     1.008  -10.849186    6.745760    1.978373
  26 H     1.0000    0     1.008  -13.712973    6.588813    0.261020
  27 H     1.0000    0     1.008   -8.650699    8.653524   -1.842730
  28 H     1.0000    0     1.008  -11.543782    8.473316   -3.567289
  29 H     1.0000    0     1.008  -10.662757   11.462156    1.367694
  30 H     1.0000    0     1.008  -13.639344   11.257166   -0.300366
  31 H     1.0000    0     1.008  -11.902068   13.803184   -3.568074
  32 H     1.0000    0     1.008   -9.040182   13.959090   -2.023866

--------------------------------
INTERNAL COORDINATES (ANGSTROEM)
--------------------------------
 N      0   0   0     0.000000000000     0.00000000     0.00000000
 C      1   0   0     1.427355233619     0.00000000     0.00000000
 C      2   1   0     1.537189432499   107.62383621     0.00000000
 O      3   2   1     1.216817327464   119.97636324   326.68806756
 C      2   1   3     1.577975253677   113.14884098   238.36212278
 C      5   2   1     1.534535628850   112.47868951    64.20381533
 C      6   5   2     1.537980619289   107.93342742   190.29098923
 C      7   6   5     1.612902584734   108.05897751   179.15509166
 N      8   7   6     1.397605318191   109.40197315   181.81874609
 H      1   2   3     1.013871910008   116.55109519    13.44990642
 C      1   2   3     1.374932497894   121.77961122   195.48785221
 N      3   2   1     1.345158985101   116.11107208   149.25382925
 H     12   3   2     1.008637381444   119.05483766   349.50640175
 O     11   1   2     1.212425037275   120.35361634   355.98042878
 C     12   3   2     1.456022353960   121.36355629   180.78452950
 H     15  12   3     1.096813098025   110.99961258    68.10631656
 H     15  12   3     1.093078326038   108.72969163   188.62156133
 H     15  12   3     1.094618492906   109.66203785   308.38126592
 C     11   1   2     1.516732225635   115.62083215   176.63340691
 H     19  11   1     1.092303843627   108.53273348   191.64993899
 H     19  11   1     1.096381305232   111.25229260   312.70404835
 H     19  11   1     1.097754309837   109.90160108    72.49461135
 H      2   1   3     1.098786642093   108.67472568   122.29442076
 H      5   2   1     1.097395207136   108.28530403   186.89795912
 H      5   2   1     1.097604378634   105.20076539   302.45098609
 H      6   5   2     1.096544123117   111.17310476    69.19929301
 H      6   5   2     1.097426397829   109.80424403   310.40240255
 H      7   6   5     1.096060783809   112.16018871   297.71952747
 H      7   6   5     1.095950344116   111.62396672    60.41296106
 H      8   7   6     1.095191474454   107.12368994    61.69708387
 H      8   7   6     1.094613455029   107.43347156   301.91381924
 H      9   8   7     1.014486978134   121.33364457    85.01056376
 H      9   8   7     1.014465344359   121.31415019   277.56961279

---------------------------
INTERNAL COORDINATES (A.U.)
---------------------------
 N      0   0   0     0.000000000000     0.00000000     0.00000000
 C      1   0   0     2.697310487359     0.00000000     0.00000000
 C      2   1   0     2.904867043381   107.62383621     0.00000000
 O      3   2   1     2.299451503917   119.97636324   326.68806756
 C      2   1   3     2.981941075554   113.14884098   238.36212278
 C      5   2   1     2.899852081270   112.47868951    64.20381533
 C      6   5   2     2.906362169735   107.93342742   190.29098923
 C      7   6   5     3.047944165842   108.05897751   179.15509166
 N      8   7   6     2.641091294693   109.40197315   181.81874609
 H      1   2   3     1.915940244791   116.55109519    13.44990642
 C      1   2   3     2.598245873648   121.77961122   195.48785221
 N      3   2   1     2.541982088425   116.11107208   149.25382925
 H     12   3   2     1.906048419365   119.05483766   349.50640175
 O     11   1   2     2.291151278359   120.35361634   355.98042878
 C     12   3   2     2.751483493851   121.36355629   180.78452950
 H     15  12   3     2.072676375364   110.99961258    68.10631656
 H     15  12   3     2.065618679136   108.72969163   188.62156133
 H     15  12   3     2.068529172718   109.66203785   308.38126592
 C     11   1   2     2.866208524942   115.62083215   176.63340691
 H     19  11   1     2.064155119484   108.53273348   191.64993899
 H     19  11   1     2.071860405239   111.25229260   312.70404835
 H     19  11   1     2.074455007924   109.90160108    72.49461135
 H      2   1   3     2.076405833166   108.67472568   122.29442076
 H      5   2   1     2.073776402166   108.28530403   186.89795912
 H      5   2   1     2.074171679011   105.20076539   302.45098609
 H      6   5   2     2.072168086452   111.17310476    69.19929301
 H      6   5   2     2.073835344032   109.80424403   310.40240255
 H      7   6   5     2.071254707530   112.16018871   297.71952747
 H      7   6   5     2.071046006757   111.62396672    60.41296106
 H      8   7   6     2.069611950924   107.12368994    61.69708387
 H      8   7   6     2.068519652510   107.43347156   301.91381924
 H      9   8   7     1.917102555102   121.33364457    85.01056376
 H      9   8   7     1.917061673192   121.31415019   277.56961279

---------------------
BASIS SET INFORMATION
---------------------
There are 4 groups of distinct atoms

 Group   1 Type N   : 10s5p1d contracted to 6s2p1d pattern {511111/41/1}
 Group   2 Type C   : 10s5p1d contracted to 6s2p1d pattern {511111/41/1}
 Group   3 Type O   : 10s5p1d contracted to 6s2p1d pattern {511111/41/1}
 Group   4 Type H   : 6s1p contracted to 4s1p pattern {3111/1}

Atom   0N    basis set group =>   1
Atom   1C    basis set group =>   2
Atom   2C    basis set group =>   2
Atom   3O    basis set group =>   3
Atom   4C    basis set group =>   2
Atom   5C    basis set group =>   2
Atom   6C    basis set group =>   2
Atom   7C    basis set group =>   2
Atom   8N    basis set group =>   1
Atom   9H    basis set group =>   4
Atom  10C    basis set group =>   2
Atom  11N    basis set group =>   1
Atom  12H    basis set group =>   4
Atom  13O    basis set group =>   3
Atom  14C    basis set group =>   2
Atom  15H    basis set group =>   4
Atom  16H    basis set group =>   4
Atom  17H    basis set group =>   4
Atom  18C    basis set group =>   2
Atom  19H    basis set group =>   4
Atom  20H    basis set group =>   4
Atom  21H    basis set group =>   4
Atom  22H    basis set group =>   4
Atom  23H    basis set group =>   4
Atom  24H    basis set group =>   4
Atom  25H    basis set group =>   4
Atom  26H    basis set group =>   4
Atom  27H    basis set group =>   4
Atom  28H    basis set group =>   4
Atom  29H    basis set group =>   4
Atom  30H    basis set group =>   4
Atom  31H    basis set group =>   4
Atom  32H    basis set group =>   4
---------------------------------
AUXILIARY/J BASIS SET INFORMATION
---------------------------------
There are 4 groups of distinct atoms

 Group   1 Type N   : 12s5p4d2f1g contracted to 6s4p3d1f1g pattern {711111/2111/211/2/1}
 Group   2 Type C   : 12s5p4d2f1g contracted to 6s4p3d1f1g pattern {711111/2111/211/2/1}
 Group   3 Type O   : 12s5p4d2f1g contracted to 6s4p3d1f1g pattern {711111/2111/211/2/1}
 Group   4 Type H   : 5s2p1d contracted to 3s1p1d pattern {311/2/1}

Atom   0N    basis set group =>   1
Atom   1C    basis set group =>   2
Atom   2C    basis set group =>   2
Atom   3O    basis set group =>   3
Atom   4C    basis set group =>   2
Atom   5C    basis set group =>   2
Atom   6C    basis set group =>   2
Atom   7C    basis set group =>   2
Atom   8N    basis set group =>   1
Atom   9H    basis set group =>   4
Atom  10C    basis set group =>   2
Atom  11N    basis set group =>   1
Atom  12H    basis set group =>   4
Atom  13O    basis set group =>   3
Atom  14C    basis set group =>   2
Atom  15H    basis set group =>   4
Atom  16H    basis set group =>   4
Atom  17H    basis set group =>   4
Atom  18C    basis set group =>   2
Atom  19H    basis set group =>   4
Atom  20H    basis set group =>   4
Atom  21H    basis set group =>   4
Atom  22H    basis set group =>   4
Atom  23H    basis set group =>   4
Atom  24H    basis set group =>   4
Atom  25H    basis set group =>   4
Atom  26H    basis set group =>   4
Atom  27H    basis set group =>   4
Atom  28H    basis set group =>   4
Atom  29H    basis set group =>   4
Atom  30H    basis set group =>   4
Atom  31H    basis set group =>   4
Atom  32H    basis set group =>   4


           ************************************************************
           *        Program running with 16 parallel MPI-processes    *
           *              working on a common directory               *
           ************************************************************
------------------------------------------------------------------------------
                           ORCA GTO INTEGRAL CALCULATION
                           -- RI-GTO INTEGRALS CHOSEN --
------------------------------------------------------------------------------
------------------------------------------------------------------------------
                   ___                                                        
                  /   \      - P O W E R E D   B Y -                         
                 /     \                                                     
                 |  |  |   _    _      __       _____    __    __             
                 |  |  |  | |  | |    /  \     |  _  \  |  |  /  |          
                  \  \/   | |  | |   /    \    | | | |  |  | /  /          
                 / \  \   | |__| |  /  /\  \   | |_| |  |  |/  /          
                |  |  |   |  __  | /  /__\  \  |    /   |      \           
                |  |  |   | |  | | |   __   |  |    \   |  |\   \          
                \     /   | |  | | |  |  |  |  | |\  \  |  | \   \       
                 \___/    |_|  |_| |__|  |__|  |_| \__\ |__|  \__/        
                                                                              
                      - O R C A' S   B I G   F R I E N D -                    
                                      &                                       
                       - I N T E G R A L  F E E D E R -                       
                                                                              
 v1 FN, 2020, v2 2021                                                         
------------------------------------------------------------------------------


Reading SHARK input file opt.SHARKINP.tmp ... ok
----------------------
SHARK INTEGRAL PACKAGE
----------------------

Number of atoms                             ...     33
Number of basis functions                   ...    371
Number of shells                            ...    221
Maximum angular momentum                    ...      2
Integral batch strategy                     ... SHARK/LIBINT Hybrid
RI-J (if used) integral strategy            ... SPLIT-RIJ (Revised 2003 algorithm where possible)
Printlevel                                  ...      1
Contraction scheme used                     ... SEGMENTED contraction
Coulomb Range Separation                    ... NOT USED
Exchange Range Separation                   ... NOT USED
Finite Nucleus Model                        ... NOT USED
Auxiliary Coulomb fitting basis             ... AVAILABLE
   # of basis functions in Aux-J            ...    895
   # of shells in Aux-J                     ...    305
   Maximum angular momentum in Aux-J        ...      4
Auxiliary J/K fitting basis                 ... NOT available
Auxiliary Correlation fitting basis         ... NOT available
Auxiliary 'external' fitting basis          ... NOT available
Integral threshold                          ...     2.500000e-11
Primitive cut-off                           ...     2.500000e-12
Primitive pair pre-selection threshold      ...     2.500000e-12

Calculating pre-screening integrals         ... done (  0.0 sec) Dimension = 221
Organizing shell pair data                  ... done (  0.1 sec)
Shell pair information
Total number of shell pairs                 ...     24531
Shell pairs after pre-screening             ...     15974
Total number of primitive shell pairs       ...     64184
Primitive shell pairs kept                  ...     30433
          la=0 lb=0:   7529 shell pairs
          la=1 lb=0:   5461 shell pairs
          la=1 lb=1:    935 shell pairs
          la=2 lb=0:   1454 shell pairs
          la=2 lb=1:    515 shell pairs
          la=2 lb=2:     80 shell pairs

Calculating one electron integrals          ... done (  0.0 sec)
Calculating RI/J V-Matrix + Cholesky decomp.... done (  0.1 sec)
Calculating Nuclear repulsion               ... done (  0.0 sec) ENN=    939.416947113114 Eh

SHARK setup successfully completed in   0.3 seconds

Maximum memory used throughout the entire GTOINT-calculation: 22.9 MB


           ************************************************************
           *        Program running with 16 parallel MPI-processes    *
           *              working on a common directory               *
           ************************************************************
-------------------------------------------------------------------------------
                                 ORCA SCF
-------------------------------------------------------------------------------

------------
SCF SETTINGS
------------
Hamiltonian:
 Density Functional     Method          .... DFT(GTOs)
 Exchange Functional    Exchange        .... B88
   X-Alpha parameter    XAlpha          ....  0.666667
   Becke's b parameter  XBeta           ....  0.004200
 Correlation Functional Correlation     .... LYP
 LDA part of GGA corr.  LDAOpt          .... VWN-5
 Gradients option       PostSCFGGA      .... off
 Hybrid DFT is turned on
   Fraction HF Exchange ScalHFX         ....  0.200000
   Scaling of DF-GGA-X  ScalDFX         ....  0.720000
   Scaling of DF-GGA-C  ScalDFC         ....  0.810000
   Scaling of DF-LDA-C  ScalLDAC        ....  1.000000
   Perturbative correction              ....  0.000000
   Density functional embedding theory  .... OFF
   NL short-range parameter             ....  4.800000
 RI-approximation to the Coulomb term is turned on
   Number of AuxJ basis functions       .... 895
   RIJ-COSX (HFX calculated with COS-X)).... on


General Settings:
 Integral files         IntName         .... opt
 Hartree-Fock type      HFTyp           .... UHF
 Total Charge           Charge          ....    1
 Multiplicity           Mult            ....    2
 Number of Electrons    NEL             ....  109
 Basis Dimension        Dim             ....  371
 Nuclear Repulsion      ENuc            ....    939.4169471131 Eh

Convergence Acceleration:
 DIIS                   CNVDIIS         .... on
   Start iteration      DIISMaxIt       ....    12
   Startup error        DIISStart       ....  0.200000
   # of expansion vecs  DIISMaxEq       ....     5
   Bias factor          DIISBfac        ....   1.050
   Max. coefficient     DIISMaxC        ....  10.000
 Trust-Rad. Augm. Hess. CNVTRAH         .... auto
   Auto Start mean grad. ratio tolernc. ....  1.125000
   Auto Start start iteration           ....    20
   Auto Start num. interpolation iter.  ....    10
   Max. Number of Micro iterations      ....    16
   Max. Number of Macro iterations      .... Maxiter - #DIIS iter
   Number of Davidson start vectors     ....     2
   Converg. threshold I  (grad. norm)   ....   1.000e-05
   Converg. threshold II (energy diff.) ....   1.000e-08
   Grad. Scal. Fac. for Micro threshold ....   0.100
   Minimum threshold for Micro iter.    ....   0.010
   NR start threshold (gradient norm)   ....   0.001
   Initial trust radius                 ....   0.400
   Minimum AH scaling param. (alpha)    ....   1.000
   Maximum AH scaling param. (alpha)    .... 1000.000
   Orbital update algorithm             .... Taylor
   White noise on init. David. guess    .... on
   Maximum white noise                  ....   0.010
   Quad. conv. algorithm                .... NR
 SOSCF                  CNVSOSCF        .... off
 Level Shifting         CNVShift        .... on
   Level shift para.    LevelShift      ....    0.2500
   Turn off err/grad.   ShiftErr        ....    0.0010
 Zerner damping         CNVZerner       .... off
 Static damping         CNVDamp         .... on
   Fraction old density DampFac         ....    0.7000
   Max. Damping (<1)    DampMax         ....    0.9800
   Min. Damping (>=0)   DampMin         ....    0.0000
   Turn off err/grad.   DampErr         ....    0.1000
 Fernandez-Rico         CNVRico         .... off

SCF Procedure:
 Maximum # iterations   MaxIter         ....   125
 SCF integral mode      SCFMode         .... Direct
   Integral package                     .... SHARK and LIBINT hybrid scheme
 Reset frequency        DirectResetFreq ....    20
 Integral Threshold     Thresh          ....  2.500e-11 Eh
 Primitive CutOff       TCut            ....  2.500e-12 Eh

Convergence Tolerance:
 Convergence Check Mode ConvCheckMode   .... Total+1el-Energy
 Convergence forced     ConvForced      .... 0
 Energy Change          TolE            ....  1.000e-08 Eh
 1-El. energy change                    ....  1.000e-05 Eh
 DIIS Error             TolErr          ....  5.000e-07


Diagonalization of the overlap matrix:
Smallest eigenvalue                        ... 1.040e-03
Time for diagonalization                   ...    0.018 sec
Threshold for overlap eigenvalues          ... 1.000e-08
Number of eigenvalues below threshold      ... 0
Time for construction of square roots      ...    0.012 sec
Total time needed                          ...    0.031 sec

Time for model grid setup =    0.124 sec

------------------------------
INITIAL GUESS: MODEL POTENTIAL
------------------------------
Loading Hartree-Fock densities                     ... done
Calculating cut-offs                               ... done
Initializing the effective Hamiltonian             ... done
Setting up the integral package (SHARK)            ... done
Starting the Coulomb interaction                   ... done (   0.1 sec)
Reading the grid                                   ... done
Mapping shells                                     ... done
Starting the XC term evaluation                    ... done (   0.0 sec)
  promolecular density results
     # of electrons  =    109.989074493
     EX              =    -88.073801816
     EC              =     -3.688845585
     EX+EC           =    -91.762647401
Transforming the Hamiltonian                       ... done (   0.0 sec)
Diagonalizing the Hamiltonian                      ... done (   0.0 sec)
Back transforming the eigenvectors                 ... done (   0.0 sec)
Now organizing SCF variables                       ... done
                      ------------------
                      INITIAL GUESS DONE (   0.3 sec)
                      ------------------
-------------------
DFT GRID GENERATION
-------------------

General Integration Accuracy     IntAcc      ... 4.388
Radial Grid Type                 RadialGrid  ... OptM3 with GC (2021)
Angular Grid (max. ang.)         AngularGrid ... 4 (Lebedev-302)
Angular grid pruning method      GridPruning ... 4 (adaptive)
Weight generation scheme         WeightScheme... Becke
Basis function cutoff            BFCut       ... 1.0000e-11
Integration weight cutoff        WCut        ... 1.0000e-14
Angular grids for H and He will be reduced by one unit
Partially contracted basis set               ... off
Rotationally invariant grid construction     ... off

Total number of grid points                  ...   144690
Total number of batches                      ...     2275
Average number of points per batch           ...       63
Average number of grid points per atom       ...     4385
Time for grid setup =    0.618 sec

--------------------
COSX GRID GENERATION
--------------------

GRIDX 1
-------
General Integration Accuracy     IntAcc      ... 3.816
Radial Grid Type                 RadialGrid  ... OptM3 with GC (2021)
Angular Grid (max. ang.)         AngularGrid ... 1 (Lebedev-50)
Angular grid pruning method      GridPruning ... 4 (adaptive)
Weight generation scheme         WeightScheme... Becke
Basis function cutoff            BFCut       ... 1.0000e-11
Integration weight cutoff        WCut        ... 1.0000e-14
Angular grids for H and He will be reduced by one unit
Partially contracted basis set               ... on
Rotationally invariant grid construction     ... off

Total number of grid points                  ...    18471
Total number of batches                      ...      310
Average number of points per batch           ...       59
Average number of grid points per atom       ...      560
UseSFitting                                  ... on

GRIDX 2
-------
General Integration Accuracy     IntAcc      ... 4.020
Radial Grid Type                 RadialGrid  ... OptM3 with GC (2021)
Angular Grid (max. ang.)         AngularGrid ... 2 (Lebedev-110)
Angular grid pruning method      GridPruning ... 4 (adaptive)
Weight generation scheme         WeightScheme... Becke
Basis function cutoff            BFCut       ... 1.0000e-11
Integration weight cutoff        WCut        ... 1.0000e-14
Angular grids for H and He will be reduced by one unit
Partially contracted basis set               ... on
Rotationally invariant grid construction     ... off

Total number of grid points                  ...    38975
Total number of batches                      ...      626
Average number of points per batch           ...       62
Average number of grid points per atom       ...     1181
UseSFitting                                  ... on

GRIDX 3
-------
General Integration Accuracy     IntAcc      ... 4.338
Radial Grid Type                 RadialGrid  ... OptM3 with GC (2021)
Angular Grid (max. ang.)         AngularGrid ... 3 (Lebedev-194)
Angular grid pruning method      GridPruning ... 4 (adaptive)
Weight generation scheme         WeightScheme... Becke
Basis function cutoff            BFCut       ... 1.0000e-11
Integration weight cutoff        WCut        ... 1.0000e-14
Angular grids for H and He will be reduced by one unit
Partially contracted basis set               ... on
Rotationally invariant grid construction     ... off

Total number of grid points                  ...    84895
Total number of batches                      ...     1343
Average number of points per batch           ...       63
Average number of grid points per atom       ...     2573
UseSFitting                                  ... on

Time for X-Grid setup             =    0.737 sec

--------------
SCF ITERATIONS
--------------
ITER       Energy         Delta-E        Max-DP      RMS-DP      [F,P]     Damp
               ***  Starting incremental Fock matrix formation  ***
  0   -668.1520314789   0.000000000000 0.06671732  0.00086823  0.1273195 0.7000
  1   -668.3605158437  -0.208484364801 0.04270528  0.00060027  0.0496463 0.7000
                               ***Turning on DIIS***
  2   -668.4369780483  -0.076462204553 0.06761821  0.00093601  0.0198381 0.0000
  3   -668.5589965509  -0.122018502652 0.03546782  0.00046619  0.0277593 0.0000
  4   -668.5880654021  -0.029068851189 0.01324062  0.00016913  0.0085913 0.0000
  5   -668.5899394753  -0.001874073187 0.00586469  0.00006851  0.0066363 0.0000
  6   -668.5904169406  -0.000477465280 0.00232424  0.00002549  0.0013409 0.0000
  7   -668.5904595288  -0.000042588267 0.00544590  0.00005419  0.0006031 0.0000
               *** Restarting incremental Fock matrix formation ***
                                   *** Resetting DIIS ***
  8   -668.5904320028   0.000027526026 0.00470556  0.00004080  0.0019277 0.0000
  9   -668.5904303983   0.000001604501 0.00145526  0.00001248  0.0026799 0.0000
 10   -668.5904978572  -0.000067458879 0.00053843  0.00000767  0.0011983 0.0000
 11   -668.5905160438  -0.000018186620 0.00151688  0.00001514  0.0005821 0.0000
 12   -668.5905223746  -0.000006330821 0.00096494  0.00000735  0.0003544 0.0000
 13   -668.5905254644  -0.000003089781 0.00019370  0.00000273  0.0001209 0.0000
 14   -668.5905260784  -0.000000613978 0.00030858  0.00000338  0.0000700 0.0000
 15   -668.5905263738  -0.000000295379 0.00017429  0.00000161  0.0000638 0.0000
 16   -668.5905265471  -0.000000173349 0.00019534  0.00000175  0.0000383 0.0000
 17   -668.5905266367  -0.000000089625 0.00016089  0.00000138  0.0000182 0.0000
 18   -668.5905266849  -0.000000048168 0.00003447  0.00000028  0.0000108 0.0000
 19   -668.5905266875  -0.000000002604 0.00009824  0.00000086  0.0000134 0.0000
 20   -668.5905267031  -0.000000015566 0.00002863  0.00000031  0.0000092 0.0000
 21   -668.5905267035  -0.000000000397 0.00002529  0.00000026  0.0000112 0.0000
 22   -668.5905267065  -0.000000003042 0.00001501  0.00000017  0.0000046 0.0000
 23   -668.5905266994   0.000000007151 0.00000842  0.00000010  0.0000053 0.0000
 24   -668.5905266954   0.000000003957 0.00002038  0.00000018  0.0000030 0.0000
 25   -668.5905266954  -0.000000000033 0.00000578  0.00000005  0.0000022 0.0000
 26   -668.5905266992  -0.000000003802 0.00001457  0.00000013  0.0000021 0.0000
 27   -668.5905267061  -0.000000006881 0.00000569  0.00000005  0.0000016 0.0000
               *** Restarting incremental Fock matrix formation ***
                                   *** Resetting DIIS ***
 28   -668.5905267039   0.000000002212 0.00002857  0.00000023  0.0000022 0.0000

 WARNING: the maximum gradient error descreased on average only by a factor   1.1
          during the last 20 iterations

                      *** Initiating the TRAH-SCF procedure ***


TRAH GRIDX
----------

General Integration Accuracy     IntAcc      ... 3.067
Radial Grid Type                 RadialGrid  ... OptM3 with GC (2021)
Angular Grid (max. ang.)         AngularGrid ... 1 (Lebedev-50)
Angular grid pruning method      GridPruning ... 4 (adaptive)
Weight generation scheme         WeightScheme... Becke
Basis function cutoff            BFCut       ... 1.0000e-11
Integration weight cutoff        WCut        ... 1.0000e-14
Angular grids for H and He will be reduced by one unit
Partially contracted basis set               ... on
Rotationally invariant grid construction     ... off

Total number of grid points                  ...     9606
Total number of batches                      ...      170
Average number of points per batch           ...       56
Average number of grid points per atom       ...      291


TRAH GRID
---------

General Integration Accuracy     IntAcc      ... 3.467
Radial Grid Type                 RadialGrid  ... OptM3 with GC (2021)
Angular Grid (max. ang.)         AngularGrid ... 1 (Lebedev-50)
Angular grid pruning method      GridPruning ... 4 (adaptive)
Weight generation scheme         WeightScheme... Becke
Basis function cutoff            BFCut       ... 1.0000e-11
Integration weight cutoff        WCut        ... 1.0000e-14
Angular grids for H and He will be reduced by one unit
Partially contracted basis set               ... off
Rotationally invariant grid construction     ... off

Total number of grid points                  ...    20309
Total number of batches                      ...      330
Average number of points per batch           ...       61
Average number of grid points per atom       ...      615

 --------------------------------------------------------------------------------------------
   Iter.        energy            ||Error||_2        Shift      TRadius  Mac/Mic        Rej.
 --------------------------------------------------------------------------------------------
    0       -668.590526700371     7.354495e-05                     0.400 (TRAH MAcro)   No
    0     dE    -2.199926e-09     7.200693e-05    -2.2020e-09      0.000 (TRAH MIcro)
    0     dE    -3.683556e-09     8.635627e-06    -3.6837e-09      0.000 (TRAH MIcro)
    0     dE    -3.761934e-09     6.895984e-06    -3.7620e-09      0.000 (TRAH MIcro)
    0     dE    -3.902797e-09     9.448168e-06    -3.9028e-09      0.000 (TRAH MIcro)
    0     dE    -3.942557e-09     3.167644e-06    -3.9426e-09      0.000 (TRAH MIcro)
    0     dE    -3.948176e-09     1.463680e-06    -3.9482e-09      0.000 (TRAH MIcro)
    0     dE    -3.948807e-09     8.757354e-07    -3.9488e-09      0.000 (TRAH MIcro)
    1       -668.590526704278     8.908029e-07                           (NR   MAcro)

               *****************************************************
               *                     SUCCESS                       *
               *           SCF CONVERGED AFTER  38 CYCLES          *
               *****************************************************

Old exchange energy                            =    -17.867665623 Eh
New exchange energy                            =    -17.867689090 Eh
Exchange energy change after final integration =     -0.000023467 Eh
Total energy after final integration           =   -668.590550171 Eh
Final COS-X integration done in                =     2.337 sec

----------------
TOTAL SCF ENERGY
----------------

Total Energy       :         -668.59055017 Eh          -18193.27380 eV

Components:
Nuclear Repulsion  :          939.41694711 Eh           25562.83472 eV
Electronic Energy  :        -1608.00749728 Eh          -43756.10852 eV
One Electron Energy:        -2757.80645218 Eh          -75043.72871 eV
Two Electron Energy:         1149.79895490 Eh           31287.62019 eV
Max COSX asymmetry :            0.00000141 Eh               0.00004 eV

Virial components:
Potential Energy   :        -1332.82114384 Eh          -36267.90715 eV
Kinetic Energy     :          664.23059367 Eh           18074.63335 eV
Virial Ratio       :            2.00656392


DFT components:
N(Alpha)           :       54.999934217668 electrons
N(Beta)            :       53.999931709790 electrons
N(Total)           :      108.999865927458 electrons
E(X)               :      -71.023862974538 Eh       
E(C)               :       -4.318743102409 Eh       
E(XC)              :      -75.342606076947 Eh       
DFET-embed. en.    :        0.000000000000 Eh       

---------------
SCF CONVERGENCE
---------------

  Last Energy change         ...   -3.9067e-09  Tolerance :   1.0000e-08
  Last Orbital Gradient      ...    8.9080e-07  Tolerance :   1.0000e-05
  Last Orbital Rotation      ...    1.7972e-04

             **** THE GBW FILE WAS UPDATED (opt.gbw) ****
             **** DENSITY opt.scfp WAS UPDATED ****
             **** ENERGY FILE WAS UPDATED (opt.en.tmp) ****
----------------------
UHF SPIN CONTAMINATION
----------------------

Warning: in a DFT calculation there is little theoretical justification to 
         calculate <S**2> as in Hartree-Fock theory. We will do it anyways
         but you should keep in mind that the values have only limited relevance

Expectation value of <S**2>     :     0.754989
Ideal value S*(S+1) for S=0.5   :     0.750000
Deviation                       :     0.004989

             **** THE GBW FILE WAS UPDATED (opt.gbw) ****
             **** DENSITY opt.scfp WAS UPDATED ****
----------------
ORBITAL ENERGIES
----------------
                 SPIN UP ORBITALS
  NO   OCC          E(Eh)            E(eV) 
   0   1.0000     -19.243422      -523.6401 
   1   1.0000     -19.241858      -523.5976 
   2   1.0000     -14.549108      -395.9014 
   3   1.0000     -14.500083      -394.5673 
   4   1.0000     -14.490717      -394.3124 
   5   1.0000     -10.420669      -283.5608 
   6   1.0000     -10.417399      -283.4718 
   7   1.0000     -10.391261      -282.7606 
   8   1.0000     -10.374530      -282.3053 
   9   1.0000     -10.350851      -281.6610 
  10   1.0000     -10.330866      -281.1172 
  11   1.0000     -10.328790      -281.0607 
  12   1.0000     -10.325186      -280.9626 
  13   1.0000     -10.295986      -280.1680 
  14   1.0000      -1.178997       -32.0821 
  15   1.0000      -1.170027       -31.8381 
  16   1.0000      -1.102908       -30.0117 
  17   1.0000      -1.064076       -28.9550 
  18   1.0000      -1.052737       -28.6464 
  19   1.0000      -0.947602       -25.7856 
  20   1.0000      -0.903123       -24.5752 
  21   1.0000      -0.856577       -23.3086 
  22   1.0000      -0.839540       -22.8450 
  23   1.0000      -0.809317       -22.0226 
  24   1.0000      -0.771589       -20.9960 
  25   1.0000      -0.741794       -20.1852 
  26   1.0000      -0.718319       -19.5465 
  27   1.0000      -0.716719       -19.5029 
  28   1.0000      -0.705090       -19.1865 
  29   1.0000      -0.664233       -18.0747 
  30   1.0000      -0.647144       -17.6097 
  31   1.0000      -0.618690       -16.8354 
  32   1.0000      -0.611083       -16.6284 
  33   1.0000      -0.601545       -16.3689 
  34   1.0000      -0.591700       -16.1010 
  35   1.0000      -0.578877       -15.7521 
  36   1.0000      -0.570481       -15.5236 
  37   1.0000      -0.566447       -15.4138 
  38   1.0000      -0.556121       -15.1328 
  39   1.0000      -0.547355       -14.8943 
  40   1.0000      -0.531392       -14.4599 
  41   1.0000      -0.525086       -14.2883 
  42   1.0000      -0.514516       -14.0007 
  43   1.0000      -0.508207       -13.8290 
  44   1.0000      -0.507366       -13.8061 
  45   1.0000      -0.502069       -13.6620 
  46   1.0000      -0.492659       -13.4059 
  47   1.0000      -0.490630       -13.3507 
  48   1.0000      -0.480727       -13.0812 
  49   1.0000      -0.472011       -12.8441 
  50   1.0000      -0.431505       -11.7419 
  51   1.0000      -0.402561       -10.9543 
  52   1.0000      -0.391830       -10.6622 
  53   1.0000      -0.381076       -10.3696 
  54   1.0000      -0.380502       -10.3540 
  55   0.0000      -0.120689        -3.2841 
  56   0.0000      -0.114106        -3.1050 
  57   0.0000      -0.099800        -2.7157 
  58   0.0000      -0.095642        -2.6026 
  59   0.0000      -0.088253        -2.4015 
  60   0.0000      -0.078549        -2.1374 
  61   0.0000      -0.070059        -1.9064 
  62   0.0000      -0.062402        -1.6980 
  63   0.0000      -0.035748        -0.9727 
  64   0.0000      -0.033874        -0.9218 
  65   0.0000      -0.027370        -0.7448 
  66   0.0000      -0.025817        -0.7025 
  67   0.0000      -0.018292        -0.4977 
  68   0.0000      -0.006409        -0.1744 
  69   0.0000      -0.000695        -0.0189 
  70   0.0000       0.014146         0.3849 
  71   0.0000       0.020287         0.5520 
  72   0.0000       0.044927         1.2225 
  73   0.0000       0.047901         1.3034 
  74   0.0000       0.053381         1.4526 
  75   0.0000       0.054615         1.4861 
  76   0.0000       0.066122         1.7993 
  77   0.0000       0.073357         1.9962 
  78   0.0000       0.077675         2.1136 
  79   0.0000       0.084509         2.2996 
  80   0.0000       0.087307         2.3758 
  81   0.0000       0.088204         2.4002 
  82   0.0000       0.092404         2.5144 
  83   0.0000       0.095083         2.5873 
  84   0.0000       0.103574         2.8184 
  85   0.0000       0.107072         2.9136 
  86   0.0000       0.114115         3.1052 
  87   0.0000       0.123542         3.3617 
  88   0.0000       0.128661         3.5010 
  89   0.0000       0.130888         3.5617 
  90   0.0000       0.141321         3.8455 
  91   0.0000       0.142623         3.8810 
  92   0.0000       0.148803         4.0491 
  93   0.0000       0.151102         4.1117 
  94   0.0000       0.158967         4.3257 
  95   0.0000       0.165456         4.5023 
  96   0.0000       0.167964         4.5705 
  97   0.0000       0.175320         4.7707 
  98   0.0000       0.178975         4.8702 
  99   0.0000       0.189005         5.1431 
 100   0.0000       0.198004         5.3880 
 101   0.0000       0.202782         5.5180 
 102   0.0000       0.206441         5.6175 
 103   0.0000       0.208542         5.6747 
 104   0.0000       0.229867         6.2550 
 105   0.0000       0.239790         6.5250 
 106   0.0000       0.247275         6.7287 
 107   0.0000       0.254468         6.9244 
 108   0.0000       0.259472         7.0606 
 109   0.0000       0.267788         7.2869 
 110   0.0000       0.274813         7.4780 
 111   0.0000       0.285938         7.7808 
 112   0.0000       0.289388         7.8747 
 113   0.0000       0.305641         8.3169 
 114   0.0000       0.312100         8.4927 
 115   0.0000       0.323484         8.8025 
 116   0.0000       0.333828         9.0839 
 117   0.0000       0.345795         9.4096 
 118   0.0000       0.351308         9.5596 
 119   0.0000       0.364327         9.9138 
 120   0.0000       0.373898        10.1743 
 121   0.0000       0.384448        10.4614 
 122   0.0000       0.402130        10.9425 
 123   0.0000       0.403653        10.9839 
 124   0.0000       0.416266        11.3272 
 125   0.0000       0.424732        11.5575 
 126   0.0000       0.443102        12.0574 
 127   0.0000       0.457195        12.4409 
 128   0.0000       0.463871        12.6226 
 129   0.0000       0.474427        12.9098 
 130   0.0000       0.488587        13.2951 
 131   0.0000       0.516348        14.0505 
 132   0.0000       0.524207        14.2644 
 133   0.0000       0.557857        15.1801 
 134   0.0000       0.567407        15.4399 
 135   0.0000       0.576873        15.6975 
 136   0.0000       0.585114        15.9218 
 137   0.0000       0.597835        16.2679 
 138   0.0000       0.613408        16.6917 
 139   0.0000       0.642348        17.4792 
 140   0.0000       0.664759        18.0890 
 141   0.0000       0.677296        18.4302 
 142   0.0000       0.685858        18.6631 
 143   0.0000       0.705523        19.1982 
 144   0.0000       0.708739        19.2858 
 145   0.0000       0.714304        19.4372 
 146   0.0000       0.725466        19.7409 
 147   0.0000       0.729865        19.8606 
 148   0.0000       0.733553        19.9610 
 149   0.0000       0.739650        20.1269 
 150   0.0000       0.749648        20.3990 
 151   0.0000       0.750829        20.4311 
 152   0.0000       0.761958        20.7339 
 153   0.0000       0.771280        20.9876 
 154   0.0000       0.777184        21.1482 
 155   0.0000       0.785438        21.3728 
 156   0.0000       0.800965        21.7954 
 157   0.0000       0.803863        21.8742 
 158   0.0000       0.815194        22.1826 
 159   0.0000       0.818970        22.2853 
 160   0.0000       0.830344        22.5948 
 161   0.0000       0.831677        22.6311 
 162   0.0000       0.842581        22.9278 
 163   0.0000       0.845025        22.9943 
 164   0.0000       0.864307        23.5190 
 165   0.0000       0.869034        23.6476 
 166   0.0000       0.882941        24.0261 
 167   0.0000       0.894303        24.3352 
 168   0.0000       0.898320        24.4445 
 169   0.0000       0.905924        24.6514 
 170   0.0000       0.919683        25.0259 
 171   0.0000       0.923608        25.1326 
 172   0.0000       0.952882        25.9292 
 173   0.0000       0.955387        25.9974 
 174   0.0000       0.968761        26.3613 
 175   0.0000       0.991855        26.9898 
 176   0.0000       1.002408        27.2769 
 177   0.0000       1.018546        27.7160 
 178   0.0000       1.022105        27.8129 
 179   0.0000       1.031425        28.0665 
 180   0.0000       1.042923        28.3794 
 181   0.0000       1.048084        28.5198 
 182   0.0000       1.060279        28.8517 
 183   0.0000       1.068201        29.0672 
 184   0.0000       1.088930        29.6313 
 185   0.0000       1.101719        29.9793 
 186   0.0000       1.111309        30.2403 
 187   0.0000       1.140183        31.0259 
 188   0.0000       1.162138        31.6234 
 189   0.0000       1.200894        32.6780 
 190   0.0000       1.210855        32.9490 
 191   0.0000       1.231262        33.5044 
 192   0.0000       1.239561        33.7302 
 193   0.0000       1.256902        34.2020 
 194   0.0000       1.264279        34.4028 
 195   0.0000       1.292986        35.1839 
 196   0.0000       1.301407        35.4131 
 197   0.0000       1.307934        35.5907 
 198   0.0000       1.312266        35.7086 
 199   0.0000       1.326569        36.0978 
 200   0.0000       1.348438        36.6929 
 201   0.0000       1.357922        36.9509 
 202   0.0000       1.375387        37.4262 
 203   0.0000       1.383643        37.6508 
 204   0.0000       1.389765        37.8174 
 205   0.0000       1.398984        38.0683 
 206   0.0000       1.403012        38.1779 
 207   0.0000       1.407823        38.3088 
 208   0.0000       1.412999        38.4497 
 209   0.0000       1.437317        39.1114 
 210   0.0000       1.450126        39.4599 
 211   0.0000       1.459025        39.7021 
 212   0.0000       1.469377        39.9838 
 213   0.0000       1.483655        40.3723 
 214   0.0000       1.486216        40.4420 
 215   0.0000       1.491702        40.5913 
 216   0.0000       1.510170        41.0938 
 217   0.0000       1.519830        41.3567 
 218   0.0000       1.522994        41.4428 
 219   0.0000       1.525634        41.5146 
 220   0.0000       1.541543        41.9475 
 221   0.0000       1.553720        42.2789 
 222   0.0000       1.559735        42.4425 
 223   0.0000       1.569048        42.6960 
 224   0.0000       1.582205        43.0540 
 225   0.0000       1.593979        43.3744 
 226   0.0000       1.596432        43.4411 
 227   0.0000       1.619646        44.0728 
 228   0.0000       1.623027        44.1648 
 229   0.0000       1.625586        44.2345 
 230   0.0000       1.656191        45.0672 
 231   0.0000       1.673503        45.5383 
 232   0.0000       1.676491        45.6196 
 233   0.0000       1.695505        46.1370 
 234   0.0000       1.709219        46.5102 
 235   0.0000       1.734648        47.2022 
 236   0.0000       1.738074        47.2954 
 237   0.0000       1.744085        47.4590 
 238   0.0000       1.748970        47.5919 
 239   0.0000       1.783956        48.5439 
 240   0.0000       1.789798        48.7029 
 241   0.0000       1.815395        49.3994 
 242   0.0000       1.815712        49.4080 
 243   0.0000       1.847939        50.2850 
 244   0.0000       1.880679        51.1759 
 245   0.0000       1.898141        51.6510 
 246   0.0000       1.900618        51.7185 
 247   0.0000       1.917818        52.1865 
 248   0.0000       1.926087        52.4115 
 249   0.0000       1.943505        52.8855 
 250   0.0000       1.965562        53.4857 
 251   0.0000       1.971641        53.6511 
 252   0.0000       2.009158        54.6720 
 253   0.0000       2.020635        54.9843 
 254   0.0000       2.043037        55.5939 
 255   0.0000       2.058946        56.0268 
 256   0.0000       2.081688        56.6456 
 257   0.0000       2.084992        56.7355 
 258   0.0000       2.101549        57.1860 
 259   0.0000       2.110942        57.4417 
 260   0.0000       2.119278        57.6685 
 261   0.0000       2.134298        58.0772 
 262   0.0000       2.144971        58.3676 
 263   0.0000       2.157129        58.6985 
 264   0.0000       2.172703        59.1223 
 265   0.0000       2.181155        59.3522 
 266   0.0000       2.192315        59.6559 
 267   0.0000       2.221088        60.4389 
 268   0.0000       2.235796        60.8391 
 269   0.0000       2.256817        61.4111 
 270   0.0000       2.271285        61.8048 
 271   0.0000       2.282269        62.1037 
 272   0.0000       2.293553        62.4107 
 273   0.0000       2.297962        62.5307 
 274   0.0000       2.320448        63.1426 
 275   0.0000       2.326450        63.3059 
 276   0.0000       2.351498        63.9875 
 277   0.0000       2.364728        64.3475 
 278   0.0000       2.374955        64.6258 
 279   0.0000       2.384675        64.8903 
 280   0.0000       2.392499        65.1032 
 281   0.0000       2.398556        65.2680 
 282   0.0000       2.423002        65.9332 
 283   0.0000       2.441095        66.4256 
 284   0.0000       2.454329        66.7857 
 285   0.0000       2.480760        67.5049 
 286   0.0000       2.496986        67.9464 
 287   0.0000       2.509828        68.2959 
 288   0.0000       2.538438        69.0744 
 289   0.0000       2.583197        70.2924 
 290   0.0000       2.597238        70.6744 
 291   0.0000       2.630532        71.5804 
 292   0.0000       2.637713        71.7758 
 293   0.0000       2.641634        71.8825 
 294   0.0000       2.671749        72.7020 
 295   0.0000       2.698497        73.4298 
 296   0.0000       2.773453        75.4695 
 297   0.0000       2.869195        78.0748 
 298   0.0000       2.914882        79.3180 
 299   0.0000       2.985273        81.2334 
 300   0.0000       2.998731        81.5996 
 301   0.0000       3.265375        88.8554 
 302   0.0000       3.310108        90.0726 
 303   0.0000       3.324799        90.4724 
 304   0.0000       3.335638        90.7673 
 305   0.0000       4.734033       128.8196 
 306   0.0000       4.865398       132.3942 
 307   0.0000       4.870651       132.5371 
 308   0.0000       4.879221       132.7704 
 309   0.0000       4.892352       133.1277 
 310   0.0000       4.899680       133.3271 
 311   0.0000       4.915659       133.7619 
 312   0.0000       4.921312       133.9157 
 313   0.0000       4.937542       134.3573 
 314   0.0000       4.957588       134.9028 
 315   0.0000       4.979654       135.5033 
 316   0.0000       4.991749       135.8324 
 317   0.0000       5.025894       136.7615 
 318   0.0000       5.058628       137.6523 
 319   0.0000       5.110391       139.0608 
 320   0.0000       5.133312       139.6845 
 321   0.0000       5.145386       140.0131 
 322   0.0000       5.174599       140.8080 
 323   0.0000       5.183107       141.0395 
 324   0.0000       5.214919       141.9052 
 325   0.0000       5.251407       142.8980 
 326   0.0000       5.267164       143.3268 
 327   0.0000       5.350928       145.6061 
 328   0.0000       5.457866       148.5161 
 329   0.0000       5.508701       149.8994 
 330   0.0000       5.579900       151.8368 
 331   0.0000       5.613095       152.7401 
 332   0.0000       5.712728       155.4512 
 333   0.0000       7.062244       192.1734 
 334   0.0000       7.164406       194.9534 
 335   0.0000       7.213126       196.2791 
 336   0.0000       8.963281       243.9033 
 337   0.0000       9.009054       245.1488 
 338   0.0000      29.465656       801.8013 
 339   0.0000      29.508660       802.9715 
 340   0.0000      29.654445       806.9385 
 341   0.0000      29.771949       810.1359 
 342   0.0000      29.829787       811.7098 
 343   0.0000      29.912053       813.9483 
 344   0.0000      29.971411       815.5635 
 345   0.0000      30.006021       816.5054 
 346   0.0000      30.134829       820.0104 
 347   0.0000      36.338346       988.8167 
 348   0.0000      36.474807       992.5300 
 349   0.0000      36.498427       993.1727 
 350   0.0000      36.501243       993.2493 
 351   0.0000      36.511186       993.5199 
 352   0.0000      36.514682       993.6150 
 353   0.0000      36.528922       994.0025 
 354   0.0000      36.533878       994.1374 
 355   0.0000      36.544385       994.4233 
 356   0.0000      36.572496       995.1882 
 357   0.0000      36.592287       995.7267 
 358   0.0000      36.609902       996.2061 
 359   0.0000      36.663831       997.6736 
 360   0.0000      36.673179       997.9279 
 361   0.0000      36.719364       999.1847 
 362   0.0000      36.744813       999.8772 
 363   0.0000      36.789843      1001.1025 
 364   0.0000      36.806904      1001.5668 
 365   0.0000      36.819479      1001.9090 
 366   0.0000      40.986877      1115.3096 
 367   0.0000      41.097631      1118.3234 
 368   0.0000      41.161831      1120.0704 
 369   0.0000      53.500219      1455.8150 
 370   0.0000      53.542782      1456.9732 

                 SPIN DOWN ORBITALS
  NO   OCC          E(Eh)            E(eV) 
   0   1.0000     -19.242598      -523.6177 
   1   1.0000     -19.239806      -523.5417 
   2   1.0000     -14.539302      -395.6345 
   3   1.0000     -14.496568      -394.4717 
   4   1.0000     -14.489936      -394.2912 
   5   1.0000     -10.420752      -283.5631 
   6   1.0000     -10.418030      -283.4890 
   7   1.0000     -10.390800      -282.7481 
   8   1.0000     -10.373932      -282.2890 
   9   1.0000     -10.348636      -281.6007 
  10   1.0000     -10.329871      -281.0901 
  11   1.0000     -10.328293      -281.0471 
  12   1.0000     -10.325177      -280.9624 
  13   1.0000     -10.295954      -280.1671 
  14   1.0000      -1.176624       -32.0176 
  15   1.0000      -1.166844       -31.7514 
  16   1.0000      -1.082954       -29.4687 
  17   1.0000      -1.057141       -28.7663 
  18   1.0000      -1.050962       -28.5981 
  19   1.0000      -0.942370       -25.6432 
  20   1.0000      -0.897523       -24.4228 
  21   1.0000      -0.852197       -23.1894 
  22   1.0000      -0.838086       -22.8055 
  23   1.0000      -0.805847       -21.9282 
  24   1.0000      -0.767751       -20.8916 
  25   1.0000      -0.738736       -20.1020 
  26   1.0000      -0.715642       -19.4736 
  27   1.0000      -0.712187       -19.3796 
  28   1.0000      -0.702648       -19.1200 
  29   1.0000      -0.662787       -18.0354 
  30   1.0000      -0.641103       -17.4453 
  31   1.0000      -0.616280       -16.7698 
  32   1.0000      -0.606842       -16.5130 
  33   1.0000      -0.594183       -16.1686 
  34   1.0000      -0.589966       -16.0538 
  35   1.0000      -0.576545       -15.6886 
  36   1.0000      -0.567352       -15.4384 
  37   1.0000      -0.555594       -15.1185 
  38   1.0000      -0.550767       -14.9871 
  39   1.0000      -0.544044       -14.8042 
  40   1.0000      -0.529496       -14.4083 
  41   1.0000      -0.519518       -14.1368 
  42   1.0000      -0.513011       -13.9597 
  43   1.0000      -0.507375       -13.8064 
  44   1.0000      -0.502919       -13.6851 
  45   1.0000      -0.500681       -13.6242 
  46   1.0000      -0.489035       -13.3073 
  47   1.0000      -0.486260       -13.2318 
  48   1.0000      -0.477798       -13.0016 
  49   1.0000      -0.462880       -12.5956 
  50   1.0000      -0.392683       -10.6854 
  51   1.0000      -0.384663       -10.4672 
  52   1.0000      -0.377227       -10.2649 
  53   1.0000      -0.366605        -9.9758 
  54   0.0000      -0.334108        -9.0915 
  55   0.0000      -0.118198        -3.2163 
  56   0.0000      -0.112177        -3.0525 
  57   0.0000      -0.098565        -2.6821 
  58   0.0000      -0.091893        -2.5005 
  59   0.0000      -0.087344        -2.3768 
  60   0.0000      -0.077394        -2.1060 
  61   0.0000      -0.069158        -1.8819 
  62   0.0000      -0.061940        -1.6855 
  63   0.0000      -0.034995        -0.9523 
  64   0.0000      -0.032878        -0.8947 
  65   0.0000      -0.025576        -0.6960 
  66   0.0000      -0.024972        -0.6795 
  67   0.0000      -0.016713        -0.4548 
  68   0.0000      -0.004125        -0.1123 
  69   0.0000       0.000185         0.0050 
  70   0.0000       0.016409         0.4465 
  71   0.0000       0.022554         0.6137 
  72   0.0000       0.045991         1.2515 
  73   0.0000       0.049126         1.3368 
  74   0.0000       0.054400         1.4803 
  75   0.0000       0.055975         1.5232 
  76   0.0000       0.068313         1.8589 
  77   0.0000       0.075115         2.0440 
  78   0.0000       0.079043         2.1509 
  79   0.0000       0.085569         2.3284 
  80   0.0000       0.088763         2.4154 
  81   0.0000       0.089551         2.4368 
  82   0.0000       0.094890         2.5821 
  83   0.0000       0.097180         2.6444 
  84   0.0000       0.104852         2.8532 
  85   0.0000       0.108331         2.9478 
  86   0.0000       0.115935         3.1547 
  87   0.0000       0.125444         3.4135 
  88   0.0000       0.130478         3.5505 
  89   0.0000       0.131900         3.5892 
  90   0.0000       0.141861         3.8602 
  91   0.0000       0.143461         3.9038 
  92   0.0000       0.150152         4.0858 
  93   0.0000       0.152123         4.1395 
  94   0.0000       0.160469         4.3666 
  95   0.0000       0.166316         4.5257 
  96   0.0000       0.168939         4.5971 
  97   0.0000       0.176924         4.8143 
  98   0.0000       0.180857         4.9214 
  99   0.0000       0.189947         5.1687 
 100   0.0000       0.199088         5.4175 
 101   0.0000       0.203753         5.5444 
 102   0.0000       0.207312         5.6413 
 103   0.0000       0.209148         5.6912 
 104   0.0000       0.230778         6.2798 
 105   0.0000       0.240572         6.5463 
 106   0.0000       0.248306         6.7567 
 107   0.0000       0.255147         6.9429 
 108   0.0000       0.260948         7.1007 
 109   0.0000       0.268931         7.3180 
 110   0.0000       0.276355         7.5200 
 111   0.0000       0.287222         7.8157 
 112   0.0000       0.291008         7.9187 
 113   0.0000       0.306722         8.3463 
 114   0.0000       0.313557         8.5323 
 115   0.0000       0.325491         8.8571 
 116   0.0000       0.337536         9.1848 
 117   0.0000       0.346952         9.4410 
 118   0.0000       0.358453         9.7540 
[...]
      py      :     0.922210
      dz2     :     0.046555  d :     0.212264
      dxz     :     0.018993
      dyz     :     0.048832
      dx2y2   :     0.063544
      dxy     :     0.034340
  8 N s       :     3.094259  s :     3.094259
      pz      :     1.222552  p :     3.680864
      px      :     1.188551
      py      :     1.269761
      dz2     :     0.013885  d :     0.049818
      dxz     :     0.006905
      dyz     :     0.008285
      dx2y2   :     0.012585
      dxy     :     0.008157
  9 H s       :     0.743339  s :     0.743339
      pz      :     0.072095  p :     0.150781
      px      :     0.034491
      py      :     0.044195
 10 C s       :     2.848711  s :     2.848711
      pz      :     0.936129  p :     2.756760
      px      :     1.030845
      py      :     0.789786
      dz2     :     0.152872  d :     0.474213
      dxz     :     0.134699
      dyz     :     0.084677
      dx2y2   :     0.056257
      dxy     :     0.045707
 11 N s       :     3.067334  s :     3.067334
      pz      :     1.151822  p :     3.778802
      px      :     1.225178
      py      :     1.401803
      dz2     :     0.019589  d :     0.081341
      dxz     :     0.025292
      dyz     :     0.014334
      dx2y2   :     0.011622
      dxy     :     0.010503
 12 H s       :     0.766532  s :     0.766532
      pz      :     0.051082  p :     0.144224
      px      :     0.041703
      py      :     0.051439
 13 O s       :     3.585154  s :     3.585154
      pz      :     1.501385  p :     4.501107
      px      :     1.643379
      py      :     1.356343
      dz2     :     0.009829  d :     0.032785
      dxz     :     0.012284
      dyz     :     0.005777
      dx2y2   :     0.002554
      dxy     :     0.002341
 14 C s       :     2.856353  s :     2.856353
      pz      :     0.870512  p :     2.957404
      px      :     1.028921
      py      :     1.057972
      dz2     :     0.049218  d :     0.153109
      dxz     :     0.030154
      dyz     :     0.040031
      dx2y2   :     0.024793
      dxy     :     0.008913
 15 H s       :     0.875163  s :     0.875163
      pz      :     0.017499  p :     0.080373
      px      :     0.017348
      py      :     0.045526
 16 H s       :     0.878570  s :     0.878570
      pz      :     0.012712  p :     0.080067
      px      :     0.048617
      py      :     0.018738
 17 H s       :     0.860179  s :     0.860179
      pz      :     0.024015  p :     0.083542
      px      :     0.026593
      py      :     0.032934
 18 C s       :     2.863882  s :     2.863882
      pz      :     1.033528  p :     3.051892
      px      :     0.969910
      py      :     1.048454
      dz2     :     0.022231  d :     0.104859
      dxz     :     0.018866
      dyz     :     0.012621
      dx2y2   :     0.036102
      dxy     :     0.015039
 19 H s       :     0.848278  s :     0.848278
      pz      :     0.017621  p :     0.082607
      px      :     0.018369
      py      :     0.046616
 20 H s       :     0.876597  s :     0.876597
      pz      :     0.040131  p :     0.082057
      px      :     0.021561
      py      :     0.020366
 21 H s       :     0.853664  s :     0.853664
      pz      :     0.035642  p :     0.082304
      px      :     0.020130
      py      :     0.026531
 22 H s       :     0.838888  s :     0.838888
      pz      :     0.026608  p :     0.083608
      px      :     0.017106
      py      :     0.039894
 23 H s       :     0.863344  s :     0.863344
      pz      :     0.017324  p :     0.081589
      px      :     0.048624
      py      :     0.015641
 24 H s       :     0.849246  s :     0.849246
      pz      :     0.049811  p :     0.084171
      px      :     0.018660
      py      :     0.015700
 25 H s       :     0.860698  s :     0.860698
      pz      :     0.046790  p :     0.082089
      px      :     0.019159
      py      :     0.016139
 26 H s       :     0.865381  s :     0.865381
      pz      :     0.016589  p :     0.080980
      px      :     0.048517
      py      :     0.015874
 27 H s       :     0.865951  s :     0.865951
      pz      :     0.016882  p :     0.081630
      px      :     0.049689
      py      :     0.015060
 28 H s       :     0.865192  s :     0.865192
      pz      :     0.047549  p :     0.081847
      px      :     0.019004
      py      :     0.015295
 29 H s       :     0.856611  s :     0.856611
      pz      :     0.048157  p :     0.080254
      px      :     0.018417
      py      :     0.013680
 30 H s       :     0.858147  s :     0.858147
      pz      :     0.015172  p :     0.080224
      px      :     0.051641
      py      :     0.013411
 31 H s       :     0.766410  s :     0.766410
      pz      :     0.073088  p :     0.142325
      px      :     0.034584
      py      :     0.034653
 32 H s       :     0.766870  s :     0.766870
      pz      :     0.026914  p :     0.142232
      px      :     0.078925
      py      :     0.036394

SPIN
  0 N s       :     0.004850  s :     0.004850
      pz      :     0.019695  p :     0.168156
      px      :     0.003868
      py      :     0.144593
      dz2     :    -0.000294  d :    -0.000483
      dxz     :    -0.000019
      dyz     :    -0.000267
      dx2y2   :    -0.000212
      dxy     :     0.000309
  1 C s       :    -0.000812  s :    -0.000812
      pz      :     0.009407  p :     0.027587
      px      :    -0.003740
      py      :     0.021919
      dz2     :     0.000179  d :     0.008896
      dxz     :     0.000883
      dyz     :     0.000508
      dx2y2   :     0.000312
      dxy     :     0.007014
  2 C s       :    -0.000547  s :    -0.000547
      pz      :     0.001861  p :    -0.004316
      px      :    -0.000230
      py      :    -0.005947
      dz2     :     0.002402  d :     0.005701
      dxz     :     0.000047
      dyz     :     0.000678
      dx2y2   :    -0.000217
      dxy     :     0.002792
  3 O s       :     0.000372  s :     0.000372
      pz      :     0.019925  p :     0.035104
      px      :     0.002630
      py      :     0.012549
      dz2     :    -0.000009  d :    -0.000062
      dxz     :    -0.000016
      dyz     :    -0.000008
      dx2y2   :    -0.000009
      dxy     :    -0.000020
  4 C s       :     0.000348  s :     0.000348
      pz      :     0.007427  p :     0.042885
      px      :     0.001702
      py      :     0.033756
      dz2     :     0.000291  d :     0.001915
      dxz     :     0.000045
      dyz     :     0.000673
      dx2y2   :     0.000246
      dxy     :     0.000660
  5 C s       :    -0.000294  s :    -0.000294
      pz      :     0.002518  p :     0.017140
      px      :    -0.000761
      py      :     0.015382
      dz2     :    -0.000133  d :     0.001383
      dxz     :     0.000208
      dyz     :     0.001218
      dx2y2   :    -0.000346
      dxy     :     0.000436
  6 C s       :     0.001770  s :     0.001770
      pz      :     0.001194  p :     0.074707
      px      :     0.002308
      py      :     0.071205
      dz2     :    -0.000093  d :     0.002027
      dxz     :     0.000115
      dyz     :     0.001035
      dx2y2   :    -0.000060
      dxy     :     0.001031
  7 C s       :    -0.001816  s :    -0.001816
      pz      :     0.002989  p :     0.019811
      px      :     0.001424
      py      :     0.015398
      dz2     :     0.004145  d :     0.016951
      dxz     :     0.000831
      dyz     :     0.002625
      dx2y2   :     0.007245
      dxy     :     0.002105
  8 N s       :     0.013441  s :     0.013441
      pz      :     0.105764  p :     0.400836
      px      :     0.067997
      py      :     0.227076
      dz2     :    -0.000069  d :    -0.000709
      dxz     :    -0.000122
      dyz     :    -0.000331
      dx2y2   :     0.000001
      dxy     :    -0.000188
  9 H s       :    -0.004108  s :    -0.004108
      pz      :     0.001546  p :     0.006110
      px      :     0.000258
      py      :     0.004305
 10 C s       :    -0.002241  s :    -0.002241
      pz      :    -0.004721  p :    -0.036359
      px      :    -0.001959
      py      :    -0.029679
      dz2     :     0.000513  d :     0.013905
      dxz     :     0.000510
      dyz     :     0.010538
      dx2y2   :     0.001851
      dxy     :     0.000494
 11 N s       :     0.001638  s :     0.001638
      pz      :     0.001070  p :     0.038331
      px      :     0.016858
      py      :     0.020403
      dz2     :     0.000012  d :    -0.000159
      dxz     :    -0.000029
      dyz     :     0.000013
      dx2y2   :    -0.000098
      dxy     :    -0.000057
 12 H s       :    -0.001046  s :    -0.001046
      pz      :     0.000169  p :     0.001335
      px      :     0.000634
      py      :     0.000531
 13 O s       :     0.001096  s :     0.001096
      pz      :     0.001356  p :     0.101750
      px      :     0.005355
      py      :     0.095039
      dz2     :    -0.000059  d :    -0.000382
      dxz     :    -0.000051
      dyz     :    -0.000189
      dx2y2   :    -0.000012
      dxy     :    -0.000070
 14 C s       :    -0.000274  s :    -0.000274
      pz      :    -0.000208  p :     0.001183
      px      :     0.000361
      py      :     0.001030
      dz2     :     0.000101  d :     0.001498
      dxz     :     0.000306
      dyz     :     0.000722
      dx2y2   :     0.000348
      dxy     :     0.000022
 15 H s       :     0.002484  s :     0.002484
      pz      :    -0.000004  p :    -0.000060
      px      :    -0.000011
      py      :    -0.000045
 16 H s       :     0.002083  s :     0.002083
      pz      :     0.000022  p :     0.000013
      px      :    -0.000020
      py      :     0.000010
 17 H s       :     0.000348  s :     0.000348
      pz      :    -0.000023  p :     0.000097
      px      :     0.000145
      py      :    -0.000025
 18 C s       :    -0.000013  s :    -0.000013
      pz      :     0.000135  p :     0.001494
      px      :     0.001317
      py      :     0.000042
      dz2     :    -0.000074  d :    -0.001092
      dxz     :    -0.000104
      dyz     :     0.000026
      dx2y2   :    -0.000112
      dxy     :    -0.000829
 19 H s       :    -0.001234  s :    -0.001234
      pz      :    -0.000008  p :     0.000066
      px      :     0.000044
      py      :     0.000030
 20 H s       :    -0.000115  s :    -0.000115
      pz      :     0.000008  p :     0.000004
      px      :     0.000015
      py      :    -0.000019
 21 H s       :    -0.000910  s :    -0.000910
      pz      :     0.000014  p :     0.000068
      px      :     0.000042
      py      :     0.000011
 22 H s       :     0.009626  s :     0.009626
      pz      :     0.000863  p :     0.000738
      px      :    -0.000163
      py      :     0.000039
 23 H s       :    -0.000892  s :    -0.000892
      pz      :     0.000117  p :     0.001005
      px      :     0.000177
      py      :     0.000711
 24 H s       :     0.002030  s :     0.002030
      pz      :     0.000071  p :     0.001263
      px      :     0.000162
      py      :     0.001031
 25 H s       :     0.000401  s :     0.000401
      pz      :     0.000024  p :     0.000314
      px      :    -0.000046
      py      :     0.000336
 26 H s       :    -0.000482  s :    -0.000482
      pz      :     0.000019  p :     0.000820
      px      :     0.000126
      py      :     0.000675
 27 H s       :    -0.001478  s :    -0.001478
      pz      :     0.000004  p :     0.001590
      px      :     0.000244
      py      :     0.001342
 28 H s       :    -0.002044  s :    -0.002044
      pz      :     0.000182  p :     0.001528
      px      :     0.000055
      py      :     0.001291
 29 H s       :     0.008869  s :     0.008869
      pz      :    -0.000223  p :     0.000293
      px      :     0.000411
      py      :     0.000105
 30 H s       :     0.007043  s :     0.007043
      pz      :     0.000332  p :     0.000335
      px      :    -0.000132
      py      :     0.000135
 31 H s       :    -0.009450  s :    -0.009450
      pz      :     0.003698  p :     0.013826
      px      :     0.002652
      py      :     0.007476
 32 H s       :    -0.009512  s :    -0.009512
      pz      :     0.003228  p :     0.013826
      px      :     0.002980
      py      :     0.007618


                      *****************************
                      * MAYER POPULATION ANALYSIS *
                      *****************************

  NA   - Mulliken gross atomic population
  ZA   - Total nuclear charge
  QA   - Mulliken gross atomic charge
  VA   - Mayer's total valence
  BVA  - Mayer's bonded valence
  FA   - Mayer's free valence

  ATOM       NA         ZA         QA         VA         BVA        FA
  0 N      7.0608     7.0000    -0.0608     3.3951     3.3613     0.0339
  1 C      6.1353     6.0000    -0.1353     4.0771     4.0753     0.0018
  2 C      5.9095     6.0000     0.0905     4.0608     4.0607     0.0001
  3 O      8.2894     8.0000    -0.2894     2.1708     2.1692     0.0016
  4 C      6.2663     6.0000    -0.2663     3.8849     3.8821     0.0028
  5 C      6.2242     6.0000    -0.2242     3.9334     3.9328     0.0006
  6 C      6.2923     6.0000    -0.2923     3.9240     3.9162     0.0078
  7 C      6.2684     6.0000    -0.2684     3.8680     3.8656     0.0024
  8 N      7.2903     7.0000    -0.2903     3.4598     3.2765     0.1833
  9 H      0.7252     1.0000     0.2748     0.9549     0.9548     0.0001
 10 C      5.8319     6.0000     0.1681     3.9999     3.9983     0.0016
 11 N      7.0920     7.0000    -0.0920     3.2581     3.2564     0.0017
 12 H      0.7525     1.0000     0.2475     0.9519     0.9519     0.0000
 13 O      8.2391     8.0000    -0.2391     2.1985     2.1870     0.0115
 14 C      6.4348     6.0000    -0.4348     3.8714     3.8714     0.0000
 15 H      0.8084     1.0000     0.1916     0.9486     0.9486     0.0000
 16 H      0.8275     1.0000     0.1725     0.9574     0.9574     0.0000
 17 H      0.7979     1.0000     0.2021     0.9592     0.9592     0.0000
 18 C      6.5217     6.0000    -0.5217     3.8340     3.8340     0.0000
 19 H      0.7914     1.0000     0.2086     0.9527     0.9527     0.0000
 20 H      0.8416     1.0000     0.1584     0.9683     0.9683     0.0000
 21 H      0.8001     1.0000     0.1999     0.9555     0.9555     0.0000
 22 H      0.8165     1.0000     0.1835     0.9420     0.9418     0.0002
 23 H      0.8366     1.0000     0.1634     0.9639     0.9639     0.0000
 24 H      0.8044     1.0000     0.1956     0.9563     0.9563     0.0000
 25 H      0.8277     1.0000     0.1723     0.9646     0.9646     0.0000
 26 H      0.8431     1.0000     0.1569     0.9705     0.9705     0.0000
 27 H      0.8249     1.0000     0.1751     0.9576     0.9576     0.0000
 28 H      0.8252     1.0000     0.1748     0.9593     0.9593     0.0000
 29 H      0.8003     1.0000     0.1997     0.9465     0.9464     0.0001
 30 H      0.8024     1.0000     0.1976     0.9483     0.9483     0.0001
 31 H      0.7085     1.0000     0.2915     0.9247     0.9244     0.0004
 32 H      0.7098     1.0000     0.2902     0.9253     0.9250     0.0004

  Mayer bond orders larger than 0.100000
B(  0-N ,  1-C ) :   1.0627 B(  0-N ,  8-N ) :   0.1223 B(  0-N ,  9-H ) :   0.8734 
B(  0-N , 10-C ) :   1.1443 B(  1-C ,  2-C ) :   0.8876 B(  1-C ,  4-C ) :   0.8885 
B(  1-C , 13-O ) :   0.1230 B(  1-C , 22-H ) :   0.9490 B(  2-C ,  3-O ) :   1.8585 
B(  2-C , 11-N ) :   1.2235 B(  4-C ,  5-C ) :   0.9592 B(  4-C , 23-H ) :   0.9621 
B(  4-C , 24-H ) :   0.9458 B(  5-C ,  6-C ) :   0.9444 B(  5-C , 25-H ) :   0.9565 
B(  5-C , 26-H ) :   0.9689 B(  6-C ,  7-C ) :   0.8835 B(  6-C , 27-H ) :   0.9621 
B(  6-C , 28-H ) :   0.9623 B(  7-C ,  8-N ) :   1.0479 B(  7-C , 29-H ) :   0.9402 
B(  7-C , 30-H ) :   0.9437 B(  8-N , 31-H ) :   0.9098 B(  8-N , 32-H ) :   0.9103 
B( 10-C , 13-O ) :   1.8965 B( 10-C , 18-C ) :   0.9203 B( 11-N , 12-H ) :   0.9211 
B( 11-N , 14-C ) :   0.9590 B( 14-C , 15-H ) :   0.9474 B( 14-C , 16-H ) :   0.9546 
B( 14-C , 17-H ) :   0.9440 B( 18-C , 19-H ) :   0.9410 B( 18-C , 20-H ) :   0.9697 
B( 18-C , 21-H ) :   0.9483 

-------
TIMINGS
-------

Total SCF time: 0 days 0 hours 0 min 20 sec 

Total time                  ....      20.363 sec
Sum of individual times     ....      19.670 sec  ( 96.6%)

Fock matrix formation       ....      17.122 sec  ( 84.1%)
  Split-RI-J                ....       1.393 sec  (  8.1% of F)
  Chain of spheres X        ....      12.174 sec  ( 71.1% of F)
  XC integration            ....       3.149 sec  ( 18.4% of F)
    Basis function eval.    ....       0.362 sec  ( 11.5% of XC)
    Density eval.           ....       0.516 sec  ( 16.4% of XC)
    XC-Functional eval.     ....       0.082 sec  (  2.6% of XC)
    XC-Potential eval.      ....       0.282 sec  (  8.9% of XC)
Diagonalization             ....       0.630 sec  (  3.1%)
Density matrix formation    ....       0.083 sec  (  0.4%)
Population analysis         ....       0.076 sec  (  0.4%)
Initial guess               ....       0.060 sec  (  0.3%)
Orbital Transformation      ....       0.000 sec  (  0.0%)
Orbital Orthonormalization  ....       0.043 sec  (  0.2%)
DIIS solution               ....       0.327 sec  (  1.6%)
Grid generation             ....       1.371 sec  (  6.7%)

Maximum memory used throughout the entire SCF-calculation: 85.3 MB

-------------------------   --------------------
FINAL SINGLE POINT ENERGY      -668.594225830162
-------------------------   --------------------

                                *** OPTIMIZATION RUN DONE ***

                            ***************************************
                            *     ORCA property calculations      *
                            ***************************************

                                    ---------------------
                                    Active property flags
                                    ---------------------
   (+) Dipole Moment


------------------------------------------------------------------------------
                       ORCA ELECTRIC PROPERTIES CALCULATION
------------------------------------------------------------------------------

Dipole Moment Calculation                       ... on
Quadrupole Moment Calculation                   ... off
Polarizability Calculation                      ... off
GBWName                                         ... opt.gbw
Electron density                                ... opt.scfp
The origin for moment calculation is the CENTER OF MASS  = (-12.476082,  3.950724  0.352105)

-------------
DIPOLE MOMENT
-------------
                                X             Y             Z
Electronic contribution:     -2.50480      -6.53769      -0.37354
Nuclear contribution   :      3.93087       9.45648      -0.04446
                        -----------------------------------------
Total Dipole Moment    :      1.42607       2.91878      -0.41800
                        -----------------------------------------
Magnitude (a.u.)       :      3.27532
Magnitude (Debye)      :      8.32520



--------------------
Rotational spectrum 
--------------------
 
Rotational constants in cm-1:     0.019640     0.013107     0.008921 
Rotational constants in MHz :   588.781656   392.924183   267.435126 

 Dipole components along the rotational axes: 
x,y,z [a.u.] :     3.162394    -0.789817    -0.321187 
x,y,z [Debye]:     8.038166    -2.007556    -0.816392 

 

Timings for individual modules:

Sum of individual times         ...     2833.649 sec (=  47.227 min)
GTO integral calculation        ...      510.660 sec (=   8.511 min)  18.0 %
SCF iterations                  ...     1647.670 sec (=  27.461 min)  58.1 %
SCF Gradient evaluation         ...      673.647 sec (=  11.227 min)  23.8 %
Geometry relaxation             ...        1.673 sec (=   0.028 min)   0.1 %
                             ****ORCA TERMINATED NORMALLY****
TOTAL RUN TIME: 0 days 0 hours 56 minutes 27 seconds 56 msec
