
                                 *****************
                                 * O   R   C   A *
                                 *****************

                                            #,                                       
                                            ###                                      
                                            ####                                     
                                            #####                                    
                                            ######                                   
                                           ########,                                 
                                     ,,################,,,,,                         
                               ,,#################################,,                 
                          ,,##########################################,,             
                       ,#########################################, ''#####,          
                    ,#############################################,,   '####,        
                  ,##################################################,,,,####,       
                ,###########''''           ''''###############################       
              ,#####''   ,,,,##########,,,,          '''####'''          '####       
            ,##' ,,,,###########################,,,                        '##       
           ' ,,###''''                  '''############,,,                           
         ,,##''                                '''############,,,,        ,,,,,,###''
      ,#''                                            '''#######################'''  
     '                                                          ''''####''''         
             ,#######,   #######,   ,#######,      ##                                
            ,#'     '#,  ##    ##  ,#'     '#,    #''#        ######   ,####,        
            ##       ##  ##   ,#'  ##            #'  '#       #        #'  '#        
            ##       ##  #######   ##           ,######,      #####,   #    #        
            '#,     ,#'  ##    ##  '#,     ,#' ,#      #,         ##   #,  ,#        
             '#######'   ##     ##  '#######'  #'      '#     #####' # '####'        



                  #######################################################
                  #                        -***-                        #
                  #          Department of theory and spectroscopy      #
                  #    Directorship and core code : Frank Neese         #
                  #        Max Planck Institute fuer Kohlenforschung    #
                  #                Kaiser Wilhelm Platz 1               #
                  #                 D-45470 Muelheim/Ruhr               #
                  #                      Germany                        #
                  #                                                     #
                  #                  All rights reserved                #
                  #                        -***-                        #
                  #######################################################


                         Program Version 5.0.4 -  RELEASE  -


 With contributions from (in alphabetic order):
   Daniel Aravena         : Magnetic Suceptibility
   Michael Atanasov       : Ab Initio Ligand Field Theory (pilot matlab implementation)
   Alexander A. Auer      : GIAO ZORA, VPT2 properties, NMR spectrum
   Ute Becker             : Parallelization
   Giovanni Bistoni       : ED, misc. LED, open-shell LED, HFLD
   Martin Brehm           : Molecular dynamics
   Dmytro Bykov           : SCF Hessian
   Vijay G. Chilkuri      : MRCI spin determinant printing, contributions to CSF-ICE
   Dipayan Datta          : RHF DLPNO-CCSD density
   Achintya Kumar Dutta   : EOM-CC, STEOM-CC
   Dmitry Ganyushin       : Spin-Orbit,Spin-Spin,Magnetic field MRCI
   Miquel Garcia          : C-PCM and meta-GGA Hessian, CC/C-PCM, Gaussian charge scheme
   Yang Guo               : DLPNO-NEVPT2, F12-NEVPT2, CIM, IAO-localization
   Andreas Hansen         : Spin unrestricted coupled pair/coupled cluster methods
   Benjamin Helmich-Paris : MC-RPA, TRAH-SCF, COSX integrals
   Lee Huntington         : MR-EOM, pCC
   Robert Izsak           : Overlap fitted RIJCOSX, COSX-SCS-MP3, EOM
   Marcus Kettner         : VPT2
   Christian Kollmar      : KDIIS, OOCD, Brueckner-CCSD(T), CCSD density, CASPT2, CASPT2-K
   Simone Kossmann        : Meta GGA functionals, TD-DFT gradient, OOMP2, MP2 Hessian
   Martin Krupicka        : Initial AUTO-CI
   Lucas Lang             : DCDCAS
   Marvin Lechner         : AUTO-CI (C++ implementation), FIC-MRCC
   Dagmar Lenk            : GEPOL surface, SMD
   Dimitrios Liakos       : Extrapolation schemes; Compound Job, initial MDCI parallelization
   Dimitrios Manganas     : Further ROCIS development; embedding schemes
   Dimitrios Pantazis     : SARC Basis sets
   Anastasios Papadopoulos: AUTO-CI, single reference methods and gradients
   Taras Petrenko         : DFT Hessian,TD-DFT gradient, ASA, ECA, R-Raman, ABS, FL, XAS/XES, NRVS
   Peter Pinski           : DLPNO-MP2, DLPNO-MP2 Gradient
   Christoph Reimann      : Effective Core Potentials
   Marius Retegan         : Local ZFS, SOC
   Christoph Riplinger    : Optimizer, TS searches, QM/MM, DLPNO-CCSD(T), (RO)-DLPNO pert. Triples
   Tobias Risthaus        : Range-separated hybrids, TD-DFT gradient, RPA, STAB
   Michael Roemelt        : Original ROCIS implementation
   Masaaki Saitow         : Open-shell DLPNO-CCSD energy and density
   Barbara Sandhoefer     : DKH picture change effects
   Avijit Sen             : IP-ROCIS
   Kantharuban Sivalingam : CASSCF convergence, NEVPT2, FIC-MRCI
   Bernardo de Souza      : ESD, SOC TD-DFT
   Georgi Stoychev        : AutoAux, RI-MP2 NMR, DLPNO-MP2 response
   Willem Van den Heuvel  : Paramagnetic NMR
   Boris Wezisla          : Elementary symmetry handling
   Frank Wennmohs         : Technical directorship


 We gratefully acknowledge several colleagues who have allowed us to
 interface, adapt or use parts of their codes:
   Stefan Grimme, W. Hujo, H. Kruse, P. Pracht,  : VdW corrections, initial TS optimization,
                  C. Bannwarth, S. Ehlert          DFT functionals, gCP, sTDA/sTD-DF
   Ed Valeev, F. Pavosevic, A. Kumar             : LibInt (2-el integral package), F12 methods
   Garnet Chan, S. Sharma, J. Yang, R. Olivares  : DMRG
   Ulf Ekstrom                                   : XCFun DFT Library
   Mihaly Kallay                                 : mrcc  (arbitrary order and MRCC methods)
   Jiri Pittner, Ondrej Demel                    : Mk-CCSD
   Frank Weinhold                                : gennbo (NPA and NBO analysis)
   Christopher J. Cramer and Donald G. Truhlar   : smd solvation model
   Lars Goerigk                                  : TD-DFT with DH, B97 family of functionals
   V. Asgeirsson, H. Jonsson                     : NEB implementation
   FAccTs GmbH                                   : IRC, NEB, NEB-TS, DLPNO-Multilevel, CI-OPT
                                                   MM, QMMM, 2- and 3-layer-ONIOM, Crystal-QMMM,
                                                   LR-CPCM, SF, NACMEs, symmetry and pop. for TD-DFT,
                                                   nearIR, NL-DFT gradient (VV10), updates on ESD,
                                                   ML-optimized integration grids
   S Lehtola, MJT Oliveira, MAL Marques          : LibXC Library
   Liviu Ungur et al                             : ANISO software


 Your calculation uses the libint2 library for the computation of 2-el integrals
 For citations please refer to: http://libint.valeyev.net

 Your ORCA version has been built with support for libXC version: 5.1.0
 For citations please refer to: https://tddft.org/programs/libxc/

 This ORCA versions uses:
   CBLAS   interface :  Fast vector & matrix operations
   LAPACKE interface :  Fast linear algebra routines
   SCALAPACK package :  Parallel linear algebra routines
   Shared memory     :  Shared parallel matrices
   BLAS/LAPACK       :  OpenBLAS 0.3.15  USE64BITINT DYNAMIC_ARCH NO_AFFINITY Zen SINGLE_THREADED
        Core in use  :  Zen
   Copyright (c) 2011-2014, The OpenBLAS Project




***************************************
The coordinates will be read from file: opt.xyz
***************************************


XCFun DFT library Copyright 2009-2010 Ulf Ekstrom and contributors.
See http://admol.org/xcfun for more information.
This is free software; see the source code for copying conditions.
There is ABSOLUTELY NO WARRANTY; not even for MERCHANTABILITY or FITNESS FOR A PARTICULAR PURPOSE.
For details see the documentation.
Scientific users of this library should cite U. Ekstrom, L. Visscher, R. Bast, A. J. Thorvaldsen and K. Ruud;
J.Chem.Theor.Comp. 2010, DOI: 10.1021/ct100117s
XCFun Version 0.99 

================================================================================

----- Orbital basis set information -----
Your calculation utilizes the basis: def2-TZVP
   F. Weigend and R. Ahlrichs, Phys. Chem. Chem. Phys. 7, 3297 (2005).

----- AuxJ basis set information -----
Your calculation utilizes the auxiliary basis: def2/J
   F. Weigend, Phys. Chem. Chem. Phys. 8, 1057 (2006).

================================================================================
                                        WARNINGS
                       Please study these warnings very carefully!
================================================================================


WARNING: your system is open-shell and RHF/RKS was chosen
  ===> : WILL SWITCH to UHF/UKS


WARNING: Geometry Optimization
  ===> : Switching off AutoStart
         For restart on a previous wavefunction, please use MOREAD

WARNING: Minnesota functionals are quite sensitive to the integration grid.
         see SE Wheeler, KN Houk, JCTC 2010, 6, 395,
             N Mardirossian, M Head-Gordon, JCTC 2016, 12, 4303.
         DEFGRID3 seems to be a minimum grid for reliable results with these functionals!
  ===> : Please increase the integration grid!


INFO   : the flag for use of the SHARK integral package has been found!

================================================================================
                                       INPUT FILE
================================================================================
NAME = freq.inp
|  1> ! M062X def2-TZVP OPT FREQ
|  2> %pal nprocs 16 end
|  3> *XYZFile 0 2 opt.xyz
|  4> 
|  5>                          ****END OF INPUT****
================================================================================

                       *****************************
                       * Geometry Optimization Run *
                       *****************************

Geometry optimization settings:
Update method            Update   .... BFGS
Choice of coordinates    CoordSys .... Z-matrix Internals
Initial Hessian          InHess   .... Almoef's Model

Convergence Tolerances:
Energy Change            TolE     ....  5.0000e-06 Eh
Max. Gradient            TolMAXG  ....  3.0000e-04 Eh/bohr
RMS Gradient             TolRMSG  ....  1.0000e-04 Eh/bohr
Max. Displacement        TolMAXD  ....  4.0000e-03 bohr
RMS Displacement         TolRMSD  ....  2.0000e-03 bohr
Strict Convergence                ....  False
------------------------------------------------------------------------------
                        ORCA OPTIMIZATION COORDINATE SETUP
------------------------------------------------------------------------------

The optimization will be done in new redundant internal coordinates
Making redundant internal coordinates   ...  (new redundants) done
Evaluating the initial hessian          ...  (Almloef) done
Evaluating the coordinates              ...  done
Calculating the B-matrix                .... done
Calculating the G-matrix                .... done
Diagonalizing the G-matrix              .... done
Small eigenvalue found = 6.236e-03
Small eigenvalue found = 6.987e-03
Small eigenvalue found = 1.001e-02
Small eigenvalue found = 2.148e-02
Small eigenvalue found = 2.950e-02
The first mode is                       ....   63
The number of degrees of freedom        ....   90

    -----------------------------------------------------------------
                    Redundant Internal Coordinates


    -----------------------------------------------------------------
         Definition                    Initial Value    Approx d2E/dq
    -----------------------------------------------------------------
      1. B(C   1,N   0)                  1.4541         0.442147   
      2. B(C   2,C   1)                  1.5432         0.355865   
      3. B(O   3,C   2)                  1.2331         0.995797   
      4. B(C   4,C   1)                  1.5527         0.343634   
      5. B(C   5,C   4)                  1.5413         0.358427   
      6. B(C   6,C   5)                  1.5007         0.415981   
      7. B(C   7,C   6)                  1.4994         0.418064   
      8. B(N   8,C   7)                  1.4761         0.407890   
      9. B(H   9,C   6)                  1.0895         0.360717   
     10. B(H  10,C   7)                  1.1050         0.340790   
     11. B(H  11,C   7)                  1.1056         0.340062   
     12. B(H  12,N   8)                  1.0165         0.422574   
     13. B(H  13,N   8)                  1.0166         0.422312   
     14. B(H  14,N   0)                  1.0123         0.429126   
     15. B(C  15,N   0)                  1.3680         0.606681   
     16. B(N  16,C   2)                  1.3643         0.614950   
     17. B(H  17,N  16)                  1.0087         0.434844   
     18. B(O  18,C  15)                  1.2319         1.000445   
     19. B(C  19,C  15)                  1.5260         0.379127   
     20. B(H  20,C  19)                  1.0937         0.355276   
     21. B(H  21,C  19)                  1.0932         0.355917   
     22. B(H  22,C  19)                  1.0931         0.355997   
     23. B(C  23,N  16)                  1.4589         0.434395   
     24. B(H  24,C  23)                  1.0946         0.354003   
     25. B(H  25,C  23)                  1.0955         0.352900   
     26. B(H  26,C  23)                  1.0901         0.360019   
     27. B(H  27,C   1)                  1.0969         0.351115   
     28. B(H  28,C   4)                  1.0980         0.349724   
     29. B(H  29,C   4)                  1.0942         0.354592   
     30. B(H  30,C   5)                  1.1056         0.340028   
     31. B(H  31,C   5)                  1.0980         0.349624   
     32. A(C   1,N   0,H  14)          115.1559         0.338334   
     33. A(C   1,N   0,C  15)          122.0444         0.401866   
     34. A(H  14,N   0,C  15)          121.3130         0.356842   
     35. A(C   2,C   1,H  27)          109.4707         0.320419   
     36. A(N   0,C   1,C   4)          112.6551         0.366378   
     37. A(C   4,C   1,H  27)          107.5492         0.318594   
     38. A(N   0,C   1,C   2)          107.0264         0.368583   
     39. A(N   0,C   1,H  27)          108.1136         0.330074   
     40. A(C   2,C   1,C   4)          111.9438         0.355270   
     41. A(C   1,C   2,N  16)          114.9292         0.390258   
     42. A(O   3,C   2,N  16)          123.4145         0.466135   
     43. A(C   1,C   2,O   3)          121.6492         0.424984   
     44. A(C   1,C   4,H  29)          107.0129         0.319107   
     45. A(C   1,C   4,C   5)          114.5220         0.355702   
     46. A(C   5,C   4,H  28)          109.4322         0.320587   
     47. A(H  28,C   4,H  29)          106.7045         0.288810   
     48. A(C   1,C   4,H  28)          108.9443         0.318388   
     49. A(C   5,C   4,H  29)          109.9185         0.321313   
     50. A(C   4,C   5,C   6)          112.7997         0.367489   
     51. A(C   6,C   5,H  30)          109.9844         0.327006   
     52. A(C   4,C   5,H  31)          109.4493         0.320572   
     53. A(H  30,C   5,H  31)          105.3256         0.286909   
     54. A(C   4,C   5,H  30)          109.1042         0.319118   
     55. A(C   6,C   5,H  31)          109.9035         0.328510   
     56. A(C   5,C   6,C   7)          121.7753         0.377361   
     57. A(C   7,C   6,H   9)          116.8312         0.330482   
     58. A(C   5,C   6,H   9)          119.3807         0.330209   
     59. A(H  10,C   7,H  11)          105.7467         0.285771   
     60. A(N   8,C   7,H  11)          114.0108         0.324006   
     61. A(C   6,C   7,H  11)          109.1087         0.327281   
     62. A(N   8,C   7,H  10)          106.9987         0.324120   
     63. A(C   6,C   7,H  10)          109.6568         0.327396   
     64. A(C   6,C   7,N   8)          111.1064         0.373720   
     65. A(H  12,N   8,H  13)          106.4908         0.300941   
     66. A(C   7,N   8,H  13)          109.0508         0.332939   
     67. A(C   7,N   8,H  12)          109.6454         0.332973   
     68. A(O  18,C  15,C  19)          121.8585         0.430193   
     69. A(N   0,C  15,C  19)          115.6912         0.393672   
     70. A(N   0,C  15,O  18)          122.4488         0.465378   
     71. A(C   2,N  16,H  17)          118.0956         0.358470   
     72. A(H  17,N  16,C  23)          118.6583         0.338083   
     73. A(C   2,N  16,C  23)          123.2460         0.401573   
     74. A(C  15,C  19,H  22)          108.4990         0.324494   
     75. A(H  20,C  19,H  21)          109.2952         0.289693   
     76. A(C  15,C  19,H  21)          113.4992         0.324482   
     77. A(C  15,C  19,H  20)          108.4431         0.324386   
     78. A(H  21,C  19,H  22)          109.3469         0.289785   
     79. A(H  20,C  19,H  22)          107.5877         0.289703   
     80. A(H  25,C  23,H  26)          108.9888         0.289909   
     81. A(H  24,C  23,H  26)          109.0959         0.290051   
     82. A(N  16,C  23,H  26)          107.7476         0.330475   
     83. A(H  24,C  23,H  25)          109.0495         0.289144   
     84. A(N  16,C  23,H  25)          111.1944         0.329386   
     85. A(N  16,C  23,H  24)          110.7187         0.329556   
     86. D(C   4,C   1,N   0,C  15)     83.8188         0.016671   
     87. D(C   4,C   1,N   0,H  14)   -109.9325         0.016671   
     88. D(C   2,C   1,N   0,C  15)   -152.7233         0.016671   
     89. D(C   2,C   1,N   0,H  14)     13.5254         0.016671   
     90. D(H  27,C   1,N   0,C  15)    -34.8865         0.016671   
     91. D(H  27,C   1,N   0,H  14)    131.3622         0.016671   
     92. D(O   3,C   2,C   1,C   4)    109.0284         0.009541   
     93. D(N  16,C   2,C   1,N   0)    166.0667         0.009541   
     94. D(N  16,C   2,C   1,C   4)    -70.0376         0.009541   
     95. D(O   3,C   2,C   1,N   0)    -14.8673         0.009541   
     96. D(N  16,C   2,C   1,H  27)     49.1212         0.009541   
     97. D(O   3,C   2,C   1,H  27)   -131.8128         0.009541   
     98. D(C   5,C   4,C   1,N   0)     63.1944         0.009543   
     99. D(C   5,C   4,C   1,C   2)    -57.4854         0.009543   
    100. D(H  29,C   4,C   1,C   2)   -179.5705         0.009543   
    101. D(H  29,C   4,C   1,N   0)    -58.8907         0.009543   
    102. D(H  29,C   4,C   1,H  27)     60.1439         0.009543   
    103. D(H  28,C   4,C   1,H  27)    -54.8694         0.009543   
    104. D(H  28,C   4,C   1,N   0)   -173.9040         0.009543   
    105. D(H  28,C   4,C   1,C   2)     65.4163         0.009543   
    106. D(C   5,C   4,C   1,H  27)   -177.7710         0.009543   
    107. D(H  31,C   5,C   4,H  29)     64.4354         0.010313   
    108. D(H  31,C   5,C   4,H  28)   -178.6907         0.010313   
    109. D(H  31,C   5,C   4,C   1)    -56.0528         0.010313   
    110. D(H  30,C   5,C   4,H  29)    179.2033         0.010313   
    111. D(H  30,C   5,C   4,H  28)    -63.9228         0.010313   
    112. D(H  30,C   5,C   4,C   1)     58.7151         0.010313   
    113. D(C   6,C   5,C   4,H  29)    -58.2535         0.010313   
    114. D(C   6,C   5,C   4,H  28)     58.6204         0.010313   
    115. D(C   6,C   5,C   4,C   1)   -178.7417         0.010313   
    116. D(C   7,C   6,C   5,C   4)    162.7544         0.012803   
    117. D(H   9,C   6,C   5,H  31)   -156.3311         0.012803   
    118. D(H   9,C   6,C   5,H  30)     88.1523         0.012803   
    119. D(H   9,C   6,C   5,C   4)    -33.8965         0.012803   
    120. D(C   7,C   6,C   5,H  31)     40.3199         0.012803   
    121. D(C   7,C   6,C   5,H  30)    -75.1967         0.012803   
    122. D(H  11,C   7,C   6,H   9)    159.3522         0.012928   
    123. D(H  11,C   7,C   6,C   5)    -36.8967         0.012928   
    124. D(H  10,C   7,C   6,H   9)    -85.2604         0.012928   
    125. D(H  10,C   7,C   6,C   5)     78.4907         0.012928   
    126. D(N   8,C   7,C   6,H   9)     32.8157         0.012928   
    127. D(N   8,C   7,C   6,C   5)   -163.4331         0.012928   
    128. D(H  13,N   8,C   7,H  11)    -58.1110         0.014195   
    129. D(H  13,N   8,C   7,H  10)   -174.6523         0.014195   
    130. D(H  13,N   8,C   7,C   6)     65.6747         0.014195   
    131. D(H  12,N   8,C   7,H  11)     58.1297         0.014195   
    132. D(H  12,N   8,C   7,H  10)    -58.4117         0.014195   
    133. D(H  12,N   8,C   7,C   6)   -178.0847         0.014195   
    134. D(C  19,C  15,N   0,H  14)      9.6130         0.029706   
    135. D(C  19,C  15,N   0,C   1)    175.0262         0.029706   
    136. D(O  18,C  15,N   0,H  14)   -170.8202         0.029706   
    137. D(O  18,C  15,N   0,C   1)     -5.4070         0.029706   
    138. D(C  23,N  16,C   2,O   3)     -1.2426         0.030583   
    139. D(C  23,N  16,C   2,C   1)    177.8049         0.030583   
    140. D(H  17,N  16,C   2,O   3)    178.8828         0.030583   
    141. D(H  17,N  16,C   2,C   1)     -2.0697         0.030583   
    142. D(H  22,C  19,C  15,O  18)    -55.4656         0.010729   
    143. D(H  22,C  19,C  15,N   0)    124.1040         0.010729   
    144. D(H  21,C  19,C  15,O  18)   -177.2282         0.010729   
    145. D(H  21,C  19,C  15,N   0)      2.3414         0.010729   
    146. D(H  20,C  19,C  15,O  18)     61.1152         0.010729   
    147. D(H  20,C  19,C  15,N   0)   -119.3152         0.010729   
    148. D(H  24,C  23,N  16,C   2)    123.6352         0.016089   
    149. D(H  26,C  23,N  16,H  17)   -175.7202         0.016089   
    150. D(H  26,C  23,N  16,C   2)      4.4059         0.016089   
    151. D(H  25,C  23,N  16,H  17)     64.9041         0.016089   
    152. D(H  25,C  23,N  16,C   2)   -114.9698         0.016089   
    153. D(H  24,C  23,N  16,H  17)    -56.4909         0.016089   
    -----------------------------------------------------------------

Number of atoms                         .... 32
Number of degrees of freedom            .... 153

         *************************************************************
         *                GEOMETRY OPTIMIZATION CYCLE   1            *
         *************************************************************
---------------------------------
CARTESIAN COORDINATES (ANGSTROEM)
---------------------------------
  N      1.415789   -0.943031    0.180509
  C      1.081352    0.271600   -0.545650
  C      1.464003    1.460128    0.361271
  O      1.698910    1.308220    1.562239
  C     -0.411325    0.322765   -0.970272
  C     -1.409881    0.345927    0.203549
  C     -2.840291    0.364917   -0.250063
  C     -3.966459    0.010439    0.674169
  N     -5.202052   -0.278508   -0.079904
  H     -3.103541    0.892426   -1.166315
  H     -4.185812    0.866089    1.338080
  H     -3.643340   -0.810859    1.340038
  H     -5.957536   -0.484713    0.568090
  H     -5.062418   -1.117510   -0.636764
  H      1.612304   -0.815330    1.165268
  C      1.729450   -2.109523   -0.461645
  N      1.499350    2.672351   -0.263746
  H      1.310230    2.701879   -1.254078
  O      1.654198   -2.231347   -1.685145
  C      2.171274   -3.261141    0.436795
  H      3.189543   -3.546543    0.157884
  H      2.143221   -3.018250    1.502281
  H      1.522996   -4.119893    0.243943
  C      1.793679    3.921627    0.429930
  H      2.644817    4.430651   -0.033442
  H      0.927888    4.592783    0.421564
  H      2.043235    3.677486    1.462573
  H      1.686487    0.299804   -1.460066
  H     -0.571677    1.205118   -1.603719
  H     -0.595503   -0.553527   -1.599124
  H     -1.202766    1.227762    0.837464
  H     -1.234291   -0.523991    0.850152

----------------------------
CARTESIAN COORDINATES (A.U.)
----------------------------
  NO LB      ZA    FRAG     MASS         X           Y           Z
   0 N     7.0000    0    14.007    2.675454   -1.782070    0.341113
   1 C     6.0000    0    12.011    2.043458    0.513249   -1.031128
   2 C     6.0000    0    12.011    2.766565    2.759243    0.682704
   3 O     8.0000    0    15.999    3.210474    2.472177    2.952203
   4 C     6.0000    0    12.011   -0.777291    0.609938   -1.833548
   5 C     6.0000    0    12.011   -2.664289    0.653707    0.384652
   6 C     6.0000    0    12.011   -5.367371    0.689593   -0.472551
   7 C     6.0000    0    12.011   -7.495522    0.019727    1.273995
   8 N     7.0000    0    14.007   -9.830454   -0.526304   -0.150997
   9 H     1.0000    0     1.008   -5.864843    1.686441   -2.204016
  10 H     1.0000    0     1.008   -7.910038    1.636672    2.528604
  11 H     1.0000    0     1.008   -6.884914   -1.532301    2.532304
  12 H     1.0000    0     1.008  -11.258111   -0.915975    1.073535
  13 H     1.0000    0     1.008   -9.566584   -2.111788   -1.203310
  14 H     1.0000    0     1.008    3.046813   -1.540749    2.202037
  15 C     6.0000    0    12.011    3.268186   -3.986421   -0.872382
  16 N     7.0000    0    14.007    2.833361    5.050011   -0.498408
  17 H     1.0000    0     1.008    2.475976    5.105811   -2.369864
  18 O     8.0000    0    15.999    3.125981   -4.216634   -3.184462
  19 C     6.0000    0    12.011    4.103113   -6.162664    0.825423
  20 H     1.0000    0     1.008    6.027362   -6.701995    0.298358
  21 H     1.0000    0     1.008    4.050102   -5.703665    2.838899
  22 H     1.0000    0     1.008    2.878046   -7.785469    0.460985
  23 C     6.0000    0    12.011    3.389563    7.410801    0.812451
  24 H     1.0000    0     1.008    4.997979    8.372717   -0.063196
  25 H     1.0000    0     1.008    1.753454    8.679102    0.796640
  26 H     1.0000    0     1.008    3.861154    6.949441    2.763862
  27 H     1.0000    0     1.008    3.186999    0.566547   -2.759125
  28 H     1.0000    0     1.008   -1.080314    2.277343   -3.030589
  29 H     1.0000    0     1.008   -1.125337   -1.046014   -3.021906
  30 H     1.0000    0     1.008   -2.272899    2.320134    1.582578
  31 H     1.0000    0     1.008   -2.332471   -0.990199    1.606555

--------------------------------
INTERNAL COORDINATES (ANGSTROEM)
--------------------------------
 N      0   0   0     0.000000000000     0.00000000     0.00000000
 C      1   0   0     1.454126013024     0.00000000     0.00000000
 C      2   1   0     1.543220112834   107.02641495     0.00000000
 O      3   2   1     1.233117988157   121.64918635   345.13271867
 C      2   1   3     1.552740970836   112.65512081   236.54211002
 C      5   2   1     1.541267547800   114.52201211    63.19436468
 C      6   5   2     1.500731833490   112.79973707   181.25825939
 C      7   6   5     1.499371647945   121.77532454   162.75444860
 N      8   7   6     1.476078051504   111.10643958   196.56685265
 H      7   6   5     1.089534018746   119.38071716   326.10346693
 H      8   7   6     1.105002602219   109.65679559    78.49069136
 H      8   7   6     1.105584795289   109.10872411   323.10332798
 H      9   8   7     1.016450974175   109.64538588   181.91531463
 H      9   8   7     1.016619650426   109.05084205    65.67466583
 H      1   2   3     1.012262677522   115.15586068    13.52541339
 C      1   2   3     1.368008975325   122.04435069   207.27673363
 N      3   2   1     1.364323853134   114.92924303   166.06670589
 H     17   3   2     1.008659749633   118.09559879   357.93026956
 O     16   1   2     1.231850431535   122.44881410   354.59300123
 C     16   1   2     1.525983797535   115.69117830   175.02618688
 H     20  16   1     1.093671104647   108.44309145   240.68478642
 H     20  16   1     1.093180540690   113.49920254     2.34140043
 H     20  16   1     1.093119142884   108.49900069   124.10400697
 C     17   3   2     1.458940747919   123.24599855   177.80488790
 H     24  17   3     1.094648205706   110.71868176   123.63515641
 H     24  17   3     1.095497621231   111.19443169   245.03019621
 H     24  17   3     1.090060985685   107.74757664     4.40586677
 H      2   1   3     1.096878262546   108.11360785   117.83674200
 H      5   2   1     1.097959085618   108.94431897   186.09598158
 H      5   2   1     1.094195806096   107.01290040   301.10926831
 H      6   5   2     1.105612263338   109.10419444    58.71509145
 H      6   5   2     1.098036758111   109.44925622   303.94717104

---------------------------
INTERNAL COORDINATES (A.U.)
---------------------------
 N      0   0   0     0.000000000000     0.00000000     0.00000000
 C      1   0   0     2.747899928827     0.00000000     0.00000000
 C      2   1   0     2.916263377615   107.02641495     0.00000000
 O      3   2   1     2.330255288429   121.64918635   345.13271867
 C      2   1   3     2.934255191798   112.65512081   236.54211002
 C      5   2   1     2.912573564441   114.52201211    63.19436468
 C      6   5   2     2.835972165753   112.79973707   181.25825939
 C      7   6   5     2.833401787581   121.77532454   162.75444860
 N      8   7   6     2.789383269635   111.10643958   196.56685265
 H      7   6   5     2.058920909020   119.38071716   326.10346693
 H      8   7   6     2.088152295465   109.65679559    78.49069136
 H      8   7   6     2.089252480923   109.10872411   323.10332798
 H      9   8   7     1.920813969749   109.64538588   181.91531463
 H      9   8   7     1.921132721667   109.05084205    65.67466583
 H      1   2   3     1.912899236107   115.15586068    13.52541339
 C      1   2   3     2.585162312111   122.04435069   207.27673363
 N      3   2   1     2.578198440400   114.92924303   166.06670589
 H     17   3   2     1.906090689115   118.09559879   357.93026956
 O     16   1   2     2.327859953554   122.44881410   354.59300123
 C     16   1   2     2.883691462142   115.69117830   175.02618688
 H     20  16   1     2.066738868366   108.44309145   240.68478642
 H     20  16   1     2.065811836836   113.49920254     2.34140043
 H     20  16   1     2.065695811798   108.49900069   124.10400697
 C     17   3   2     2.756998459185   123.24599855   177.80488790
 H     24  17   3     2.068585321772   110.71868176   123.63515641
 H     24  17   3     2.070190484489   111.19443169   245.03019621
 H     24  17   3     2.059916732217   107.74757664     4.40586677
 H      2   1   3     2.072799518463   108.11360785   117.83674200
 H      5   2   1     2.074841978068   108.94431897   186.09598158
 H      5   2   1     2.067730410406   107.01290040   301.10926831
 H      6   5   2     2.089304388014   109.10419444    58.71509145
 H      6   5   2     2.074988757808   109.44925622   303.94717104

---------------------
BASIS SET INFORMATION
---------------------
There are 4 groups of distinct atoms

 Group   1 Type N   : 11s6p2d1f contracted to 5s3p2d1f pattern {62111/411/11/1}
 Group   2 Type C   : 11s6p2d1f contracted to 5s3p2d1f pattern {62111/411/11/1}
 Group   3 Type O   : 11s6p2d1f contracted to 5s3p2d1f pattern {62111/411/11/1}
 Group   4 Type H   : 5s1p contracted to 3s1p pattern {311/1}

Atom   0N    basis set group =>   1
Atom   1C    basis set group =>   2
Atom   2C    basis set group =>   2
Atom   3O    basis set group =>   3
Atom   4C    basis set group =>   2
Atom   5C    basis set group =>   2
Atom   6C    basis set group =>   2
Atom   7C    basis set group =>   2
Atom   8N    basis set group =>   1
Atom   9H    basis set group =>   4
Atom  10H    basis set group =>   4
Atom  11H    basis set group =>   4
Atom  12H    basis set group =>   4
Atom  13H    basis set group =>   4
Atom  14H    basis set group =>   4
Atom  15C    basis set group =>   2
Atom  16N    basis set group =>   1
Atom  17H    basis set group =>   4
Atom  18O    basis set group =>   3
Atom  19C    basis set group =>   2
Atom  20H    basis set group =>   4
Atom  21H    basis set group =>   4
Atom  22H    basis set group =>   4
Atom  23C    basis set group =>   2
Atom  24H    basis set group =>   4
Atom  25H    basis set group =>   4
Atom  26H    basis set group =>   4
Atom  27H    basis set group =>   4
Atom  28H    basis set group =>   4
Atom  29H    basis set group =>   4
Atom  30H    basis set group =>   4
Atom  31H    basis set group =>   4
---------------------------------
AUXILIARY/J BASIS SET INFORMATION
---------------------------------
There are 4 groups of distinct atoms

 Group   1 Type N   : 12s5p4d2f1g contracted to 6s4p3d1f1g pattern {711111/2111/211/2/1}
 Group   2 Type C   : 12s5p4d2f1g contracted to 6s4p3d1f1g pattern {711111/2111/211/2/1}
 Group   3 Type O   : 12s5p4d2f1g contracted to 6s4p3d1f1g pattern {711111/2111/211/2/1}
 Group   4 Type H   : 5s2p1d contracted to 3s1p1d pattern {311/2/1}

Atom   0N    basis set group =>   1
Atom   1C    basis set group =>   2
Atom   2C    basis set group =>   2
Atom   3O    basis set group =>   3
Atom   4C    basis set group =>   2
Atom   5C    basis set group =>   2
Atom   6C    basis set group =>   2
Atom   7C    basis set group =>   2
Atom   8N    basis set group =>   1
Atom   9H    basis set group =>   4
Atom  10H    basis set group =>   4
Atom  11H    basis set group =>   4
Atom  12H    basis set group =>   4
Atom  13H    basis set group =>   4
Atom  14H    basis set group =>   4
Atom  15C    basis set group =>   2
Atom  16N    basis set group =>   1
Atom  17H    basis set group =>   4
Atom  18O    basis set group =>   3
Atom  19C    basis set group =>   2
Atom  20H    basis set group =>   4
Atom  21H    basis set group =>   4
Atom  22H    basis set group =>   4
Atom  23C    basis set group =>   2
Atom  24H    basis set group =>   4
Atom  25H    basis set group =>   4
Atom  26H    basis set group =>   4
Atom  27H    basis set group =>   4
Atom  28H    basis set group =>   4
Atom  29H    basis set group =>   4
Atom  30H    basis set group =>   4
Atom  31H    basis set group =>   4


           ************************************************************
           *        Program running with 16 parallel MPI-processes    *
           *              working on a common directory               *
           ************************************************************
------------------------------------------------------------------------------
                           ORCA GTO INTEGRAL CALCULATION
                           -- RI-GTO INTEGRALS CHOSEN --
------------------------------------------------------------------------------
------------------------------------------------------------------------------
                   ___                                                        
                  /   \      - P O W E R E D   B Y -                         
                 /     \                                                     
                 |  |  |   _    _      __       _____    __    __             
                 |  |  |  | |  | |    /  \     |  _  \  |  |  /  |          
                  \  \/   | |  | |   /    \    | | | |  |  | /  /          
                 / \  \   | |__| |  /  /\  \   | |_| |  |  |/  /          
                |  |  |   |  __  | /  /__\  \  |    /   |      \           
                |  |  |   | |  | | |   __   |  |    \   |  |\   \          
                \     /   | |  | | |  |  |  |  | |\  \  |  | \   \       
                 \___/    |_|  |_| |__|  |__|  |_| \__\ |__|  \__/        
                                                                              
                      - O R C A' S   B I G   F R I E N D -                    
                                      &                                       
                       - I N T E G R A L  F E E D E R -                       
                                                                              
 v1 FN, 2020, v2 2021                                                         
------------------------------------------------------------------------------


Reading SHARK input file freq.SHARKINP.tmp ... ok
----------------------
SHARK INTEGRAL PACKAGE
----------------------

Number of atoms                             ...     32
Number of basis functions                   ...    542
Number of shells                            ...    226
Maximum angular momentum                    ...      3
Integral batch strategy                     ... SHARK/LIBINT Hybrid
RI-J (if used) integral strategy            ... SPLIT-RIJ (Revised 2003 algorithm where possible)
Printlevel                                  ...      1
Contraction scheme used                     ... SEGMENTED contraction
Coulomb Range Separation                    ... NOT USED
Exchange Range Separation                   ... NOT USED
Finite Nucleus Model                        ... NOT USED
Auxiliary Coulomb fitting basis             ... AVAILABLE
   # of basis functions in Aux-J            ...    884
   # of shells in Aux-J                     ...    300
   Maximum angular momentum in Aux-J        ...      4
Auxiliary J/K fitting basis                 ... NOT available
Auxiliary Correlation fitting basis         ... NOT available
Auxiliary 'external' fitting basis          ... NOT available
Integral threshold                          ...     2.500000e-11
Primitive cut-off                           ...     2.500000e-12
Primitive pair pre-selection threshold      ...     2.500000e-12

Calculating pre-screening integrals         ... done (  0.0 sec) Dimension = 226
Organizing shell pair data                  ... done (  0.1 sec)
Shell pair information
Total number of shell pairs                 ...     25651
Shell pairs after pre-screening             ...     19206
Total number of primitive shell pairs       ...     75828
Primitive shell pairs kept                  ...     39495
          la=0 lb=0:   5737 shell pairs
          la=1 lb=0:   5699 shell pairs
          la=1 lb=1:   1454 shell pairs
          la=2 lb=0:   2556 shell pairs
          la=2 lb=1:   1279 shell pairs
          la=2 lb=2:    307 shell pairs
          la=3 lb=0:   1204 shell pairs
          la=3 lb=1:    623 shell pairs
          la=3 lb=2:    276 shell pairs
          la=3 lb=3:     71 shell pairs

Calculating one electron integrals          ... done (  0.0 sec)
Calculating RI/J V-Matrix + Cholesky decomp.... done (  0.0 sec)
Calculating Nuclear repulsion               ... done (  0.0 sec) ENN=    913.660209035279 Eh

SHARK setup successfully completed in   0.3 seconds

Maximum memory used throughout the entire GTOINT-calculation: 30.9 MB


           ************************************************************
           *        Program running with 16 parallel MPI-processes    *
           *              working on a common directory               *
           ************************************************************
-------------------------------------------------------------------------------
                                 ORCA SCF
-------------------------------------------------------------------------------

------------
SCF SETTINGS
------------
Hamiltonian:
 Density Functional     Method          .... DFT(GTOs)
 Exchange Functional    Exchange        .... M062X
 Correlation Functional Correlation     .... M062X
 Gradients option       PostSCFGGA      .... off
 Hybrid DFT is turned on
   Fraction HF Exchange ScalHFX         ....  0.540000
   Scaling of DF-GGA-X  ScalDFX         ....  0.460000
   Scaling of DF-GGA-C  ScalDFC         ....  1.000000
   Scaling of DF-LDA-C  ScalLDAC        ....  1.000000
   Perturbative correction              ....  0.000000
   Density functional embedding theory  .... OFF
 RI-approximation to the Coulomb term is turned on
   Number of AuxJ basis functions       .... 884
   RIJ-COSX (HFX calculated with COS-X)).... on


General Settings:
 Integral files         IntName         .... freq
 Hartree-Fock type      HFTyp           .... UHF
 Total Charge           Charge          ....    0
 Multiplicity           Mult            ....    2
 Number of Electrons    NEL             ....  109
 Basis Dimension        Dim             ....  542
 Nuclear Repulsion      ENuc            ....    913.6602090353 Eh

Convergence Acceleration:
 DIIS                   CNVDIIS         .... on
   Start iteration      DIISMaxIt       ....    12
   Startup error        DIISStart       ....  0.200000
   # of expansion vecs  DIISMaxEq       ....     5
   Bias factor          DIISBfac        ....   1.050
   Max. coefficient     DIISMaxC        ....  10.000
 Trust-Rad. Augm. Hess. CNVTRAH         .... auto
   Auto Start mean grad. ratio tolernc. ....  1.125000
   Auto Start start iteration           ....    20
   Auto Start num. interpolation iter.  ....    10
   Max. Number of Micro iterations      ....    16
   Max. Number of Macro iterations      .... Maxiter - #DIIS iter
   Number of Davidson start vectors     ....     2
   Converg. threshold I  (grad. norm)   ....   1.000e-05
   Converg. threshold II (energy diff.) ....   1.000e-08
   Grad. Scal. Fac. for Micro threshold ....   0.100
   Minimum threshold for Micro iter.    ....   0.010
   NR start threshold (gradient norm)   ....   0.001
   Initial trust radius                 ....   0.400
   Minimum AH scaling param. (alpha)    ....   1.000
   Maximum AH scaling param. (alpha)    .... 1000.000
   Orbital update algorithm             .... Taylor
   White noise on init. David. guess    .... on
   Maximum white noise                  ....   0.010
   Quad. conv. algorithm                .... NR
 SOSCF                  CNVSOSCF        .... off
 Level Shifting         CNVShift        .... on
   Level shift para.    LevelShift      ....    0.2500
   Turn off err/grad.   ShiftErr        ....    0.0010
 Zerner damping         CNVZerner       .... off
 Static damping         CNVDamp         .... on
   Fraction old density DampFac         ....    0.7000
   Max. Damping (<1)    DampMax         ....    0.9800
   Min. Damping (>=0)   DampMin         ....    0.0000
   Turn off err/grad.   DampErr         ....    0.1000
 Fernandez-Rico         CNVRico         .... off

SCF Procedure:
 Maximum # iterations   MaxIter         ....   125
 SCF integral mode      SCFMode         .... Direct
   Integral package                     .... SHARK and LIBINT hybrid scheme
 Reset frequency        DirectResetFreq ....    20
 Integral Threshold     Thresh          ....  2.500e-11 Eh
 Primitive CutOff       TCut            ....  2.500e-12 Eh

Convergence Tolerance:
 Convergence Check Mode ConvCheckMode   .... Total+1el-Energy
 Convergence forced     ConvForced      .... 0
 Energy Change          TolE            ....  1.000e-08 Eh
 1-El. energy change                    ....  1.000e-05 Eh
 DIIS Error             TolErr          ....  5.000e-07


Diagonalization of the overlap matrix:
Smallest eigenvalue                        ... 6.343e-05
Time for diagonalization                   ...    0.035 sec
Threshold for overlap eigenvalues          ... 1.000e-08
Number of eigenvalues below threshold      ... 0
Time for construction of square roots      ...    0.023 sec
Total time needed                          ...    0.060 sec

Time for model grid setup =    0.118 sec

------------------------------
INITIAL GUESS: MODEL POTENTIAL
------------------------------
Loading Hartree-Fock densities                     ... done
Calculating cut-offs                               ... done
Initializing the effective Hamiltonian             ... done
Setting up the integral package (SHARK)            ... done
Starting the Coulomb interaction                   ... done (   0.1 sec)
Reading the grid                                   ... done
Mapping shells                                     ... done
Starting the XC term evaluation                    ... done (   0.1 sec)
  promolecular density results
     # of electrons  =    108.983892225
     EX              =    -87.227816724
     EC              =     -3.610430085
     EX+EC           =    -90.838246809
Transforming the Hamiltonian                       ... done (   0.0 sec)
Diagonalizing the Hamiltonian                      ... done (   0.0 sec)
Back transforming the eigenvectors                 ... done (   0.0 sec)
Now organizing SCF variables                       ... done
                      ------------------
                      INITIAL GUESS DONE (   0.4 sec)
                      ------------------
-------------------
DFT GRID GENERATION
-------------------

General Integration Accuracy     IntAcc      ... 4.388
Radial Grid Type                 RadialGrid  ... OptM3 with GC (2021)
Angular Grid (max. ang.)         AngularGrid ... 4 (Lebedev-302)
Angular grid pruning method      GridPruning ... 4 (adaptive)
Weight generation scheme         WeightScheme... Becke
Basis function cutoff            BFCut       ... 1.0000e-11
Integration weight cutoff        WCut        ... 1.0000e-14
Angular grids for H and He will be reduced by one unit
Partially contracted basis set               ... off
Rotationally invariant grid construction     ... off

Total number of grid points                  ...   141721
Total number of batches                      ...     2233
Average number of points per batch           ...       63
Average number of grid points per atom       ...     4429
Time for grid setup =    0.598 sec

--------------------
COSX GRID GENERATION
--------------------

GRIDX 1
-------
General Integration Accuracy     IntAcc      ... 3.816
Radial Grid Type                 RadialGrid  ... OptM3 with GC (2021)
Angular Grid (max. ang.)         AngularGrid ... 1 (Lebedev-50)
Angular grid pruning method      GridPruning ... 4 (adaptive)
Weight generation scheme         WeightScheme... Becke
Basis function cutoff            BFCut       ... 1.0000e-11
Integration weight cutoff        WCut        ... 1.0000e-14
Angular grids for H and He will be reduced by one unit
Partially contracted basis set               ... on
Rotationally invariant grid construction     ... off

Total number of grid points                  ...    18130
Total number of batches                      ...      303
Average number of points per batch           ...       59
Average number of grid points per atom       ...      567
UseSFitting                                  ... on

GRIDX 2
-------
General Integration Accuracy     IntAcc      ... 4.020
Radial Grid Type                 RadialGrid  ... OptM3 with GC (2021)
Angular Grid (max. ang.)         AngularGrid ... 2 (Lebedev-110)
Angular grid pruning method      GridPruning ... 4 (adaptive)
Weight generation scheme         WeightScheme... Becke
Basis function cutoff            BFCut       ... 1.0000e-11
Integration weight cutoff        WCut        ... 1.0000e-14
Angular grids for H and He will be reduced by one unit
Partially contracted basis set               ... on
Rotationally invariant grid construction     ... off

Total number of grid points                  ...    38371
Total number of batches                      ...      616
Average number of points per batch           ...       62
Average number of grid points per atom       ...     1199
UseSFitting                                  ... on

GRIDX 3
-------
General Integration Accuracy     IntAcc      ... 4.338
Radial Grid Type                 RadialGrid  ... OptM3 with GC (2021)
Angular Grid (max. ang.)         AngularGrid ... 3 (Lebedev-194)
Angular grid pruning method      GridPruning ... 4 (adaptive)
Weight generation scheme         WeightScheme... Becke
Basis function cutoff            BFCut       ... 1.0000e-11
Integration weight cutoff        WCut        ... 1.0000e-14
Angular grids for H and He will be reduced by one unit
Partially contracted basis set               ... on
Rotationally invariant grid construction     ... off

Total number of grid points                  ...    83673
Total number of batches                      ...     1322
Average number of points per batch           ...       63
Average number of grid points per atom       ...     2615
UseSFitting                                  ... on

Time for X-Grid setup             =    0.848 sec

--------------
SCF ITERATIONS
--------------
ITER       Energy         Delta-E        Max-DP      RMS-DP      [F,P]     Damp
               ***  Starting incremental Fock matrix formation  ***
  0   -667.9148903176   0.000000000000 0.04815643  0.00044216  0.1520624 0.7000
  1   -668.1458270387  -0.230936721108 0.04334135  0.00035572  0.0725806 0.7000
                               ***Turning on DIIS***
  2   -668.2481091047  -0.102282066054 0.06912695  0.00067783  0.0269460 0.0000
  3   -668.4095352239  -0.161426119204 0.03155582  0.00026183  0.0365975 0.0000
  4   -668.4406983174  -0.031163093512 0.00802907  0.00008510  0.0056660 0.0000
  5   -668.4418069248  -0.001108607395 0.00554387  0.00004022  0.0037313 0.0000
  6   -668.4420348661  -0.000227941243 0.00320957  0.00002042  0.0010636 0.0000
  7   -668.4420786391  -0.000043773009 0.00256290  0.00001710  0.0005176 0.0000
               *** Restarting incremental Fock matrix formation ***
                                   *** Resetting DIIS ***
  8   -668.4420819651  -0.000003326001 0.00073938  0.00000589  0.0002215 0.0000
  9   -668.4420829906  -0.000001025544 0.00017395  0.00000159  0.0002554 0.0000
 10   -668.4420841021  -0.000001111471 0.00012558  0.00000096  0.0000648 0.0000
 11   -668.4420842343  -0.000000132196 0.00004344  0.00000043  0.0000557 0.0000
 12   -668.4420842601  -0.000000025835 0.00002378  0.00000017  0.0000233 0.0000
 13   -668.4420842718  -0.000000011653 0.00000827  0.00000006  0.0000054 0.0000
 14   -668.4420842747  -0.000000002877 0.00000579  0.00000003  0.0000016 0.0000
                 **** Energy Check signals convergence ****

               *****************************************************
               *                     SUCCESS                       *
               *           SCF CONVERGED AFTER  15 CYCLES          *
               *****************************************************

Old exchange energy                            =    -48.247135615 Eh
New exchange energy                            =    -48.247218109 Eh
Exchange energy change after final integration =     -0.000082495 Eh
Total energy after final integration           =   -668.442166768 Eh
Final COS-X integration done in                =     4.649 sec

----------------
TOTAL SCF ENERGY
----------------

Total Energy       :         -668.44216677 Eh          -18189.23608 eV

Components:
Nuclear Repulsion  :          913.66020904 Eh           24861.95825 eV
Electronic Energy  :        -1582.10237580 Eh          -43051.19433 eV
One Electron Energy:        -2720.99137267 Eh          -74041.93947 eV
Two Electron Energy:         1138.88899687 Eh           30990.74514 eV
Max COSX asymmetry :            0.00000298 Eh               0.00008 eV

Virial components:
Potential Energy   :        -1333.22220617 Eh          -36278.82061 eV
Kinetic Energy     :          664.78003941 Eh           18089.58453 eV
Virial Ratio       :            2.00550878


DFT components:
N(Alpha)           :       55.000008042571 electrons
N(Beta)            :       54.000042943342 electrons
N(Total)           :      109.000050985914 electrons
E(XC)              :      -45.002708985140 Eh       
DFET-embed. en.    :        0.000000000000 Eh       

---------------
SCF CONVERGENCE
---------------

  Last Energy change         ...    1.6132e-09  Tolerance :   1.0000e-08
  Last MAX-Density change    ...    0.0000e+00  Tolerance :   1.0000e-07
  Last RMS-Density change    ...    0.0000e+00  Tolerance :   5.0000e-09
  Last DIIS Error            ...    6.6218e-07  Tolerance :   5.0000e-07

             **** THE GBW FILE WAS UPDATED (freq.gbw) ****
             **** DENSITY freq.scfp WAS UPDATED ****
             **** ENERGY FILE WAS UPDATED (freq.en.tmp) ****
----------------------
UHF SPIN CONTAMINATION
----------------------

Warning: in a DFT calculation there is little theoretical justification to 
         calculate <S**2> as in Hartree-Fock theory. We will do it anyways
         but you should keep in mind that the values have only limited relevance

Expectation value of <S**2>     :     0.755257
Ideal value S*(S+1) for S=0.5   :     0.750000
Deviation                       :     0.005257

             **** THE GBW FILE WAS UPDATED (freq.gbw) ****
             **** DENSITY freq.scfp WAS UPDATED ****
----------------
ORBITAL ENERGIES
----------------
                 SPIN UP ORBITALS
  NO   OCC          E(Eh)            E(eV) 
   0   1.0000     -19.609210      -533.5937 
   1   1.0000     -19.586564      -532.9775 
   2   1.0000     -14.790688      -402.4751 
   3   1.0000     -14.769328      -401.8938 
   4   1.0000     -14.727135      -400.7457 
   5   1.0000     -10.659956      -290.0722 
   6   1.0000     -10.643482      -289.6239 
   7   1.0000     -10.595683      -288.3232 
   8   1.0000     -10.581259      -287.9307 
   9   1.0000     -10.564061      -287.4627 
  10   1.0000     -10.547455      -287.0109 
  11   1.0000     -10.543938      -286.9152 
  12   1.0000     -10.541587      -286.8512 
  13   1.0000     -10.540681      -286.8265 
  14   1.0000      -1.172075       -31.8938 
  15   1.0000      -1.148740       -31.2588 
  16   1.0000      -1.044616       -28.4255 
  17   1.0000      -1.030546       -28.0426 
  18   1.0000      -0.987023       -26.8583 
  19   1.0000      -0.906229       -24.6597 
  20   1.0000      -0.861519       -23.4431 
  21   1.0000      -0.825560       -22.4646 
  22   1.0000      -0.808672       -22.0051 
  23   1.0000      -0.764719       -20.8091 
  24   1.0000      -0.711060       -19.3489 
  25   1.0000      -0.683057       -18.5869 
  26   1.0000      -0.662587       -18.0299 
  27   1.0000      -0.647379       -17.6161 
  28   1.0000      -0.619237       -16.8503 
  29   1.0000      -0.567919       -15.4539 
  30   1.0000      -0.562179       -15.2977 
  31   1.0000      -0.552519       -15.0348 
  32   1.0000      -0.547752       -14.9051 
  33   1.0000      -0.538635       -14.6570 
  34   1.0000      -0.533020       -14.5042 
  35   1.0000      -0.524417       -14.2701 
  36   1.0000      -0.511998       -13.9322 
  37   1.0000      -0.498746       -13.5716 
  38   1.0000      -0.492061       -13.3897 
  39   1.0000      -0.476121       -12.9559 
  40   1.0000      -0.470039       -12.7904 
  41   1.0000      -0.466550       -12.6955 
  42   1.0000      -0.461713       -12.5638 
  43   1.0000      -0.450623       -12.2621 
  44   1.0000      -0.444032       -12.0827 
  45   1.0000      -0.434054       -11.8112 
  46   1.0000      -0.422905       -11.5078 
  47   1.0000      -0.410743       -11.1769 
  48   1.0000      -0.397079       -10.8051 
  49   1.0000      -0.349199        -9.5022 
  50   1.0000      -0.338520        -9.2116 
  51   1.0000      -0.328007        -8.9255 
  52   1.0000      -0.317124        -8.6294 
  53   1.0000      -0.314176        -8.5492 
  54   1.0000      -0.245168        -6.6714 
  55   0.0000       0.040039         1.0895 
  56   0.0000       0.049368         1.3434 
  57   0.0000       0.064297         1.7496 
  58   0.0000       0.065256         1.7757 
  59   0.0000       0.071747         1.9523 
  60   0.0000       0.083544         2.2733 
  61   0.0000       0.096601         2.6287 
  62   0.0000       0.106660         2.9024 
  63   0.0000       0.111834         3.0432 
  64   0.0000       0.118546         3.2258 
  65   0.0000       0.124004         3.3743 
  66   0.0000       0.130709         3.5568 
  67   0.0000       0.137065         3.7297 
  68   0.0000       0.145678         3.9641 
  69   0.0000       0.147845         4.0231 
  70   0.0000       0.152076         4.1382 
  71   0.0000       0.157863         4.2957 
  72   0.0000       0.161694         4.3999 
  73   0.0000       0.162665         4.4264 
  74   0.0000       0.170439         4.6379 
  75   0.0000       0.178971         4.8701 
  76   0.0000       0.183818         5.0019 
  77   0.0000       0.191259         5.2044 
  78   0.0000       0.201286         5.4773 
  79   0.0000       0.209021         5.6878 
  80   0.0000       0.214121         5.8265 
  81   0.0000       0.223737         6.0882 
  82   0.0000       0.233218         6.3462 
  83   0.0000       0.238119         6.4796 
  84   0.0000       0.250114         6.8060 
  85   0.0000       0.254206         6.9173 
  86   0.0000       0.257328         7.0022 
  87   0.0000       0.265293         7.2190 
  88   0.0000       0.272717         7.4210 
  89   0.0000       0.283224         7.7069 
  90   0.0000       0.287335         7.8188 
  91   0.0000       0.292014         7.9461 
  92   0.0000       0.300950         8.1893 
  93   0.0000       0.302533         8.2324 
  94   0.0000       0.318310         8.6616 
  95   0.0000       0.332993         9.0612 
  96   0.0000       0.334350         9.0981 
  97   0.0000       0.343825         9.3560 
  98   0.0000       0.351139         9.5550 
  99   0.0000       0.355241         9.6666 
 100   0.0000       0.369824        10.0634 
 101   0.0000       0.382304        10.4030 
 102   0.0000       0.390036        10.6134 
 103   0.0000       0.393749        10.7144 
 104   0.0000       0.404031        10.9942 
 105   0.0000       0.407045        11.0763 
 106   0.0000       0.414754        11.2860 
 107   0.0000       0.423098        11.5131 
 108   0.0000       0.426028        11.5928 
 109   0.0000       0.430315        11.7095 
 110   0.0000       0.435548        11.8519 
 111   0.0000       0.444899        12.1063 
 112   0.0000       0.448166        12.1952 
 113   0.0000       0.450316        12.2537 
 114   0.0000       0.457573        12.4512 
 115   0.0000       0.459622        12.5069 
 116   0.0000       0.465553        12.6683 
 117   0.0000       0.466661        12.6985 
 118   0.0000       0.471830        12.8392 
 119   0.0000       0.477881        13.0038 
 120   0.0000       0.483627        13.1602 
 121   0.0000       0.485164        13.2020 
 122   0.0000       0.493078        13.4173 
 123   0.0000       0.501102        13.6357 
 124   0.0000       0.504008        13.7148 
 125   0.0000       0.504570        13.7300 
 126   0.0000       0.513383        13.9699 
 127   0.0000       0.519410        14.1339 
 128   0.0000       0.524935        14.2842 
 129   0.0000       0.532714        14.4959 
 130   0.0000       0.542138        14.7523 
 131   0.0000       0.545659        14.8481 
 132   0.0000       0.549307        14.9474 
 133   0.0000       0.555469        15.1151 
 134   0.0000       0.566970        15.4280 
 135   0.0000       0.569908        15.5080 
 136   0.0000       0.578290        15.7361 
 137   0.0000       0.585569        15.9341 
 138   0.0000       0.594009        16.1638 
 139   0.0000       0.597618        16.2620 
 140   0.0000       0.600504        16.3406 
 141   0.0000       0.605287        16.4707 
 142   0.0000       0.611291        16.6341 
 143   0.0000       0.617588        16.8054 
 144   0.0000       0.623639        16.9701 
 145   0.0000       0.635175        17.2840 
 146   0.0000       0.640176        17.4201 
 147   0.0000       0.650823        17.7098 
 148   0.0000       0.655342        17.8328 
 149   0.0000       0.668793        18.1988 
 150   0.0000       0.693636        18.8748 
 151   0.0000       0.703337        19.1388 
 152   0.0000       0.716537        19.4980 
 153   0.0000       0.734382        19.9835 
 154   0.0000       0.744402        20.2562 
 155   0.0000       0.758374        20.6364 
 156   0.0000       0.761931        20.7332 
 157   0.0000       0.778317        21.1791 
 158   0.0000       0.789034        21.4707 
 159   0.0000       0.797389        21.6981 
 160   0.0000       0.811784        22.0898 
 161   0.0000       0.821838        22.3633 
 162   0.0000       0.832844        22.6628 
 163   0.0000       0.855960        23.2919 
 164   0.0000       0.863295        23.4914 
 165   0.0000       0.876288        23.8450 
 166   0.0000       0.890590        24.2342 
 167   0.0000       0.898411        24.4470 
 168   0.0000       0.905848        24.6494 
 169   0.0000       0.912680        24.8353 
 170   0.0000       0.931058        25.3354 
 171   0.0000       0.943416        25.6716 
 172   0.0000       0.947656        25.7870 
 173   0.0000       0.958854        26.0917 
 174   0.0000       0.975097        26.5338 
 175   0.0000       0.981204        26.6999 
 176   0.0000       0.996605        27.1190 
 177   0.0000       1.006751        27.3951 
 178   0.0000       1.018425        27.7127 
 179   0.0000       1.028168        27.9779 
 180   0.0000       1.030447        28.0399 
 181   0.0000       1.046332        28.4721 
 182   0.0000       1.064662        28.9709 
 183   0.0000       1.077462        29.3192 
 184   0.0000       1.082589        29.4588 
 185   0.0000       1.087343        29.5881 
 186   0.0000       1.110983        30.2314 
 187   0.0000       1.117993        30.4221 
 188   0.0000       1.130131        30.7524 
 189   0.0000       1.150688        31.3118 
 190   0.0000       1.156209        31.4621 
 191   0.0000       1.169120        31.8134 
 192   0.0000       1.176869        32.0242 
 193   0.0000       1.200044        32.6548 
 194   0.0000       1.219999        33.1979 
 195   0.0000       1.228467        33.4283 
 196   0.0000       1.251932        34.0668 
 197   0.0000       1.252842        34.0916 
 198   0.0000       1.256734        34.1975 
 199   0.0000       1.267498        34.4904 
 200   0.0000       1.288532        35.0627 
 201   0.0000       1.309136        35.6234 
 202   0.0000       1.319063        35.8935 
 203   0.0000       1.331863        36.2418 
 204   0.0000       1.353759        36.8377 
 205   0.0000       1.365506        37.1573 
 206   0.0000       1.374265        37.3957 
 207   0.0000       1.389668        37.8148 
 208   0.0000       1.390236        37.8302 
 209   0.0000       1.403029        38.1784 
 210   0.0000       1.420397        38.6510 
 211   0.0000       1.425524        38.7905 
 212   0.0000       1.434073        39.0231 
 213   0.0000       1.453463        39.5507 
 214   0.0000       1.474799        40.1313 
 215   0.0000       1.485582        40.4247 
 216   0.0000       1.492880        40.6233 
 217   0.0000       1.504750        40.9463 
 218   0.0000       1.518659        41.3248 
 219   0.0000       1.531659        41.6786 
 220   0.0000       1.541493        41.9462 
 221   0.0000       1.549900        42.1749 
 222   0.0000       1.552979        42.2587 
 223   0.0000       1.558389        42.4059 
 224   0.0000       1.562693        42.5230 
 225   0.0000       1.566143        42.6169 
 226   0.0000       1.568766        42.6883 
 227   0.0000       1.580846        43.0170 
 228   0.0000       1.587691        43.2033 
 229   0.0000       1.597715        43.4760 
 230   0.0000       1.605619        43.6911 
 231   0.0000       1.616966        43.9999 
 232   0.0000       1.627035        44.2739 
 233   0.0000       1.637465        44.5577 
 234   0.0000       1.639846        44.6225 
 235   0.0000       1.658173        45.1212 
 236   0.0000       1.668243        45.3952 
 237   0.0000       1.674307        45.5602 
 238   0.0000       1.689268        45.9673 
 239   0.0000       1.696644        46.1680 
 240   0.0000       1.705922        46.4205 
 241   0.0000       1.721312        46.8393 
 242   0.0000       1.751908        47.6718 
 243   0.0000       1.758309        47.8460 
 244   0.0000       1.767101        48.0853 
 245   0.0000       1.774818        48.2953 
 246   0.0000       1.779275        48.4165 
 247   0.0000       1.790211        48.7141 
 248   0.0000       1.812610        49.3236 
 249   0.0000       1.821647        49.5695 
 250   0.0000       1.847363        50.2693 
 251   0.0000       1.853753        50.4432 
 252   0.0000       1.868734        50.8508 
 253   0.0000       1.877498        51.0893 
 254   0.0000       1.896592        51.6089 
 255   0.0000       1.898535        51.6618 
 256   0.0000       1.906155        51.8691 
 257   0.0000       1.909183        51.9515 
 258   0.0000       1.928816        52.4858 
 259   0.0000       1.929918        52.5157 
 260   0.0000       1.944867        52.9225 
 261   0.0000       1.962759        53.4094 
 262   0.0000       1.969993        53.6062 
 263   0.0000       1.975286        53.7503 
 264   0.0000       1.985450        54.0268 
 265   0.0000       1.992214        54.2109 
 266   0.0000       1.998946        54.3941 
 267   0.0000       2.012799        54.7710 
 268   0.0000       2.030230        55.2454 
 269   0.0000       2.034732        55.3679 
 270   0.0000       2.043880        55.6168 
 271   0.0000       2.045943        55.6729 
 272   0.0000       2.050145        55.7873 
 273   0.0000       2.065177        56.1963 
 274   0.0000       2.077390        56.5287 
 275   0.0000       2.089169        56.8492 
 276   0.0000       2.107910        57.3591 
 277   0.0000       2.114153        57.5290 
 278   0.0000       2.138357        58.1877 
 279   0.0000       2.162409        58.8421 
 280   0.0000       2.163069        58.8601 
 281   0.0000       2.178375        59.2766 
 282   0.0000       2.190124        59.5963 
 283   0.0000       2.205573        60.0167 
 284   0.0000       2.224305        60.5264 
 285   0.0000       2.230160        60.6857 
 286   0.0000       2.241530        60.9951 
 287   0.0000       2.249949        61.2242 
 288   0.0000       2.259265        61.4777 
 289   0.0000       2.288625        62.2767 
 290   0.0000       2.296174        62.4821 
 291   0.0000       2.302593        62.6568 
 292   0.0000       2.312329        62.9217 
 293   0.0000       2.325828        63.2890 
 294   0.0000       2.332184        63.4619 
 295   0.0000       2.349754        63.9401 
 296   0.0000       2.351559        63.9892 
 297   0.0000       2.355355        64.0925 
 298   0.0000       2.373293        64.5806 
 299   0.0000       2.381215        64.7961 
 300   0.0000       2.388332        64.9898 
 301   0.0000       2.399262        65.2873 
 302   0.0000       2.424138        65.9641 
 303   0.0000       2.440934        66.4212 
 304   0.0000       2.450010        66.6682 
 305   0.0000       2.454399        66.7876 
 306   0.0000       2.459014        66.9132 
 307   0.0000       2.474920        67.3460 
 308   0.0000       2.500136        68.0322 
 309   0.0000       2.507673        68.2372 
 310   0.0000       2.526017        68.7364 
 311   0.0000       2.534281        68.9613 
 312   0.0000       2.546992        69.3072 
 313   0.0000       2.549257        69.3688 
 314   0.0000       2.560180        69.6660 
 315   0.0000       2.568241        69.8854 
 316   0.0000       2.571142        69.9643 
 317   0.0000       2.578892        70.1752 
 318   0.0000       2.585996        70.3685 
 319   0.0000       2.594297        70.5944 
 320   0.0000       2.615035        71.1587 
 321   0.0000       2.624567        71.4181 
 322   0.0000       2.632887        71.6445 
 323   0.0000       2.635236        71.7084 
 324   0.0000       2.650621        72.1271 
 325   0.0000       2.658158        72.3321 
 326   0.0000       2.671735        72.7016 
 327   0.0000       2.675989        72.8174 
 328   0.0000       2.699136        73.4472 
 329   0.0000       2.699932        73.4689 
 330   0.0000       2.701743        73.5182 
 331   0.0000       2.719326        73.9966 
 332   0.0000       2.728652        74.2504 
 333   0.0000       2.743981        74.6675 
 334   0.0000       2.754350        74.9497 
 335   0.0000       2.766396        75.2775 
 336   0.0000       2.772660        75.4479 
 337   0.0000       2.794615        76.0453 
 338   0.0000       2.813977        76.5722 
 339   0.0000       2.820656        76.7540 
 340   0.0000       2.841088        77.3099 
 341   0.0000       2.857041        77.7441 
 342   0.0000       2.862659        77.8969 
 343   0.0000       2.881568        78.4115 
 344   0.0000       2.889954        78.6396 
 345   0.0000       2.907714        79.1229 
 346   0.0000       2.934006        79.8384 
 347   0.0000       2.944491        80.1237 
 348   0.0000       2.960163        80.5501 
 349   0.0000       2.970005        80.8180 
 350   0.0000       2.979460        81.0752 
 351   0.0000       2.992621        81.4334 
 352   0.0000       3.002582        81.7044 
 353   0.0000       3.012977        81.9873 
 354   0.0000       3.018575        82.1396 
 355   0.0000       3.022701        82.2519 
 356   0.0000       3.047548        82.9280 
 357   0.0000       3.052471        83.0620 
 358   0.0000       3.056930        83.1833 
 359   0.0000       3.063090        83.3509 
 360   0.0000       3.069044        83.5129 
 361   0.0000       3.079513        83.7978 
 362   0.0000       3.100118        84.3585 
 363   0.0000       3.104497        84.4777 
 364   0.0000       3.119161        84.8767 
 365   0.0000       3.123843        85.0041 
 366   0.0000       3.131605        85.2153 
 367   0.0000       3.151360        85.7529 
 368   0.0000       3.160656        86.0058 
 369   0.0000       3.169017        86.2333 
 370   0.0000       3.172473        86.3274 
 371   0.0000       3.173745        86.3620 
 372   0.0000       3.194216        86.9190 
 373   0.0000       3.207695        87.2858 
 374   0.0000       3.219469        87.6062 
 375   0.0000       3.221174        87.6526 
 376   0.0000       3.232781        87.9684 
 377   0.0000       3.247320        88.3641 
 378   0.0000       3.253506        88.5324 
 379   0.0000       3.265205        88.8507 
 380   0.0000       3.274138        89.0938 
 381   0.0000       3.290290        89.5333 
 382   0.0000       3.300541        89.8123 
 383   0.0000       3.304559        89.9216 
 384   0.0000       3.307588        90.0040 
 385   0.0000       3.315108        90.2087 
 386   0.0000       3.320135        90.3455 
 387   0.0000       3.324793        90.4722 
 388   0.0000       3.336211        90.7829 
 389   0.0000       3.343634        90.9849 
 390   0.0000       3.353552        91.2548 
 391   0.0000       3.366360        91.6033 
 392   0.0000       3.374462        91.8238 
 393   0.0000       3.385455        92.1229 
 394   0.0000       3.397250        92.4439 
 395   0.0000       3.400057        92.5203 
 396   0.0000       3.417260        92.9884 
 397   0.0000       3.424088        93.1742 
 398   0.0000       3.429238        93.3143 
 399   0.0000       3.449392        93.8627 
 400   0.0000       3.456620        94.0594 
 401   0.0000       3.470460        94.4360 
 402   0.0000       3.479528        94.6828 
 403   0.0000       3.493593        95.0655 
 404   0.0000       3.512295        95.5744 
 405   0.0000       3.524132        95.8965 
 406   0.0000       3.530909        96.0809 
 407   0.0000       3.545267        96.4716 
 408   0.0000       3.550537        96.6150 
 409   0.0000       3.564603        96.9978 
 410   0.0000       3.587648        97.6249 
 411   0.0000       3.595197        97.8303 
 412   0.0000       3.601081        97.9904 
 413   0.0000       3.635992        98.9404 
 414   0.0000       3.651230        99.3550 
 415   0.0000       3.661250        99.6277 
 416   0.0000       3.707243       100.8792 
 417   0.0000       3.716162       101.1219 
 418   0.0000       3.726954       101.4156 
 419   0.0000       3.763704       102.4156 
 420   0.0000       3.771947       102.6399 
 421   0.0000       3.784719       102.9874 
 422   0.0000       3.812876       103.7536 
 423   0.0000       3.817629       103.8830 
 424   0.0000       3.833216       104.3071 
 425   0.0000       3.843951       104.5992 
 426   0.0000       3.854123       104.8760 
 427   0.0000       3.867767       105.2473 
 428   0.0000       3.880480       105.5932 
 429   0.0000       3.888863       105.8213 
 430   0.0000       3.928087       106.8887 
 431   0.0000       3.930622       106.9577 
 432   0.0000       3.968157       107.9790 
 433   0.0000       3.979415       108.2854 
 434   0.0000       3.998832       108.8138 
 435   0.0000       4.016267       109.2882 
 436   0.0000       4.028775       109.6285 
 437   0.0000       4.061232       110.5117 
 438   0.0000       4.101335       111.6030 
 439   0.0000       4.114316       111.9562 
 440   0.0000       4.122488       112.1786 
 441   0.0000       4.137137       112.5772 
 442   0.0000       4.150358       112.9370 
 443   0.0000       4.182548       113.8129 
 444   0.0000       4.186540       113.9215 
 445   0.0000       4.201578       114.3308 
 446   0.0000       4.223069       114.9156 
 447   0.0000       4.273675       116.2926 
 448   0.0000       4.291277       116.7716 
 449   0.0000       4.319322       117.5347 
 450   0.0000       4.347204       118.2934 
 451   0.0000       4.355286       118.5134 
 452   0.0000       4.371216       118.9468 
 453   0.0000       4.379269       119.1660 
 454   0.0000       4.392101       119.5151 
 455   0.0000       4.411551       120.0444 
 456   0.0000       4.429372       120.5293 
 457   0.0000       4.450368       121.1007 
 458   0.0000       4.469517       121.6217 
 459   0.0000       4.495833       122.3378 
 460   0.0000       4.498338       122.4060 
 461   0.0000       4.532050       123.3233 
 462   0.0000       4.561678       124.1296 
 463   0.0000       4.580343       124.6375 
 464   0.0000       4.626973       125.9063 
 465   0.0000       4.647988       126.4782 
 466   0.0000       4.651205       126.5657 
 467   0.0000       4.676824       127.2629 
 468   0.0000       4.701840       127.9436 
 469   0.0000       4.730829       128.7324 
 470   0.0000       4.757346       129.4540 
 471   0.0000       4.765360       129.6720 
 472   0.0000       4.785107       130.2094 
 473   0.0000       4.816262       131.0572 
 474   0.0000       4.833701       131.5317 
 475   0.0000       4.853301       132.0650 
 476   0.0000       4.874794       132.6499 
 477   0.0000       4.905043       133.4730 
 478   0.0000       4.922551       133.9494 
 479   0.0000       4.979776       135.5066 
 480   0.0000       4.997644       135.9928 
 481   0.0000       5.010598       136.3453 
 482   0.0000       5.021258       136.6354 
 483   0.0000       5.048040       137.3642 
 484   0.0000       5.050862       137.4409 
 485   0.0000       5.102741       138.8526 
 486   0.0000       5.105159       138.9184 
 487   0.0000       5.144883       139.9994 
 488   0.0000       5.175858       140.8422 
 489   0.0000       5.189748       141.2202 
 490   0.0000       5.208314       141.7254 
 491   0.0000       5.221356       142.0803 
 492   0.0000       5.238296       142.5413 
 493   0.0000       5.261907       143.1838 
 494   0.0000       5.263189       143.2186 
 495   0.0000       5.269840       143.3996 
 496   0.0000       5.293656       144.0477 
 497   0.0000       5.306987       144.4104 
 498   0.0000       5.354742       145.7099 
 499   0.0000       5.424847       147.6176 
 500   0.0000       5.434080       147.8688 
 501   0.0000       5.481289       149.1535 
 502   0.0000       5.515511       150.0847 
 503   0.0000       5.528912       150.4493 
 504   0.0000       5.578955       151.8111 
 505   0.0000       5.648385       153.7004 
 506   0.0000       5.673749       154.3906 
 507   0.0000       5.720823       155.6715 
 508   0.0000       5.737924       156.1369 
 509   0.0000       5.770989       157.0366 
 510   0.0000       5.886444       160.1783 
 511   0.0000       5.903907       160.6535 
 512   0.0000       6.085822       165.6036 
 513   0.0000       6.108052       166.2086 
 514   0.0000       6.296436       171.3347 
 515   0.0000       6.302871       171.5099 
 516   0.0000       6.414633       174.5510 
 517   0.0000       6.422800       174.7733 
 518   0.0000       6.547531       178.1674 
 519   0.0000       6.558224       178.4584 
 520   0.0000       6.649263       180.9356 
 521   0.0000       6.660828       181.2503 
 522   0.0000       6.827077       185.7742 
 523   0.0000       6.833596       185.9516 
 524   0.0000       7.045521       191.7184 
 525   0.0000       7.067956       192.3289 
 526   0.0000       7.078060       192.6038 
 527   0.0000       7.098544       193.1612 
 528   0.0000      22.349918       608.1722 
 529   0.0000      22.403558       609.6318 
 530   0.0000      22.471803       611.4888 
 531   0.0000      22.518318       612.7546 
 532   0.0000      22.591520       614.7465 
 533   0.0000      22.629699       615.7854 
 534   0.0000      22.792344       620.2112 
 535   0.0000      23.354310       635.5031 
 536   0.0000      23.377247       636.1272 
 537   0.0000      32.030825       871.6031 
 538   0.0000      32.502716       884.4439 
 539   0.0000      32.681514       889.3092 
 540   0.0000      44.066227      1199.1030 
 541   0.0000      44.105205      1200.1636 

                 SPIN DOWN ORBITALS
  NO   OCC          E(Eh)            E(eV) 
   0   1.0000     -19.609154      -533.5922 
   1   1.0000     -19.586565      -532.9775 
   2   1.0000     -14.790678      -402.4748 
   3   1.0000     -14.769320      -401.8936 
   4   1.0000     -14.726857      -400.7381 
   5   1.0000     -10.659958      -290.0722 
   6   1.0000     -10.643482      -289.6239 
   7   1.0000     -10.595686      -288.3233 
   8   1.0000     -10.581258      -287.9307 
   9   1.0000     -10.564745      -287.4813 
  10   1.0000     -10.547236      -287.0049 
  11   1.0000     -10.542286      -286.8702 
  12   1.0000     -10.540681      -286.8265 
  13   1.0000     -10.537035      -286.7273 
  14   1.0000      -1.171984       -31.8913 
  15   1.0000      -1.148734       -31.2587 
  16   1.0000      -1.044569       -28.4242 
  17   1.0000      -1.030499       -28.0413 
  18   1.0000      -0.984361       -26.7858 
  19   1.0000      -0.901609       -24.5340 
  20   1.0000      -0.853153       -23.2155 
  21   1.0000      -0.825084       -22.4517 
  22   1.0000      -0.802018       -21.8240 
  23   1.0000      -0.762475       -20.7480 
  24   1.0000      -0.709273       -19.3003 
  25   1.0000      -0.683045       -18.5866 
  26   1.0000      -0.654514       -17.8102 
  27   1.0000      -0.634181       -17.2569 
  28   1.0000      -0.619085       -16.8462 
  29   1.0000      -0.566555       -15.4167 
  30   1.0000      -0.557913       -15.1816 
  31   1.0000      -0.551093       -14.9960 
  32   1.0000      -0.546164       -14.8619 
  33   1.0000      -0.537691       -14.6313 
  34   1.0000      -0.528470       -14.3804 
  35   1.0000      -0.523677       -14.2500 
  36   1.0000      -0.509322       -13.8593 
  37   1.0000      -0.497780       -13.5453 
  38   1.0000      -0.487536       -13.2665 
  39   1.0000      -0.473980       -12.8976 
  40   1.0000      -0.469823       -12.7845 
  41   1.0000      -0.461337       -12.5536 
  42   1.0000      -0.459679       -12.5085 
  43   1.0000      -0.448907       -12.2154 
  44   1.0000      -0.438545       -11.9334 
[...]
     60      -0.001228   0.000035  -0.000007   0.000018  -0.000663   0.000003
     61       0.000194   0.000011  -0.000000   0.000004   0.000167   0.000021
     62       0.000131   0.000018  -0.000002   0.000007   0.000157  -0.000021
     63      -0.000645   0.000056   0.000003  -0.000000  -0.000494   0.000002
     64       0.000916  -0.000052   0.000005   0.000005   0.002466  -0.000082
     65       0.005280  -0.000370   0.000017   0.000015   0.004607  -0.000012
     66       0.002403  -0.000206  -0.000004   0.000012   0.000027   0.000028
     67       0.003439  -0.000294   0.000007   0.000022   0.000488   0.000056
     68       0.001129  -0.000073  -0.000002   0.000003   0.000035   0.000013
     69       0.000071   0.015043  -0.000001   0.000006  -0.000008  -0.000084
     70      -0.000175  -0.039932  -0.000002   0.000001  -0.000085  -0.001391
     71       0.000404   0.081795  -0.000004   0.000005  -0.000067   0.000057
     72       0.001022   0.239414   0.000007   0.000009   0.000212   0.000770
     73       0.000612   0.148225   0.000009  -0.000002   0.000267   0.001637
     74      -0.000536  -0.122916  -0.000009   0.000010  -0.000026  -0.000257
     75      -0.000791  -0.199976  -0.000012   0.000007  -0.000194   0.000241
     76       0.000450   0.125568   0.000010  -0.000003   0.000225   0.000453
     77       0.000021   0.010442   0.000001   0.000000   0.000038   0.000383
     78      -0.001016  -0.219331   0.000004   0.000001   0.000001  -0.003366
     79       0.001046   0.210965   0.000000  -0.000002  -0.000424  -0.000315
     80      -0.004213  -0.865104  -0.000002   0.000008   0.000120  -0.012789
     81      -0.001201  -0.000219   0.000016  -0.000003  -0.003974   0.000270
     82       0.000001   0.000167  -0.000005  -0.000005  -0.004410   0.000472
     83       0.000342   0.000410   0.000005  -0.000003   0.006137  -0.001630
     84      -0.000765   0.000144  -0.000053   0.000028   0.000868   0.001224
     85      -0.010169  -0.000381   0.000057   0.000017  -0.001236   0.000572
     86       0.009110   0.000293  -0.000005  -0.000018   0.000770  -0.000071
     87      -0.000637   0.000080  -0.000024   0.000046  -0.000991   0.000345
     88       0.006197  -0.000230  -0.000015   0.000037  -0.000595   0.000300
     89       0.004046  -0.000154  -0.000004   0.000038  -0.000677   0.000395
     90       0.002745   0.000015   0.000228  -0.000309   0.000147  -0.000211
     91       0.005667  -0.000287   0.000441  -0.000064  -0.001115   0.000390
     92       0.002398  -0.000214   0.000286  -0.000085  -0.000439   0.000388
     93       0.008198  -0.000040   0.000212  -0.000096  -0.000117  -0.000209
     94      -0.023820   0.000084  -0.000457   0.000314  -0.000526   0.000105
     95       0.020252  -0.000080   0.000329  -0.000348   0.001192   0.000092


-----------
IR SPECTRUM
-----------

 Mode   freq       eps      Int      T**2         TX        TY        TZ
       cm**-1   L/(mol*cm) km/mol    a.u.
----------------------------------------------------------------------------
  7:     36.76   0.000359    1.81  0.003046  ( 0.052069  0.018176  0.002163)
  8:     49.73   0.000129    0.65  0.000807  (-0.020139  0.017145  0.010353)
  9:     66.08   0.000186    0.94  0.000877  ( 0.028713 -0.004459 -0.005710)
 10:     72.84   0.000025    0.13  0.000108  ( 0.002233 -0.007777 -0.006491)
 11:     86.90   0.002635   13.32  0.009464  (-0.095717 -0.009803  0.014344)
 12:    101.36   0.001253    6.33  0.003858  (-0.038208 -0.048706 -0.005042)
 13:    112.43   0.000093    0.47  0.000259  (-0.012924  0.002409 -0.009261)
 14:    117.74   0.000690    3.49  0.001828  (-0.017458 -0.036278 -0.014383)
 15:    123.78   0.000024    0.12  0.000060  ( 0.006839 -0.003540 -0.000672)
 16:    147.46   0.002692   13.60  0.005697  (-0.058830  0.043948  0.017461)
 17:    162.19   0.000489    2.47  0.000941  (-0.018688 -0.024028 -0.003836)
 18:    207.11   0.000644    3.26  0.000971  ( 0.022134 -0.010798 -0.019081)
 19:    239.21   0.004658   23.54  0.006077  (-0.048106  0.052110  0.032357)
 20:    249.47   0.003330   16.83  0.004165  ( 0.044296 -0.019419 -0.042732)
 21:    297.81   0.001430    7.22  0.001498  (-0.019367  0.032794  0.006892)
 22:    329.63   0.001269    6.41  0.001201  (-0.027901  0.019398  0.006807)
 23:    358.58   0.000077    0.39  0.000067  ( 0.000411  0.001432  0.008035)
 24:    390.57   0.005036   25.45  0.004024  (-0.009611 -0.062341 -0.006722)
 25:    411.05   0.003543   17.91  0.002690  (-0.023703 -0.044037 -0.013742)
 26:    433.85   0.008007   40.46  0.005759  ( 0.073862 -0.017407  0.000786)
 27:    484.92   0.007354   37.17  0.004733  (-0.067529  0.000687  0.013119)
 28:    511.54   0.002372   11.99  0.001447  ( 0.022333  0.024000 -0.019292)
 29:    535.24   0.019919  100.66  0.011613  ( 0.105296  0.007250 -0.021761)
 30:    574.46   0.002944   14.88  0.001599  ( 0.018950  0.034557 -0.006776)
 31:    641.48   0.001945    9.83  0.000946  ( 0.017448 -0.022140 -0.012309)
 32:    658.33   0.000525    2.65  0.000249  (-0.015334 -0.000893  0.003577)
 33:    698.38   0.000236    1.19  0.000105  (-0.008957  0.002909 -0.004081)
 34:    749.92   0.000326    1.65  0.000136  (-0.004123 -0.009792 -0.004758)
 35:    811.99   0.002094   10.58  0.000805  ( 0.026065 -0.000769  0.011174)
 36:    836.08   0.024073  121.65  0.008985  (-0.058162  0.030427 -0.068385)
 37:    889.57   0.000599    3.02  0.000210  ( 0.000886  0.004221 -0.013834)
 38:    928.16   0.003787   19.14  0.001273  ( 0.016644 -0.014051  0.028266)
 39:    936.86   0.000303    1.53  0.000101  (-0.002161  0.008563  0.004785)
 40:    994.37   0.003824   19.32  0.001200  ( 0.005707 -0.034169  0.000008)
 41:   1009.45   0.001196    6.05  0.000370  ( 0.010238 -0.010455 -0.012478)
 42:   1039.95   0.000837    4.23  0.000251  ( 0.014520 -0.002789  0.005705)
 43:   1047.55   0.000675    3.41  0.000201  (-0.009946  0.003715 -0.009400)
 44:   1061.93   0.001205    6.09  0.000354  ( 0.018689  0.001421 -0.001700)
 45:   1077.76   0.001411    7.13  0.000409  (-0.006538  0.013478 -0.013568)
 46:   1105.97   0.001116    5.64  0.000315  ( 0.015890  0.005903 -0.005246)
 47:   1117.50   0.001961    9.91  0.000548  (-0.020401 -0.011310 -0.001891)
 48:   1152.99   0.000470    2.38  0.000127  (-0.007978 -0.007122  0.003589)
 49:   1158.35   0.000328    1.66  0.000088  (-0.006147 -0.005380 -0.004663)
 50:   1160.16   0.000109    0.55  0.000029  ( 0.001172 -0.000546 -0.005261)
 51:   1169.25   0.000938    4.74  0.000250  ( 0.004833  0.013103 -0.007436)
 52:   1182.70   0.007112   35.94  0.001876  (-0.001106 -0.042381  0.008894)
 53:   1228.23   0.000830    4.19  0.000211  (-0.002712  0.014038 -0.002520)
 54:   1231.99   0.001072    5.42  0.000272  ( 0.003395 -0.016028 -0.001798)
 55:   1254.05   0.009019   45.58  0.002244  ( 0.001686  0.047258  0.002844)
 56:   1277.18   0.003962   20.02  0.000968  ( 0.023816  0.019415  0.004882)
 57:   1304.07   0.004743   23.97  0.001135  ( 0.014993 -0.029254 -0.007376)
 58:   1313.65   0.001227    6.20  0.000292  ( 0.001193 -0.017029 -0.000421)
 59:   1333.25   0.001719    8.69  0.000402  ( 0.004471 -0.017350 -0.009018)
 60:   1370.54   0.003943   19.93  0.000898  (-0.005359 -0.028642 -0.006980)
 61:   1386.83   0.000581    2.94  0.000131  (-0.002674 -0.009270 -0.006133)
 62:   1408.45   0.009100   45.99  0.002016  ( 0.015699 -0.041940  0.003301)
 63:   1415.65   0.001330    6.72  0.000293  ( 0.016385  0.001334 -0.004794)
 64:   1447.77   0.003088   15.60  0.000666  (-0.003464  0.009799 -0.023612)
 65:   1458.19   0.001554    7.85  0.000333  ( 0.012901  0.007991  0.010116)
 66:   1466.81   0.000182    0.92  0.000039  ( 0.004396  0.000815  0.004318)
 67:   1474.25   0.003940   19.91  0.000834  (-0.010601 -0.023573 -0.012882)
 68:   1489.79   0.010325   52.18  0.002163  ( 0.010459 -0.036126 -0.027357)
 69:   1493.91   0.001590    8.03  0.000332  (-0.013427  0.008126 -0.009263)
 70:   1500.14   0.000608    3.07  0.000127  (-0.007432 -0.000919  0.008393)
 71:   1507.21   0.003192   16.13  0.000661  (-0.018206 -0.018024  0.002126)
 72:   1510.33   0.013785   69.66  0.002848  ( 0.000534 -0.052528 -0.009423)
 73:   1545.36   0.092036  465.11  0.018585  (-0.039759  0.130281  0.005600)
 74:   1594.51   0.032290  163.18  0.006320  (-0.018308 -0.074590  0.020512)
 75:   1647.77   0.008037   40.62  0.001522  ( 0.023533  0.030950 -0.003230)
 76:   1778.02   0.086374  436.50  0.015160  ( 0.002826  0.004397  0.123014)
 77:   1791.22   0.017157   86.71  0.002989  (-0.017204  0.049137 -0.016693)
 78:   2973.17   0.002053   10.38  0.000215  (-0.003459 -0.012918 -0.006055)
 79:   2981.21   0.011308   57.14  0.001184  ( 0.012047  0.005489  0.031755)
 80:   3001.12   0.005888   29.76  0.000612  ( 0.012367 -0.021275  0.002588)
 81:   3055.30   0.000722    3.65  0.000074  ( 0.000602 -0.007201  0.004644)
 82:   3070.45   0.002783   14.06  0.000283  (-0.005218  0.007063 -0.014342)
 83:   3077.28   0.009899   50.02  0.001004  (-0.003062 -0.031534  0.000250)
 84:   3083.81   0.003634   18.36  0.000368  ( 0.004431  0.015497 -0.010389)
 85:   3089.06   0.000553    2.80  0.000056  (-0.001905  0.003454 -0.006350)
 86:   3128.26   0.001960    9.91  0.000196  ( 0.001877  0.013682 -0.002198)
 87:   3142.57   0.002993   15.13  0.000297  ( 0.016716  0.001347 -0.003999)
 88:   3169.69   0.000622    3.14  0.000061  (-0.004631 -0.000742  0.006262)
 89:   3185.13   0.001096    5.54  0.000107  (-0.000363 -0.003999 -0.009552)
 90:   3188.45   0.001548    7.82  0.000151  (-0.002933  0.003266 -0.011498)
 91:   3190.09   0.000006    0.03  0.000001  ( 0.000108 -0.000446  0.000632)
 92:   3525.55   0.000060    0.31  0.000005  ( 0.000168 -0.002305  0.000040)
 93:   3614.28   0.000913    4.62  0.000079  ( 0.004973 -0.004231 -0.006019)
 94:   3619.70   0.019554   98.82  0.001686  ( 0.003786  0.023549  0.033421)
 95:   3658.72   0.008177   41.32  0.000697  (-0.002229  0.009632 -0.024489)

* The epsilon (eps) is given for a Dirac delta lineshape.
** The dipole moment derivative (T) already includes vibrational overlap.

The first frequency considered to be a vibration is 7
The total number of vibrations considered is 89


--------------------------
THERMOCHEMISTRY AT 298.15K
--------------------------

Temperature         ... 298.15 K
Pressure            ... 1.00 atm
Total Mass          ... 200.26 AMU

Throughout the following assumptions are being made:
  (1) The electronic state is orbitally nondegenerate
      but the spin degeneracy is treated
  (2) There are no thermally accessible electronically excited states
  (3) Hindered rotations indicated by low frequency modes are not
      treated as such but are treated as vibrations and this may
      cause some error
  (4) All equations used are the standard statistical mechanics
      equations for an ideal gas
  (5) All vibrations are strictly harmonic

freq.      36.76  E(vib)   ...       0.54 
freq.      49.73  E(vib)   ...       0.52 
freq.      66.08  E(vib)   ...       0.50 
freq.      72.84  E(vib)   ...       0.49 
freq.      86.90  E(vib)   ...       0.48 
freq.     101.36  E(vib)   ...       0.46 
freq.     112.43  E(vib)   ...       0.45 
freq.     117.74  E(vib)   ...       0.44 
freq.     123.78  E(vib)   ...       0.43 
freq.     147.46  E(vib)   ...       0.41 
freq.     162.19  E(vib)   ...       0.39 
freq.     207.11  E(vib)   ...       0.34 
freq.     239.21  E(vib)   ...       0.31 
freq.     249.47  E(vib)   ...       0.31 
freq.     297.81  E(vib)   ...       0.27 
freq.     329.63  E(vib)   ...       0.24 
freq.     358.58  E(vib)   ...       0.22 
freq.     390.57  E(vib)   ...       0.20 
freq.     411.05  E(vib)   ...       0.19 
freq.     433.85  E(vib)   ...       0.17 
freq.     484.92  E(vib)   ...       0.15 
freq.     511.54  E(vib)   ...       0.14 
freq.     535.24  E(vib)   ...       0.13 
freq.     574.46  E(vib)   ...       0.11 
freq.     641.48  E(vib)   ...       0.09 
freq.     658.33  E(vib)   ...       0.08 
freq.     698.38  E(vib)   ...       0.07 
freq.     749.92  E(vib)   ...       0.06 
freq.     811.99  E(vib)   ...       0.05 
freq.     836.08  E(vib)   ...       0.04 
freq.     889.57  E(vib)   ...       0.04 
freq.     928.16  E(vib)   ...       0.03 
freq.     936.86  E(vib)   ...       0.03 
freq.     994.37  E(vib)   ...       0.02 
freq.    1009.45  E(vib)   ...       0.02 
freq.    1039.95  E(vib)   ...       0.02 
freq.    1047.55  E(vib)   ...       0.02 
freq.    1061.93  E(vib)   ...       0.02 
freq.    1077.76  E(vib)   ...       0.02 
freq.    1105.97  E(vib)   ...       0.02 
freq.    1117.50  E(vib)   ...       0.01 
freq.    1152.99  E(vib)   ...       0.01 
freq.    1158.35  E(vib)   ...       0.01 
freq.    1160.16  E(vib)   ...       0.01 
freq.    1169.25  E(vib)   ...       0.01 
freq.    1182.70  E(vib)   ...       0.01 
freq.    1228.23  E(vib)   ...       0.01 
freq.    1231.99  E(vib)   ...       0.01 
freq.    1254.05  E(vib)   ...       0.01 
freq.    1277.18  E(vib)   ...       0.01 
freq.    1304.07  E(vib)   ...       0.01 
freq.    1313.65  E(vib)   ...       0.01 
freq.    1333.25  E(vib)   ...       0.01 
freq.    1370.54  E(vib)   ...       0.01 
freq.    1386.83  E(vib)   ...       0.00 
freq.    1408.45  E(vib)   ...       0.00 
freq.    1415.65  E(vib)   ...       0.00 
freq.    1447.77  E(vib)   ...       0.00 
freq.    1458.19  E(vib)   ...       0.00 
freq.    1466.81  E(vib)   ...       0.00 
freq.    1474.25  E(vib)   ...       0.00 
freq.    1489.79  E(vib)   ...       0.00 
freq.    1493.91  E(vib)   ...       0.00 
freq.    1500.14  E(vib)   ...       0.00 
freq.    1507.21  E(vib)   ...       0.00 
freq.    1510.33  E(vib)   ...       0.00 
freq.    1545.36  E(vib)   ...       0.00 
freq.    1594.51  E(vib)   ...       0.00 
freq.    1647.77  E(vib)   ...       0.00 
freq.    1778.02  E(vib)   ...       0.00 
freq.    1791.22  E(vib)   ...       0.00 
freq.    2973.17  E(vib)   ...       0.00 
freq.    2981.21  E(vib)   ...       0.00 
freq.    3001.12  E(vib)   ...       0.00 
freq.    3055.30  E(vib)   ...       0.00 
freq.    3070.45  E(vib)   ...       0.00 
freq.    3077.28  E(vib)   ...       0.00 
freq.    3083.81  E(vib)   ...       0.00 
freq.    3089.06  E(vib)   ...       0.00 
freq.    3128.26  E(vib)   ...       0.00 
freq.    3142.57  E(vib)   ...       0.00 
freq.    3169.69  E(vib)   ...       0.00 
freq.    3185.13  E(vib)   ...       0.00 
freq.    3188.45  E(vib)   ...       0.00 
freq.    3190.09  E(vib)   ...       0.00 
freq.    3525.55  E(vib)   ...       0.00 
freq.    3614.28  E(vib)   ...       0.00 
freq.    3619.70  E(vib)   ...       0.00 
freq.    3658.72  E(vib)   ...       0.00 

------------
INNER ENERGY
------------

The inner energy is: U= E(el) + E(ZPE) + E(vib) + E(rot) + E(trans)
    E(el)   - is the total energy from the electronic structure calculation
              = E(kin-el) + E(nuc-el) + E(el-el) + E(nuc-nuc)
    E(ZPE)  - the the zero temperature vibrational energy from the frequency calculation
    E(vib)  - the the finite temperature correction to E(ZPE) due to population
              of excited vibrational states
    E(rot)  - is the rotational thermal energy
    E(trans)- is the translational thermal energy

Summary of contributions to the inner energy U:
Electronic energy                ...   -668.44530303 Eh
Zero point energy                ...      0.27682561 Eh     173.71 kcal/mol
Thermal vibrational correction   ...      0.01385683 Eh       8.70 kcal/mol
Thermal rotational correction    ...      0.00141627 Eh       0.89 kcal/mol
Thermal translational correction ...      0.00141627 Eh       0.89 kcal/mol
-----------------------------------------------------------------------
Total thermal energy                   -668.15178804 Eh


Summary of corrections to the electronic energy:
(perhaps to be used in another calculation)
Total thermal correction                  0.01668938 Eh      10.47 kcal/mol
Non-thermal (ZPE) correction              0.27682561 Eh     173.71 kcal/mol
-----------------------------------------------------------------------
Total correction                          0.29351499 Eh     184.18 kcal/mol


--------
ENTHALPY
--------

The enthalpy is H = U + kB*T
                kB is Boltzmann's constant
Total free energy                 ...   -668.15178804 Eh 
Thermal Enthalpy correction       ...      0.00094421 Eh       0.59 kcal/mol
-----------------------------------------------------------------------
Total Enthalpy                    ...   -668.15084383 Eh


Note: Only C1 symmetry has been detected, increase convergence thresholds 
      if your molecule has a higher symmetry. Symmetry factor of 1.0 is   
      used for the rotational entropy correction. 
 

Note: Rotational entropy computed according to Herzberg 
Infrared and Raman Spectra, Chapter V,1, Van Nostrand Reinhold, 1945 
Point Group:  C1, Symmetry Number:   1  
Rotational constants in cm-1:     0.019842     0.013825     0.009244 

Vibrational entropy computed according to the QRRHO of S. Grimme
Chem.Eur.J. 2012 18 9955


-------
ENTROPY
-------

The entropy contributions are T*S = T*(S(el)+S(vib)+S(rot)+S(trans))
     S(el)   - electronic entropy
     S(vib)  - vibrational entropy
     S(rot)  - rotational entropy
     S(trans)- translational entropy
The entropies will be listed as multiplied by the temperature to get
units of energy

Electronic entropy                ...      0.00065446 Eh      0.41 kcal/mol
Vibrational entropy               ...      0.02508360 Eh     15.74 kcal/mol
Rotational entropy                ...      0.01559369 Eh      9.79 kcal/mol
Translational entropy             ...      0.01985478 Eh     12.46 kcal/mol
-----------------------------------------------------------------------
Final entropy term                ...      0.06118653 Eh     38.40 kcal/mol

In case the symmetry of your molecule has not been determined correctly
or in case you have a reason to use a different symmetry number we print 
out the resulting rotational entropy values for sn=1,12 :
 --------------------------------------------------------
|  sn= 1 | S(rot)=       0.01559369 Eh      9.79 kcal/mol|
|  sn= 2 | S(rot)=       0.01493924 Eh      9.37 kcal/mol|
|  sn= 3 | S(rot)=       0.01455640 Eh      9.13 kcal/mol|
|  sn= 4 | S(rot)=       0.01428478 Eh      8.96 kcal/mol|
|  sn= 5 | S(rot)=       0.01407409 Eh      8.83 kcal/mol|
|  sn= 6 | S(rot)=       0.01390195 Eh      8.72 kcal/mol|
|  sn= 7 | S(rot)=       0.01375640 Eh      8.63 kcal/mol|
|  sn= 8 | S(rot)=       0.01363032 Eh      8.55 kcal/mol|
|  sn= 9 | S(rot)=       0.01351911 Eh      8.48 kcal/mol|
|  sn=10 | S(rot)=       0.01341964 Eh      8.42 kcal/mol|
|  sn=11 | S(rot)=       0.01332965 Eh      8.36 kcal/mol|
|  sn=12 | S(rot)=       0.01324749 Eh      8.31 kcal/mol|
 --------------------------------------------------------


-------------------
GIBBS FREE ENERGY
-------------------

The Gibbs free energy is G = H - T*S

Total enthalpy                    ...   -668.15084383 Eh 
Total entropy correction          ...     -0.06118653 Eh    -38.40 kcal/mol
-----------------------------------------------------------------------
Final Gibbs free energy         ...   -668.21203036 Eh

For completeness - the Gibbs free energy minus the electronic energy
G-E(el)                           ...      0.23327266 Eh    146.38 kcal/mol


Timings for individual modules:

Sum of individual times         ...     1805.145 sec (=  30.086 min)
GTO integral calculation        ...       53.664 sec (=   0.894 min)   3.0 %
SCF iterations                  ...      766.098 sec (=  12.768 min)  42.4 %
SCF Gradient evaluation         ...      233.433 sec (=   3.891 min)  12.9 %
Geometry relaxation             ...        0.861 sec (=   0.014 min)   0.0 %
Analytical frequency calculation...      751.089 sec (=  12.518 min)  41.6 %
                             ****ORCA TERMINATED NORMALLY****
TOTAL RUN TIME: 0 days 0 hours 30 minutes 51 seconds 576 msec
