
                                 *****************
                                 * O   R   C   A *
                                 *****************

                                            #,                                       
                                            ###                                      
                                            ####                                     
                                            #####                                    
                                            ######                                   
                                           ########,                                 
                                     ,,################,,,,,                         
                               ,,#################################,,                 
                          ,,##########################################,,             
                       ,#########################################, ''#####,          
                    ,#############################################,,   '####,        
                  ,##################################################,,,,####,       
                ,###########''''           ''''###############################       
              ,#####''   ,,,,##########,,,,          '''####'''          '####       
            ,##' ,,,,###########################,,,                        '##       
           ' ,,###''''                  '''############,,,                           
         ,,##''                                '''############,,,,        ,,,,,,###''
      ,#''                                            '''#######################'''  
     '                                                          ''''####''''         
             ,#######,   #######,   ,#######,      ##                                
            ,#'     '#,  ##    ##  ,#'     '#,    #''#        ######   ,####,        
            ##       ##  ##   ,#'  ##            #'  '#       #        #'  '#        
            ##       ##  #######   ##           ,######,      #####,   #    #        
            '#,     ,#'  ##    ##  '#,     ,#' ,#      #,         ##   #,  ,#        
             '#######'   ##     ##  '#######'  #'      '#     #####' # '####'        



                  #######################################################
                  #                        -***-                        #
                  #          Department of theory and spectroscopy      #
                  #    Directorship and core code : Frank Neese         #
                  #        Max Planck Institute fuer Kohlenforschung    #
                  #                Kaiser Wilhelm Platz 1               #
                  #                 D-45470 Muelheim/Ruhr               #
                  #                      Germany                        #
                  #                                                     #
                  #                  All rights reserved                #
                  #                        -***-                        #
                  #######################################################


                         Program Version 5.0.4 -  RELEASE  -


 With contributions from (in alphabetic order):
   Daniel Aravena         : Magnetic Suceptibility
   Michael Atanasov       : Ab Initio Ligand Field Theory (pilot matlab implementation)
   Alexander A. Auer      : GIAO ZORA, VPT2 properties, NMR spectrum
   Ute Becker             : Parallelization
   Giovanni Bistoni       : ED, misc. LED, open-shell LED, HFLD
   Martin Brehm           : Molecular dynamics
   Dmytro Bykov           : SCF Hessian
   Vijay G. Chilkuri      : MRCI spin determinant printing, contributions to CSF-ICE
   Dipayan Datta          : RHF DLPNO-CCSD density
   Achintya Kumar Dutta   : EOM-CC, STEOM-CC
   Dmitry Ganyushin       : Spin-Orbit,Spin-Spin,Magnetic field MRCI
   Miquel Garcia          : C-PCM and meta-GGA Hessian, CC/C-PCM, Gaussian charge scheme
   Yang Guo               : DLPNO-NEVPT2, F12-NEVPT2, CIM, IAO-localization
   Andreas Hansen         : Spin unrestricted coupled pair/coupled cluster methods
   Benjamin Helmich-Paris : MC-RPA, TRAH-SCF, COSX integrals
   Lee Huntington         : MR-EOM, pCC
   Robert Izsak           : Overlap fitted RIJCOSX, COSX-SCS-MP3, EOM
   Marcus Kettner         : VPT2
   Christian Kollmar      : KDIIS, OOCD, Brueckner-CCSD(T), CCSD density, CASPT2, CASPT2-K
   Simone Kossmann        : Meta GGA functionals, TD-DFT gradient, OOMP2, MP2 Hessian
   Martin Krupicka        : Initial AUTO-CI
   Lucas Lang             : DCDCAS
   Marvin Lechner         : AUTO-CI (C++ implementation), FIC-MRCC
   Dagmar Lenk            : GEPOL surface, SMD
   Dimitrios Liakos       : Extrapolation schemes; Compound Job, initial MDCI parallelization
   Dimitrios Manganas     : Further ROCIS development; embedding schemes
   Dimitrios Pantazis     : SARC Basis sets
   Anastasios Papadopoulos: AUTO-CI, single reference methods and gradients
   Taras Petrenko         : DFT Hessian,TD-DFT gradient, ASA, ECA, R-Raman, ABS, FL, XAS/XES, NRVS
   Peter Pinski           : DLPNO-MP2, DLPNO-MP2 Gradient
   Christoph Reimann      : Effective Core Potentials
   Marius Retegan         : Local ZFS, SOC
   Christoph Riplinger    : Optimizer, TS searches, QM/MM, DLPNO-CCSD(T), (RO)-DLPNO pert. Triples
   Tobias Risthaus        : Range-separated hybrids, TD-DFT gradient, RPA, STAB
   Michael Roemelt        : Original ROCIS implementation
   Masaaki Saitow         : Open-shell DLPNO-CCSD energy and density
   Barbara Sandhoefer     : DKH picture change effects
   Avijit Sen             : IP-ROCIS
   Kantharuban Sivalingam : CASSCF convergence, NEVPT2, FIC-MRCI
   Bernardo de Souza      : ESD, SOC TD-DFT
   Georgi Stoychev        : AutoAux, RI-MP2 NMR, DLPNO-MP2 response
   Willem Van den Heuvel  : Paramagnetic NMR
   Boris Wezisla          : Elementary symmetry handling
   Frank Wennmohs         : Technical directorship


 We gratefully acknowledge several colleagues who have allowed us to
 interface, adapt or use parts of their codes:
   Stefan Grimme, W. Hujo, H. Kruse, P. Pracht,  : VdW corrections, initial TS optimization,
                  C. Bannwarth, S. Ehlert          DFT functionals, gCP, sTDA/sTD-DF
   Ed Valeev, F. Pavosevic, A. Kumar             : LibInt (2-el integral package), F12 methods
   Garnet Chan, S. Sharma, J. Yang, R. Olivares  : DMRG
   Ulf Ekstrom                                   : XCFun DFT Library
   Mihaly Kallay                                 : mrcc  (arbitrary order and MRCC methods)
   Jiri Pittner, Ondrej Demel                    : Mk-CCSD
   Frank Weinhold                                : gennbo (NPA and NBO analysis)
   Christopher J. Cramer and Donald G. Truhlar   : smd solvation model
   Lars Goerigk                                  : TD-DFT with DH, B97 family of functionals
   V. Asgeirsson, H. Jonsson                     : NEB implementation
   FAccTs GmbH                                   : IRC, NEB, NEB-TS, DLPNO-Multilevel, CI-OPT
                                                   MM, QMMM, 2- and 3-layer-ONIOM, Crystal-QMMM,
                                                   LR-CPCM, SF, NACMEs, symmetry and pop. for TD-DFT,
                                                   nearIR, NL-DFT gradient (VV10), updates on ESD,
                                                   ML-optimized integration grids
   S Lehtola, MJT Oliveira, MAL Marques          : LibXC Library
   Liviu Ungur et al                             : ANISO software


 Your calculation uses the libint2 library for the computation of 2-el integrals
 For citations please refer to: http://libint.valeyev.net

 Your ORCA version has been built with support for libXC version: 5.1.0
 For citations please refer to: https://tddft.org/programs/libxc/

 This ORCA versions uses:
   CBLAS   interface :  Fast vector & matrix operations
   LAPACKE interface :  Fast linear algebra routines
   SCALAPACK package :  Parallel linear algebra routines
   Shared memory     :  Shared parallel matrices
   BLAS/LAPACK       :  OpenBLAS 0.3.15  USE64BITINT DYNAMIC_ARCH NO_AFFINITY Zen SINGLE_THREADED
        Core in use  :  Zen
   Copyright (c) 2011-2014, The OpenBLAS Project




***************************************
The coordinates will be read from file: model.xyz
***************************************


================================================================================

----- Orbital basis set information -----
Your calculation utilizes the basis: EPR-II
   V. Barone, in Recent Advances in Density Functional Methods, Part 1 (ed. D. P. Chong), World Scientific, Singapore, 1995, p. 287.

----- AuxJ basis set information -----
Your calculation utilizes the auxiliary basis: def2/J
   F. Weigend, Phys. Chem. Chem. Phys. 8, 1057 (2006).

================================================================================
                                        WARNINGS
                       Please study these warnings very carefully!
================================================================================


WARNING: your system is open-shell and RHF/RKS was chosen
  ===> : WILL SWITCH to UHF/UKS


WARNING: Geometry Optimization
  ===> : Switching off AutoStart
         For restart on a previous wavefunction, please use MOREAD

INFO   : the flag for use of the SHARK integral package has been found!

================================================================================
                                       INPUT FILE
================================================================================
NAME = opt.inp
|  1> ! B3LYP EPR-II OPT
|  2> %pal nprocs 16 end
|  3> *XYZFile 0 2 model.xyz
|  4> 
|  5>                          ****END OF INPUT****
================================================================================

                       *****************************
                       * Geometry Optimization Run *
                       *****************************

Geometry optimization settings:
Update method            Update   .... BFGS
Choice of coordinates    CoordSys .... Z-matrix Internals
Initial Hessian          InHess   .... Almoef's Model

Convergence Tolerances:
Energy Change            TolE     ....  5.0000e-06 Eh
Max. Gradient            TolMAXG  ....  3.0000e-04 Eh/bohr
RMS Gradient             TolRMSG  ....  1.0000e-04 Eh/bohr
Max. Displacement        TolMAXD  ....  4.0000e-03 bohr
RMS Displacement         TolRMSD  ....  2.0000e-03 bohr
Strict Convergence                ....  False
------------------------------------------------------------------------------
                        ORCA OPTIMIZATION COORDINATE SETUP
------------------------------------------------------------------------------

The optimization will be done in new redundant internal coordinates
Making redundant internal coordinates   ...  (new redundants) done
Evaluating the initial hessian          ...  (Almloef) done
Evaluating the coordinates              ...  done
Calculating the B-matrix                .... done
Calculating the G-matrix                .... done
Diagonalizing the G-matrix              .... done
Small eigenvalue found = 6.212e-03
Small eigenvalue found = 7.076e-03
Small eigenvalue found = 9.780e-03
Small eigenvalue found = 2.238e-02
Small eigenvalue found = 2.911e-02
The first mode is                       ....   63
The number of degrees of freedom        ....   90

    -----------------------------------------------------------------
                    Redundant Internal Coordinates


    -----------------------------------------------------------------
         Definition                    Initial Value    Approx d2E/dq
    -----------------------------------------------------------------
      1. B(C   1,N   0)                  1.4433         0.460019   
      2. B(C   2,C   1)                  1.5399         0.360178   
      3. B(O   3,C   2)                  1.2170         1.056613   
      4. B(C   4,C   1)                  1.5498         0.347349   
      5. B(C   5,C   4)                  1.5393         0.361018   
      6. B(C   6,C   5)                  1.4993         0.418150   
      7. B(C   7,C   6)                  1.4989         0.418752   
      8. B(N   8,C   7)                  1.4646         0.425497   
      9. B(H   9,C   6)                  1.0911         0.358651   
     10. B(H  10,C   7)                  1.1063         0.339190   
     11. B(H  11,C   7)                  1.1071         0.338131   
     12. B(H  12,N   8)                  1.0145         0.425670   
     13. B(H  13,N   8)                  1.0152         0.424537   
     14. B(H  14,N   0)                  1.0112         0.430883   
     15. B(C  15,N   0)                  1.3564         0.633106   
     16. B(N  16,C   2)                  1.3531         0.640867   
     17. B(H  17,N  16)                  1.0083         0.435421   
     18. B(O  18,C  15)                  1.2171         1.056111   
     19. B(C  19,C  15)                  1.5228         0.383636   
     20. B(H  20,C  19)                  1.0963         0.351913   
     21. B(H  21,C  19)                  1.0949         0.353645   
     22. B(H  22,C  19)                  1.0954         0.353054   
     23. B(C  23,N  16)                  1.4498         0.449165   
     24. B(H  24,C  23)                  1.0967         0.351338   
     25. B(H  25,C  23)                  1.0978         0.349981   
     26. B(H  26,C  23)                  1.0933         0.355761   
     27. B(H  27,C   1)                  1.0990         0.348430   
     28. B(H  28,C   4)                  1.0999         0.347225   
     29. B(H  29,C   4)                  1.0968         0.351191   
     30. B(H  30,C   5)                  1.1079         0.337174   
     31. B(H  31,C   5)                  1.1007         0.346180   
     32. A(C   1,N   0,H  14)          115.6612         0.340813   
     33. A(C   1,N   0,C  15)          121.7568         0.407746   
     34. A(H  14,N   0,C  15)          121.8025         0.359689   
     35. A(C   2,C   1,H  27)          109.3048         0.320648   
     36. A(N   0,C   1,C   4)          112.5100         0.369559   
     37. A(C   4,C   1,H  27)          107.8435         0.318754   
     38. A(N   0,C   1,C   2)          107.2122         0.371872   
     39. A(N   0,C   1,H  27)          108.2525         0.331823   
     40. A(C   2,C   1,C   4)          111.6402         0.356647   
     41. A(C   1,C   2,N  16)          114.7563         0.393916   
     42. A(O   3,C   2,N  16)          123.5342         0.474817   
     43. A(C   1,C   2,O   3)          121.7030         0.430452   
     44. A(C   1,C   4,H  29)          107.0080         0.319165   
     45. A(C   1,C   4,C   5)          113.8675         0.356788   
     46. A(C   5,C   4,H  28)          109.4004         0.320589   
     47. A(H  28,C   4,H  29)          107.0834         0.288051   
     48. A(C   1,C   4,H  28)          108.9371         0.318574   
     49. A(C   5,C   4,H  29)          110.3037         0.321185   
     50. A(C   4,C   5,C   6)          112.4202         0.368272   
     51. A(C   6,C   5,H  30)          110.1383         0.326832   
     52. A(C   4,C   5,H  31)          109.5110         0.320431   
     53. A(H  30,C   5,H  31)          105.3899         0.286090   
     54. A(C   4,C   5,H  30)          109.2416         0.319054   
     55. A(C   6,C   5,H  31)          109.8972         0.328255   
     56. A(C   5,C   6,C   7)          121.3931         0.377808   
     57. A(C   7,C   6,H   9)          116.9939         0.330258   
     58. A(C   5,C   6,H   9)          119.6154         0.330180   
     59. A(H  10,C   7,H  11)          105.7903         0.285308   
     60. A(N   8,C   7,H  11)          113.8480         0.325959   
     61. A(C   6,C   7,H  11)          109.0344         0.327062   
     62. A(N   8,C   7,H  10)          107.1847         0.326127   
     63. A(C   6,C   7,H  10)          109.9860         0.327231   
     64. A(C   6,C   7,N   8)          110.8303         0.376563   
     65. A(H  12,N   8,H  13)          107.6311         0.301544   
     66. A(C   7,N   8,H  13)          110.3506         0.335576   
     67. A(C   7,N   8,H  12)          111.1144         0.335725   
     68. A(O  18,C  15,C  19)          121.8701         0.435326   
     69. A(N   0,C  15,C  19)          115.8969         0.397450   
     70. A(N   0,C  15,O  18)          122.2330         0.473714   
     71. A(C   2,N  16,H  17)          118.1974         0.361081   
     72. A(H  17,N  16,C  23)          118.5396         0.340050   
     73. A(C   2,N  16,C  23)          123.2628         0.406903   
     74. A(C  15,C  19,H  22)          108.3966         0.324682   
     75. A(H  20,C  19,H  21)          109.3869         0.288971   
     76. A(C  15,C  19,H  21)          113.3286         0.324771   
     77. A(C  15,C  19,H  20)          108.2126         0.324509   
     78. A(H  21,C  19,H  22)          109.6686         0.289118   
     79. A(H  20,C  19,H  22)          107.6845         0.288895   
     80. A(H  25,C  23,H  26)          109.0367         0.288992   
     81. A(H  24,C  23,H  26)          109.1950         0.289167   
     82. A(N  16,C  23,H  26)          107.8407         0.331655   
     83. A(H  24,C  23,H  25)          109.0650         0.288427   
     84. A(N  16,C  23,H  25)          111.2162         0.330758   
     85. A(N  16,C  23,H  24)          110.4479         0.330969   
     86. D(C   4,C   1,N   0,C  15)     79.0937         0.018065   
     87. D(C   4,C   1,N   0,H  14)   -110.8500         0.018065   
     88. D(C   2,C   1,N   0,C  15)   -157.7937         0.018065   
     89. D(C   2,C   1,N   0,H  14)     12.2627         0.018065   
     90. D(H  27,C   1,N   0,C  15)    -39.9801         0.018065   
     91. D(H  27,C   1,N   0,H  14)    130.0763         0.018065   
     92. D(O   3,C   2,C   1,C   4)    110.7623         0.009754   
     93. D(N  16,C   2,C   1,N   0)    168.0080         0.009754   
     94. D(N  16,C   2,C   1,C   4)    -68.3440         0.009754   
     95. D(O   3,C   2,C   1,N   0)    -12.8856         0.009754   
     96. D(N  16,C   2,C   1,H  27)     50.8827         0.009754   
     97. D(O   3,C   2,C   1,H  27)   -130.0110         0.009754   
     98. D(C   5,C   4,C   1,N   0)     62.6251         0.009733   
     99. D(C   5,C   4,C   1,C   2)    -57.9735         0.009733   
    100. D(H  29,C   4,C   1,C   2)    179.8764         0.009733   
    101. D(H  29,C   4,C   1,N   0)    -59.5251         0.009733   
    102. D(H  29,C   4,C   1,H  27)     59.7872         0.009733   
    103. D(H  28,C   4,C   1,H  27)    -55.6630         0.009733   
    104. D(H  28,C   4,C   1,N   0)   -174.9753         0.009733   
    105. D(H  28,C   4,C   1,C   2)     64.4262         0.009733   
    106. D(C   5,C   4,C   1,H  27)   -178.0626         0.009733   
    107. D(H  31,C   5,C   4,H  29)     62.2757         0.010452   
    108. D(H  31,C   5,C   4,H  28)    179.8161         0.010452   
    109. D(H  31,C   5,C   4,C   1)    -58.0392         0.010452   
    110. D(H  30,C   5,C   4,H  29)    177.2299         0.010452   
    111. D(H  30,C   5,C   4,H  28)    -65.2296         0.010452   
    112. D(H  30,C   5,C   4,C   1)     56.9150         0.010452   
    113. D(C   6,C   5,C   4,H  29)    -60.1893         0.010452   
    114. D(C   6,C   5,C   4,H  28)     57.3512         0.010452   
    115. D(C   6,C   5,C   4,C   1)    179.4958         0.010452   
    116. D(C   7,C   6,C   5,C   4)    163.1332         0.012933   
    117. D(H   9,C   6,C   5,H  31)   -155.6744         0.012933   
    118. D(H   9,C   6,C   5,H  30)     88.6460         0.012933   
    119. D(H   9,C   6,C   5,C   4)    -33.4277         0.012933   
    120. D(C   7,C   6,C   5,H  31)     40.8866         0.012933   
    121. D(C   7,C   6,C   5,H  30)    -74.7930         0.012933   
    122. D(H  11,C   7,C   6,H   9)    154.6751         0.012969   
    123. D(H  11,C   7,C   6,C   5)    -41.4715         0.012969   
    124. D(H  10,C   7,C   6,H   9)    -89.7445         0.012969   
    125. D(H  10,C   7,C   6,C   5)     74.1089         0.012969   
    126. D(N   8,C   7,C   6,H   9)     28.5984         0.012969   
    127. D(N   8,C   7,C   6,C   5)   -167.5482         0.012969   
    128. D(H  13,N   8,C   7,H  11)    -58.8530         0.015436   
    129. D(H  13,N   8,C   7,H  10)   -175.4768         0.015436   
    130. D(H  13,N   8,C   7,C   6)     64.4937         0.015436   
    131. D(H  12,N   8,C   7,H  11)     60.4569         0.015436   
    132. D(H  12,N   8,C   7,H  10)    -56.1669         0.015436   
    133. D(H  12,N   8,C   7,C   6)   -176.1964         0.015436   
    134. D(C  19,C  15,N   0,H  14)      6.3431         0.032566   
    135. D(C  19,C  15,N   0,C   1)    175.7902         0.032566   
    136. D(O  18,C  15,N   0,H  14)   -173.6018         0.032566   
    137. D(O  18,C  15,N   0,C   1)     -4.1547         0.032566   
    138. D(C  23,N  16,C   2,O   3)     -0.4614         0.033437   
    139. D(C  23,N  16,C   2,C   1)    178.6265         0.033437   
    140. D(H  17,N  16,C   2,O   3)    179.3495         0.033437   
    141. D(H  17,N  16,C   2,C   1)     -1.5626         0.033437   
    142. D(H  22,C  19,C  15,O  18)    -53.5746         0.010970   
    143. D(H  22,C  19,C  15,N   0)    126.4803         0.010970   
    144. D(H  21,C  19,C  15,O  18)   -175.5610         0.010970   
    145. D(H  21,C  19,C  15,N   0)      4.4939         0.010970   
    146. D(H  20,C  19,C  15,O  18)     62.9416         0.010970   
    147. D(H  20,C  19,C  15,N   0)   -117.0035         0.010970   
    148. D(H  24,C  23,N  16,C   2)    126.0807         0.017210   
    149. D(H  26,C  23,N  16,H  17)   -172.9796         0.017210   
    150. D(H  26,C  23,N  16,C   2)      6.8306         0.017210   
    151. D(H  25,C  23,N  16,H  17)     67.5150         0.017210   
    152. D(H  25,C  23,N  16,C   2)   -112.6748         0.017210   
    153. D(H  24,C  23,N  16,H  17)    -53.7296         0.017210   
    -----------------------------------------------------------------

Number of atoms                         .... 32
Number of degrees of freedom            .... 153

         *************************************************************
         *                GEOMETRY OPTIMIZATION CYCLE   1            *
         *************************************************************
---------------------------------
CARTESIAN COORDINATES (ANGSTROEM)
---------------------------------
  N      1.453405   -0.926008    0.189846
  C      1.113101    0.271989   -0.539692
  C      1.465597    1.469917    0.361493
  O      1.720233    1.328239    1.543073
  C     -0.374791    0.300653   -0.972448
  C     -1.366030    0.303117    0.205221
  C     -2.794167    0.343275   -0.249488
  C     -3.918083   -0.018317    0.674004
  N     -5.168928   -0.186783   -0.068953
  H     -3.055551    0.887431   -1.158370
  H     -4.080572    0.793453    1.407823
  H     -3.626570   -0.906622    1.267033
  H     -5.944726   -0.370322    0.558413
  H     -5.097206   -0.972795   -0.707428
  H      1.657002   -0.797668    1.171937
  C      1.688935   -2.103414   -0.441083
  N      1.448310    2.671391   -0.260605
  H      1.236486    2.694612   -1.246129
  O      1.554939   -2.233595   -1.643770
  C      2.133950   -3.256920    0.447850
  H      3.144300   -3.554061    0.143406
  H      2.134174   -3.007607    1.514012
  H      1.468467   -4.108273    0.268444
  C      1.722714    3.922564    0.418587
  H      2.518074    4.472810   -0.098515
  H      0.825102    4.552522    0.468783
  H      2.050495    3.687227    1.434698
  H      1.729056    0.307846   -1.449112
  H     -0.547715    1.189097   -1.597403
  H     -0.541037   -0.577667   -1.608002
  H     -1.150396    1.168806    0.862139
  H     -1.196733   -0.587091    0.830103

----------------------------
CARTESIAN COORDINATES (A.U.)
----------------------------
  NO LB      ZA    FRAG     MASS         X           Y           Z
   0 N     7.0000    0    14.007    2.746537   -1.749902    0.358757
   1 C     6.0000    0    12.011    2.103456    0.513985   -1.019870
   2 C     6.0000    0    12.011    2.769577    2.777741    0.683123
   3 O     8.0000    0    15.999    3.250769    2.510008    2.915985
   4 C     6.0000    0    12.011   -0.708252    0.568152   -1.837660
   5 C     6.0000    0    12.011   -2.581423    0.572808    0.387811
   6 C     6.0000    0    12.011   -5.280210    0.648696   -0.471464
   7 C     6.0000    0    12.011   -7.404104   -0.034614    1.273683
   8 N     7.0000    0    14.007   -9.767858   -0.352969   -0.130302
   9 H     1.0000    0     1.008   -5.774155    1.677002   -2.189002
  10 H     1.0000    0     1.008   -7.711164    1.499409    2.660400
  11 H     1.0000    0     1.008   -6.853224   -1.713267    2.394345
  12 H     1.0000    0     1.008  -11.233904   -0.699807    1.055248
  13 H     1.0000    0     1.008   -9.632323   -1.838316   -1.336845
  14 H     1.0000    0     1.008    3.131280   -1.507374    2.214640
  15 C     6.0000    0    12.011    3.191625   -3.974876   -0.833526
  16 N     7.0000    0    14.007    2.736909    5.048197   -0.492472
  17 H     1.0000    0     1.008    2.336620    5.092079   -2.354843
  18 O     8.0000    0    15.999    2.938409   -4.220883   -3.106275
  19 C     6.0000    0    12.011    4.032581   -6.154687    0.846314
  20 H     1.0000    0     1.008    5.941866   -6.716202    0.270998
  21 H     1.0000    0     1.008    4.033004   -5.683554    2.861068
  22 H     1.0000    0     1.008    2.775000   -7.763511    0.507286
  23 C     6.0000    0    12.011    3.255458    7.412572    0.791015
  24 H     1.0000    0     1.008    4.758470    8.452386   -0.186166
  25 H     1.0000    0     1.008    1.559217    8.603020    0.885871
  26 H     1.0000    0     1.008    3.874874    6.967849    2.711186
  27 H     1.0000    0     1.008    3.267442    0.581745   -2.738425
  28 H     1.0000    0     1.008   -1.035031    2.247068   -3.018654
  29 H     1.0000    0     1.008   -1.022412   -1.091632   -3.038683
  30 H     1.0000    0     1.008   -2.173933    2.208723    1.629207
  31 H     1.0000    0     1.008   -2.261498   -1.109441    1.568667

--------------------------------
INTERNAL COORDINATES (ANGSTROEM)
--------------------------------
 N      0   0   0     0.000000000000     0.00000000     0.00000000
 C      1   0   0     1.443339640511     0.00000000     0.00000000
 C      2   1   0     1.539941338956   107.21218875     0.00000000
 O      3   2   1     1.216981283578   121.70303646   347.11436454
 C      2   1   3     1.549813532041   112.50996905   236.88738875
 C      5   2   1     1.539306694580   113.86749762    62.62507962
 C      6   5   2     1.499315920817   112.42020341   179.49579411
 C      7   6   5     1.498924088666   121.39308535   163.13324988
 N      8   7   6     1.464574720194   110.83027740   192.45175378
 H      7   6   5     1.091097538131   119.61537833   326.57226103
 H      8   7   6     1.106283658372   109.98604929    74.10887120
 H      8   7   6     1.107135491724   109.03436847   318.52845059
 H      9   8   7     1.014463996050   111.11442300   183.80359177
 H      9   8   7     1.015189260706   110.35061259    64.49370492
 H      1   2   3     1.011150644706   115.66122624    12.26265866
 C      1   2   3     1.356403580347   121.75681854   202.20631257
 N      3   2   1     1.353087038830   114.75634879   168.00800041
 H     17   3   2     1.008298654364   118.19739082   358.43737891
 O     16   1   2     1.217110529388   122.23298805   355.84531229
 C     16   1   2     1.522766009849   115.89685470   175.79021250
 H     20  16   1     1.096260026416   108.21260960   242.99648867
 H     20  16   1     1.094923939088   113.32859172     4.49387584
 H     20  16   1     1.095379416793   108.39660816   126.48029286
 C     17   3   2     1.449839026930   123.26276127   178.62654185
 H     24  17   3     1.096705369970   110.44789819   126.08065328
 H     24  17   3     1.097758635914   111.21617278   247.32522971
 H     24  17   3     1.093300256952   107.84066685     6.83064242
 H      2   1   3     1.098968162812   108.25249354   117.81360105
 H      5   2   1     1.099910997734   108.93707780   185.02472386
 H      5   2   1     1.096819329622   107.00800738   300.47491739
 H      6   5   2     1.107906460583   109.24157280    56.91497900
 H      6   5   2     1.100731243945   109.51101043   301.96076418

---------------------------
INTERNAL COORDINATES (A.U.)
---------------------------
 N      0   0   0     0.000000000000     0.00000000     0.00000000
 C      1   0   0     2.727516638797     0.00000000     0.00000000
 C      2   1   0     2.910067392930   107.21218875     0.00000000
 O      3   2   1     2.299761336071   121.70303646   347.11436454
 C      2   1   3     2.928723134202   112.50996905   236.88738875
 C      5   2   1     2.908868088867   113.86749762    62.62507962
 C      6   5   2     2.833296478571   112.42020341   179.49579411
 C      7   6   5     2.832556023117   121.39308535   163.13324988
 N      8   7   6     2.767645123830   110.83027740   192.45175378
 H      7   6   5     2.061875532464   119.61537833   326.57226103
 H      8   7   6     2.090573140756   109.98604929    74.10887120
 H      8   7   6     2.092182872503   109.03436847   318.52845059
 H      9   8   7     1.917059125257   111.11442300   183.80359177
 H      9   8   7     1.918429676833   110.35061259    64.49370492
 H      1   2   3     1.910797798633   115.66122624    12.26265866
 C      1   2   3     2.563231293925   121.75681854   202.20631257
 N      3   2   1     2.556963938747   114.75634879   168.00800041
 H     17   3   2     1.905408317950   118.19739082   358.43737891
 O     16   1   2     2.300005575254   122.23298805   355.84531229
 C     16   1   2     2.877610724658   115.89685470   175.79021250
 H     20  16   1     2.071631221491   108.21260960   242.99648867
 H     20  16   1     2.069106382351   113.32859172     4.49387584
 H     20  16   1     2.069967110473   108.39660816   126.48029286
 C     17   3   2     2.739798699168   123.26276127   178.62654185
 H     24  17   3     2.072472798843   110.44789819   126.08065328
 H     24  17   3     2.074463183025   111.21617278   247.32522971
 H     24  17   3     2.066038067785   107.84066685     6.83064242
 H      2   1   3     2.076748857613   108.25249354   117.81360105
 H      5   2   1     2.078530557406   108.93707780   185.02472386
 H      5   2   1     2.072688151376   107.00800738   300.47491739
 H      6   5   2     2.093639792503   109.24157280    56.91497900
 H      6   5   2     2.080080598107   109.51101043   301.96076418

---------------------
BASIS SET INFORMATION
---------------------
There are 4 groups of distinct atoms

 Group   1 Type N   : 10s5p1d contracted to 6s2p1d pattern {511111/41/1}
 Group   2 Type C   : 10s5p1d contracted to 6s2p1d pattern {511111/41/1}
 Group   3 Type O   : 10s5p1d contracted to 6s2p1d pattern {511111/41/1}
 Group   4 Type H   : 6s1p contracted to 4s1p pattern {3111/1}

Atom   0N    basis set group =>   1
Atom   1C    basis set group =>   2
Atom   2C    basis set group =>   2
Atom   3O    basis set group =>   3
Atom   4C    basis set group =>   2
Atom   5C    basis set group =>   2
Atom   6C    basis set group =>   2
Atom   7C    basis set group =>   2
Atom   8N    basis set group =>   1
Atom   9H    basis set group =>   4
Atom  10H    basis set group =>   4
Atom  11H    basis set group =>   4
Atom  12H    basis set group =>   4
Atom  13H    basis set group =>   4
Atom  14H    basis set group =>   4
Atom  15C    basis set group =>   2
Atom  16N    basis set group =>   1
Atom  17H    basis set group =>   4
Atom  18O    basis set group =>   3
Atom  19C    basis set group =>   2
Atom  20H    basis set group =>   4
Atom  21H    basis set group =>   4
Atom  22H    basis set group =>   4
Atom  23C    basis set group =>   2
Atom  24H    basis set group =>   4
Atom  25H    basis set group =>   4
Atom  26H    basis set group =>   4
Atom  27H    basis set group =>   4
Atom  28H    basis set group =>   4
Atom  29H    basis set group =>   4
Atom  30H    basis set group =>   4
Atom  31H    basis set group =>   4
---------------------------------
AUXILIARY/J BASIS SET INFORMATION
---------------------------------
There are 4 groups of distinct atoms

 Group   1 Type N   : 12s5p4d2f1g contracted to 6s4p3d1f1g pattern {711111/2111/211/2/1}
 Group   2 Type C   : 12s5p4d2f1g contracted to 6s4p3d1f1g pattern {711111/2111/211/2/1}
 Group   3 Type O   : 12s5p4d2f1g contracted to 6s4p3d1f1g pattern {711111/2111/211/2/1}
 Group   4 Type H   : 5s2p1d contracted to 3s1p1d pattern {311/2/1}

Atom   0N    basis set group =>   1
Atom   1C    basis set group =>   2
Atom   2C    basis set group =>   2
Atom   3O    basis set group =>   3
Atom   4C    basis set group =>   2
Atom   5C    basis set group =>   2
Atom   6C    basis set group =>   2
Atom   7C    basis set group =>   2
Atom   8N    basis set group =>   1
Atom   9H    basis set group =>   4
Atom  10H    basis set group =>   4
Atom  11H    basis set group =>   4
Atom  12H    basis set group =>   4
Atom  13H    basis set group =>   4
Atom  14H    basis set group =>   4
Atom  15C    basis set group =>   2
Atom  16N    basis set group =>   1
Atom  17H    basis set group =>   4
Atom  18O    basis set group =>   3
Atom  19C    basis set group =>   2
Atom  20H    basis set group =>   4
Atom  21H    basis set group =>   4
Atom  22H    basis set group =>   4
Atom  23C    basis set group =>   2
Atom  24H    basis set group =>   4
Atom  25H    basis set group =>   4
Atom  26H    basis set group =>   4
Atom  27H    basis set group =>   4
Atom  28H    basis set group =>   4
Atom  29H    basis set group =>   4
Atom  30H    basis set group =>   4
Atom  31H    basis set group =>   4


           ************************************************************
           *        Program running with 16 parallel MPI-processes    *
           *              working on a common directory               *
           ************************************************************
------------------------------------------------------------------------------
                           ORCA GTO INTEGRAL CALCULATION
                           -- RI-GTO INTEGRALS CHOSEN --
------------------------------------------------------------------------------
------------------------------------------------------------------------------
                   ___                                                        
                  /   \      - P O W E R E D   B Y -                         
                 /     \                                                     
                 |  |  |   _    _      __       _____    __    __             
                 |  |  |  | |  | |    /  \     |  _  \  |  |  /  |          
                  \  \/   | |  | |   /    \    | | | |  |  | /  /          
                 / \  \   | |__| |  /  /\  \   | |_| |  |  |/  /          
                |  |  |   |  __  | /  /__\  \  |    /   |      \           
                |  |  |   | |  | | |   __   |  |    \   |  |\   \          
                \     /   | |  | | |  |  |  |  | |\  \  |  | \   \       
                 \___/    |_|  |_| |__|  |__|  |_| \__\ |__|  \__/        
                                                                              
                      - O R C A' S   B I G   F R I E N D -                    
                                      &                                       
                       - I N T E G R A L  F E E D E R -                       
                                                                              
 v1 FN, 2020, v2 2021                                                         
------------------------------------------------------------------------------


Reading SHARK input file opt.SHARKINP.tmp ... ok
----------------------
SHARK INTEGRAL PACKAGE
----------------------

Number of atoms                             ...     32
Number of basis functions                   ...    364
Number of shells                            ...    216
Maximum angular momentum                    ...      2
Integral batch strategy                     ... SHARK/LIBINT Hybrid
RI-J (if used) integral strategy            ... SPLIT-RIJ (Revised 2003 algorithm where possible)
Printlevel                                  ...      1
Contraction scheme used                     ... SEGMENTED contraction
Coulomb Range Separation                    ... NOT USED
Exchange Range Separation                   ... NOT USED
Finite Nucleus Model                        ... NOT USED
Auxiliary Coulomb fitting basis             ... AVAILABLE
   # of basis functions in Aux-J            ...    884
   # of shells in Aux-J                     ...    300
   Maximum angular momentum in Aux-J        ...      4
Auxiliary J/K fitting basis                 ... NOT available
Auxiliary Correlation fitting basis         ... NOT available
Auxiliary 'external' fitting basis          ... NOT available
Integral threshold                          ...     2.500000e-11
Primitive cut-off                           ...     2.500000e-12
Primitive pair pre-selection threshold      ...     2.500000e-12

Calculating pre-screening integrals         ... done (  0.0 sec) Dimension = 216
Organizing shell pair data                  ... done (  0.0 sec)
Shell pair information
Total number of shell pairs                 ...     23436
Shell pairs after pre-screening             ...     15301
Total number of primitive shell pairs       ...     61703
Primitive shell pairs kept                  ...     29242
          la=0 lb=0:   7164 shell pairs
          la=1 lb=0:   5230 shell pairs
          la=1 lb=1:    903 shell pairs
          la=2 lb=0:   1419 shell pairs
          la=2 lb=1:    505 shell pairs
          la=2 lb=2:     80 shell pairs

Calculating one electron integrals          ... done (  0.0 sec)
Calculating RI/J V-Matrix + Cholesky decomp.... done (  0.0 sec)
Calculating Nuclear repulsion               ... done (  0.0 sec) ENN=    919.529992243587 Eh

SHARK setup successfully completed in   0.3 seconds

Maximum memory used throughout the entire GTOINT-calculation: 22.2 MB


           ************************************************************
           *        Program running with 16 parallel MPI-processes    *
           *              working on a common directory               *
           ************************************************************
-------------------------------------------------------------------------------
                                 ORCA SCF
-------------------------------------------------------------------------------

------------
SCF SETTINGS
------------
Hamiltonian:
 Density Functional     Method          .... DFT(GTOs)
 Exchange Functional    Exchange        .... B88
   X-Alpha parameter    XAlpha          ....  0.666667
   Becke's b parameter  XBeta           ....  0.004200
 Correlation Functional Correlation     .... LYP
 LDA part of GGA corr.  LDAOpt          .... VWN-5
 Gradients option       PostSCFGGA      .... off
 Hybrid DFT is turned on
   Fraction HF Exchange ScalHFX         ....  0.200000
   Scaling of DF-GGA-X  ScalDFX         ....  0.720000
   Scaling of DF-GGA-C  ScalDFC         ....  0.810000
   Scaling of DF-LDA-C  ScalLDAC        ....  1.000000
   Perturbative correction              ....  0.000000
   Density functional embedding theory  .... OFF
   NL short-range parameter             ....  4.800000
 RI-approximation to the Coulomb term is turned on
   Number of AuxJ basis functions       .... 884
   RIJ-COSX (HFX calculated with COS-X)).... on


General Settings:
 Integral files         IntName         .... opt
 Hartree-Fock type      HFTyp           .... UHF
 Total Charge           Charge          ....    0
 Multiplicity           Mult            ....    2
 Number of Electrons    NEL             ....  109
 Basis Dimension        Dim             ....  364
 Nuclear Repulsion      ENuc            ....    919.5299922436 Eh

Convergence Acceleration:
 DIIS                   CNVDIIS         .... on
   Start iteration      DIISMaxIt       ....    12
   Startup error        DIISStart       ....  0.200000
   # of expansion vecs  DIISMaxEq       ....     5
   Bias factor          DIISBfac        ....   1.050
   Max. coefficient     DIISMaxC        ....  10.000
 Trust-Rad. Augm. Hess. CNVTRAH         .... auto
   Auto Start mean grad. ratio tolernc. ....  1.125000
   Auto Start start iteration           ....    20
   Auto Start num. interpolation iter.  ....    10
   Max. Number of Micro iterations      ....    16
   Max. Number of Macro iterations      .... Maxiter - #DIIS iter
   Number of Davidson start vectors     ....     2
   Converg. threshold I  (grad. norm)   ....   1.000e-05
   Converg. threshold II (energy diff.) ....   1.000e-08
   Grad. Scal. Fac. for Micro threshold ....   0.100
   Minimum threshold for Micro iter.    ....   0.010
   NR start threshold (gradient norm)   ....   0.001
   Initial trust radius                 ....   0.400
   Minimum AH scaling param. (alpha)    ....   1.000
   Maximum AH scaling param. (alpha)    .... 1000.000
   Orbital update algorithm             .... Taylor
   White noise on init. David. guess    .... on
   Maximum white noise                  ....   0.010
   Quad. conv. algorithm                .... NR
 SOSCF                  CNVSOSCF        .... off
 Level Shifting         CNVShift        .... on
   Level shift para.    LevelShift      ....    0.2500
   Turn off err/grad.   ShiftErr        ....    0.0010
 Zerner damping         CNVZerner       .... off
 Static damping         CNVDamp         .... on
   Fraction old density DampFac         ....    0.7000
   Max. Damping (<1)    DampMax         ....    0.9800
   Min. Damping (>=0)   DampMin         ....    0.0000
   Turn off err/grad.   DampErr         ....    0.1000
 Fernandez-Rico         CNVRico         .... off

SCF Procedure:
 Maximum # iterations   MaxIter         ....   125
 SCF integral mode      SCFMode         .... Direct
   Integral package                     .... SHARK and LIBINT hybrid scheme
 Reset frequency        DirectResetFreq ....    20
 Integral Threshold     Thresh          ....  2.500e-11 Eh
 Primitive CutOff       TCut            ....  2.500e-12 Eh

Convergence Tolerance:
 Convergence Check Mode ConvCheckMode   .... Total+1el-Energy
 Convergence forced     ConvForced      .... 0
 Energy Change          TolE            ....  1.000e-08 Eh
 1-El. energy change                    ....  1.000e-05 Eh
 DIIS Error             TolErr          ....  5.000e-07


Diagonalization of the overlap matrix:
Smallest eigenvalue                        ... 9.299e-04
Time for diagonalization                   ...    0.014 sec
Threshold for overlap eigenvalues          ... 1.000e-08
Number of eigenvalues below threshold      ... 0
Time for construction of square roots      ...    0.012 sec
Total time needed                          ...    0.028 sec

Time for model grid setup =    0.121 sec

------------------------------
INITIAL GUESS: MODEL POTENTIAL
------------------------------
Loading Hartree-Fock densities                     ... done
Calculating cut-offs                               ... done
Initializing the effective Hamiltonian             ... done
Setting up the integral package (SHARK)            ... done
Starting the Coulomb interaction                   ... done (   0.1 sec)
Reading the grid                                   ... done
Mapping shells                                     ... done
Starting the XC term evaluation                    ... done (   0.0 sec)
  promolecular density results
     # of electrons  =    108.982949686
     EX              =    -87.743174913
     EC              =     -3.659979339
     EX+EC           =    -91.403154252
Transforming the Hamiltonian                       ... done (   0.0 sec)
Diagonalizing the Hamiltonian                      ... done (   0.0 sec)
Back transforming the eigenvectors                 ... done (   0.0 sec)
Now organizing SCF variables                       ... done
                      ------------------
                      INITIAL GUESS DONE (   0.3 sec)
                      ------------------
-------------------
DFT GRID GENERATION
-------------------

General Integration Accuracy     IntAcc      ... 4.388
Radial Grid Type                 RadialGrid  ... OptM3 with GC (2021)
Angular Grid (max. ang.)         AngularGrid ... 4 (Lebedev-302)
Angular grid pruning method      GridPruning ... 4 (adaptive)
Weight generation scheme         WeightScheme... Becke
Basis function cutoff            BFCut       ... 1.0000e-11
Integration weight cutoff        WCut        ... 1.0000e-14
Angular grids for H and He will be reduced by one unit
Partially contracted basis set               ... off
Rotationally invariant grid construction     ... off

Total number of grid points                  ...   141668
Total number of batches                      ...     2229
Average number of points per batch           ...       63
Average number of grid points per atom       ...     4427
Time for grid setup =    0.572 sec

--------------------
COSX GRID GENERATION
--------------------

GRIDX 1
-------
General Integration Accuracy     IntAcc      ... 3.816
Radial Grid Type                 RadialGrid  ... OptM3 with GC (2021)
Angular Grid (max. ang.)         AngularGrid ... 1 (Lebedev-50)
Angular grid pruning method      GridPruning ... 4 (adaptive)
Weight generation scheme         WeightScheme... Becke
Basis function cutoff            BFCut       ... 1.0000e-11
Integration weight cutoff        WCut        ... 1.0000e-14
Angular grids for H and He will be reduced by one unit
Partially contracted basis set               ... on
Rotationally invariant grid construction     ... off

Total number of grid points                  ...    18125
Total number of batches                      ...      302
Average number of points per batch           ...       60
Average number of grid points per atom       ...      566
UseSFitting                                  ... on

GRIDX 2
-------
General Integration Accuracy     IntAcc      ... 4.020
Radial Grid Type                 RadialGrid  ... OptM3 with GC (2021)
Angular Grid (max. ang.)         AngularGrid ... 2 (Lebedev-110)
Angular grid pruning method      GridPruning ... 4 (adaptive)
Weight generation scheme         WeightScheme... Becke
Basis function cutoff            BFCut       ... 1.0000e-11
Integration weight cutoff        WCut        ... 1.0000e-14
Angular grids for H and He will be reduced by one unit
Partially contracted basis set               ... on
Rotationally invariant grid construction     ... off

Total number of grid points                  ...    38356
Total number of batches                      ...      616
Average number of points per batch           ...       62
Average number of grid points per atom       ...     1199
UseSFitting                                  ... on

GRIDX 3
-------
General Integration Accuracy     IntAcc      ... 4.338
Radial Grid Type                 RadialGrid  ... OptM3 with GC (2021)
Angular Grid (max. ang.)         AngularGrid ... 3 (Lebedev-194)
Angular grid pruning method      GridPruning ... 4 (adaptive)
Weight generation scheme         WeightScheme... Becke
Basis function cutoff            BFCut       ... 1.0000e-11
Integration weight cutoff        WCut        ... 1.0000e-14
Angular grids for H and He will be reduced by one unit
Partially contracted basis set               ... on
Rotationally invariant grid construction     ... off

Total number of grid points                  ...    83597
Total number of batches                      ...     1320
Average number of points per batch           ...       63
Average number of grid points per atom       ...     2612
UseSFitting                                  ... on

Time for X-Grid setup             =    0.684 sec

--------------
SCF ITERATIONS
--------------
ITER       Energy         Delta-E        Max-DP      RMS-DP      [F,P]     Damp
               ***  Starting incremental Fock matrix formation  ***
  0   -667.6900950984   0.000000000000 0.06301340  0.00097714  0.1306191 0.7000
  1   -667.9417580068  -0.251662908411 0.04998105  0.00069674  0.0545234 0.7000
                               ***Turning on DIIS***
  2   -668.0330907927  -0.091332785923 0.07872361  0.00107134  0.0179370 0.0000
  3   -668.1808003754  -0.147709582664 0.04507395  0.00051690  0.0329975 0.0000
  4   -668.2141688486  -0.033368473232 0.01758561  0.00017876  0.0073409 0.0000
  5   -668.2159455999  -0.001776751282 0.00797130  0.00007185  0.0049647 0.0000
  6   -668.2163166184  -0.000371018523 0.00505828  0.00004477  0.0007291 0.0000
               *** Restarting incremental Fock matrix formation ***
                                   *** Resetting DIIS ***
  7   -668.2163797919  -0.000063173479 0.00155615  0.00001815  0.0007026 0.0000
  8   -668.2163682170   0.000011574880 0.00071974  0.00000730  0.0010316 0.0000
  9   -668.2163887653  -0.000020548321 0.00028891  0.00000432  0.0002735 0.0000
 10   -668.2163902328  -0.000001467478 0.00011605  0.00000135  0.0000714 0.0000
 11   -668.2163902792  -0.000000046423 0.00008049  0.00000087  0.0000791 0.0000
 12   -668.2163903562  -0.000000076947 0.00002532  0.00000030  0.0000186 0.0000
 13   -668.2163903615  -0.000000005324 0.00001138  0.00000014  0.0000105 0.0000
 14   -668.2163903651  -0.000000003578 0.00000630  0.00000007  0.0000036 0.0000
 15   -668.2163903644   0.000000000704 0.00000312  0.00000004  0.0000033 0.0000
                            ***DIIS convergence achieved***

               *****************************************************
               *                     SUCCESS                       *
               *           SCF CONVERGED AFTER  16 CYCLES          *
               *****************************************************

Old exchange energy                            =    -17.870502837 Eh
New exchange energy                            =    -17.870503977 Eh
Exchange energy change after final integration =     -0.000001140 Eh
Total energy after final integration           =   -668.216391504 Eh
Final COS-X integration done in                =     2.199 sec

----------------
TOTAL SCF ENERGY
----------------

Total Energy       :         -668.21639150 Eh          -18183.09242 eV

Components:
Nuclear Repulsion  :          919.52999224 Eh           25021.68317 eV
Electronic Energy  :        -1587.74638375 Eh          -43204.77559 eV
One Electron Energy:        -2733.00958285 Eh          -74368.97159 eV
Two Electron Energy:         1145.26319911 Eh           31164.19600 eV
Max COSX asymmetry :            0.00000344 Eh               0.00009 eV

Virial components:
Potential Energy   :        -1332.04781684 Eh          -36246.86385 eV
Kinetic Energy     :          663.83142534 Eh           18063.77143 eV
Virial Ratio       :            2.00660554


DFT components:
N(Alpha)           :       54.999923930874 electrons
N(Beta)            :       53.999954323728 electrons
N(Total)           :      108.999878254603 electrons
E(X)               :      -70.972759911504 Eh       
E(C)               :       -4.315398337565 Eh       
E(XC)              :      -75.288158249069 Eh       
DFET-embed. en.    :        0.000000000000 Eh       

---------------
SCF CONVERGENCE
---------------

  Last Energy change         ...    6.9610e-10  Tolerance :   1.0000e-08
  Last MAX-Density change    ...    0.0000e+00  Tolerance :   1.0000e-07
  Last RMS-Density change    ...    0.0000e+00  Tolerance :   5.0000e-09
  Last DIIS Error            ...    5.9555e-07  Tolerance :   5.0000e-07

             **** THE GBW FILE WAS UPDATED (opt.gbw) ****
             **** DENSITY opt.scfp WAS UPDATED ****
             **** ENERGY FILE WAS UPDATED (opt.en.tmp) ****
----------------------
UHF SPIN CONTAMINATION
----------------------

Warning: in a DFT calculation there is little theoretical justification to 
         calculate <S**2> as in Hartree-Fock theory. We will do it anyways
         but you should keep in mind that the values have only limited relevance

Expectation value of <S**2>     :     0.753960
Ideal value S*(S+1) for S=0.5   :     0.750000
Deviation                       :     0.003960

             **** THE GBW FILE WAS UPDATED (opt.gbw) ****
             **** DENSITY opt.scfp WAS UPDATED ****
----------------
ORBITAL ENERGIES
----------------
                 SPIN UP ORBITALS
  NO   OCC          E(Eh)            E(eV) 
   0   1.0000     -19.121822      -520.3312 
   1   1.0000     -19.098357      -519.6927 
   2   1.0000     -14.370743      -391.0478 
   3   1.0000     -14.347656      -390.4196 
   4   1.0000     -14.305275      -389.2663 
   5   1.0000     -10.300901      -280.3018 
   6   1.0000     -10.284778      -279.8630 
   7   1.0000     -10.236449      -278.5479 
   8   1.0000     -10.225077      -278.2385 
   9   1.0000     -10.209601      -277.8174 
  10   1.0000     -10.190670      -277.3022 
  11   1.0000     -10.188183      -277.2345 
  12   1.0000     -10.187276      -277.2099 
  13   1.0000     -10.184999      -277.1479 
  14   1.0000      -1.054225       -28.6869 
  15   1.0000      -1.030143       -28.0316 
  16   1.0000      -0.935818       -25.4649 
  17   1.0000      -0.920203       -25.0400 
  18   1.0000      -0.876470       -23.8500 
  19   1.0000      -0.801047       -21.7976 
  20   1.0000      -0.759841       -20.6763 
  21   1.0000      -0.727750       -19.8031 
  22   1.0000      -0.710770       -19.3410 
  23   1.0000      -0.670162       -18.2360 
  24   1.0000      -0.620526       -16.8854 
  25   1.0000      -0.599452       -16.3119 
  26   1.0000      -0.576008       -15.6740 
  27   1.0000      -0.562026       -15.2935 
  28   1.0000      -0.539459       -14.6794 
  29   1.0000      -0.488946       -13.3049 
  30   1.0000      -0.482745       -13.1362 
  31   1.0000      -0.474335       -12.9073 
  32   1.0000      -0.467491       -12.7211 
  33   1.0000      -0.459326       -12.4989 
  34   1.0000      -0.457059       -12.4372 
  35   1.0000      -0.447916       -12.1884 
  36   1.0000      -0.437343       -11.9007 
  37   1.0000      -0.426189       -11.5972 
  38   1.0000      -0.417544       -11.3620 
  39   1.0000      -0.401578       -10.9275 
  40   1.0000      -0.399658       -10.8753 
  41   1.0000      -0.394990       -10.7482 
  42   1.0000      -0.390523       -10.6267 
  43   1.0000      -0.378752       -10.3064 
  44   1.0000      -0.373732       -10.1698 
  45   1.0000      -0.363157        -9.8820 
  46   1.0000      -0.354066        -9.6346 
  47   1.0000      -0.343763        -9.3543 
  48   1.0000      -0.330564        -8.9951 
  49   1.0000      -0.271721        -7.3939 
  50   1.0000      -0.269532        -7.3343 
  51   1.0000      -0.249410        -6.7868 
  52   1.0000      -0.245803        -6.6886 
  53   1.0000      -0.235276        -6.4022 
  54   1.0000      -0.185774        -5.0552 
  55   0.0000       0.007732         0.2104 
  56   0.0000       0.014002         0.3810 
  57   0.0000       0.022558         0.6138 
  58   0.0000       0.030306         0.8247 
  59   0.0000       0.032694         0.8896 
  60   0.0000       0.038649         1.0517 
  61   0.0000       0.053060         1.4438 
  62   0.0000       0.055975         1.5232 
  63   0.0000       0.065134         1.7724 
  64   0.0000       0.078519         2.1366 
  65   0.0000       0.093781         2.5519 
  66   0.0000       0.097659         2.6574 
  67   0.0000       0.113524         3.0892 
  68   0.0000       0.121408         3.3037 
  69   0.0000       0.148759         4.0479 
  70   0.0000       0.151309         4.1173 
  71   0.0000       0.158934         4.3248 
  72   0.0000       0.165970         4.5163 
  73   0.0000       0.170292         4.6339 
  74   0.0000       0.179019         4.8713 
  75   0.0000       0.183838         5.0025 
  76   0.0000       0.187727         5.1083 
  77   0.0000       0.194128         5.2825 
  78   0.0000       0.198225         5.3940 
  79   0.0000       0.207238         5.6392 
  80   0.0000       0.217184         5.9099 
  81   0.0000       0.219404         5.9703 
  82   0.0000       0.223725         6.0879 
  83   0.0000       0.230307         6.2670 
  84   0.0000       0.239087         6.5059 
  85   0.0000       0.243887         6.6365 
  86   0.0000       0.248979         6.7751 
  87   0.0000       0.254133         6.9153 
  88   0.0000       0.260223         7.0810 
  89   0.0000       0.266742         7.2584 
  90   0.0000       0.270723         7.3668 
  91   0.0000       0.275193         7.4884 
  92   0.0000       0.278577         7.5805 
  93   0.0000       0.283079         7.7030 
  94   0.0000       0.286258         7.7895 
  95   0.0000       0.297850         8.1049 
  96   0.0000       0.302038         8.2189 
  97   0.0000       0.311290         8.4706 
  98   0.0000       0.314102         8.5472 
  99   0.0000       0.321285         8.7426 
 100   0.0000       0.322098         8.7647 
 101   0.0000       0.329958         8.9786 
 102   0.0000       0.342164         9.3108 
 103   0.0000       0.350686         9.5427 
 104   0.0000       0.359849         9.7920 
 105   0.0000       0.372678        10.1411 
 106   0.0000       0.378769        10.3068 
 107   0.0000       0.389813        10.6074 
 108   0.0000       0.404555        11.0085 
 109   0.0000       0.408478        11.1153 
 110   0.0000       0.417520        11.3613 
 111   0.0000       0.427527        11.6336 
 112   0.0000       0.439150        11.9499 
 113   0.0000       0.447335        12.1726 
 114   0.0000       0.454640        12.3714 
 115   0.0000       0.460124        12.5206 
 116   0.0000       0.471198        12.8220 
 117   0.0000       0.490502        13.3473 
 118   0.0000       0.497655        13.5419 
 119   0.0000       0.510861        13.9012 
 120   0.0000       0.521399        14.1880 
 121   0.0000       0.536204        14.5908 
 122   0.0000       0.541110        14.7243 
 123   0.0000       0.560522        15.2526 
 124   0.0000       0.571400        15.5486 
 125   0.0000       0.574109        15.6223 
 126   0.0000       0.585466        15.9313 
 127   0.0000       0.606420        16.5015 
 128   0.0000       0.619256        16.8508 
 129   0.0000       0.645687        17.5700 
 130   0.0000       0.653756        17.7896 
 131   0.0000       0.663473        18.0540 
 132   0.0000       0.684818        18.6348 
 133   0.0000       0.693962        18.8837 
 134   0.0000       0.710690        19.3388 
 135   0.0000       0.728500        19.8235 
 136   0.0000       0.743122        20.2214 
 137   0.0000       0.770859        20.9761 
 138   0.0000       0.784912        21.3585 
 139   0.0000       0.799220        21.7479 
 140   0.0000       0.808292        21.9947 
 141   0.0000       0.815875        22.2011 
 142   0.0000       0.820396        22.3241 
 143   0.0000       0.822726        22.3875 
 144   0.0000       0.836924        22.7738 
 145   0.0000       0.851049        23.1582 
 146   0.0000       0.859179        23.3795 
 147   0.0000       0.867787        23.6137 
 148   0.0000       0.871357        23.7108 
 149   0.0000       0.882302        24.0087 
 150   0.0000       0.890631        24.2353 
 151   0.0000       0.893884        24.3238 
 152   0.0000       0.899033        24.4639 
 153   0.0000       0.905190        24.6315 
 154   0.0000       0.911163        24.7940 
 155   0.0000       0.921624        25.0787 
 156   0.0000       0.925550        25.1855 
 157   0.0000       0.936428        25.4815 
 158   0.0000       0.939123        25.5548 
 159   0.0000       0.946255        25.7489 
 160   0.0000       0.952355        25.9149 
 161   0.0000       0.960826        26.1454 
 162   0.0000       0.979296        26.6480 
 163   0.0000       0.981746        26.7147 
 164   0.0000       0.995057        27.0769 
 165   0.0000       1.009057        27.4578 
 166   0.0000       1.022419        27.8214 
 167   0.0000       1.029822        28.0229 
 168   0.0000       1.033635        28.1266 
 169   0.0000       1.039825        28.2951 
 170   0.0000       1.061952        28.8972 
 171   0.0000       1.074348        29.2345 
 172   0.0000       1.116350        30.3774 
 173   0.0000       1.122717        30.5507 
 174   0.0000       1.143601        31.1190 
 175   0.0000       1.154608        31.4185 
 176   0.0000       1.171772        31.8855 
 177   0.0000       1.174984        31.9729 
 178   0.0000       1.182814        32.1860 
 179   0.0000       1.195363        32.5275 
 180   0.0000       1.202942        32.7337 
 181   0.0000       1.217368        33.1263 
 182   0.0000       1.231019        33.4977 
 183   0.0000       1.255067        34.1521 
 184   0.0000       1.281708        34.8770 
 185   0.0000       1.295465        35.2514 
 186   0.0000       1.307266        35.5725 
 187   0.0000       1.326016        36.0827 
 188   0.0000       1.336810        36.3764 
 189   0.0000       1.360473        37.0204 
 190   0.0000       1.371372        37.3169 
 191   0.0000       1.388915        37.7943 
 192   0.0000       1.400772        38.1169 
 193   0.0000       1.404601        38.2211 
 194   0.0000       1.407265        38.2936 
 195   0.0000       1.413290        38.4576 
 196   0.0000       1.441701        39.2307 
 197   0.0000       1.466394        39.9026 
 198   0.0000       1.480110        40.2758 
 199   0.0000       1.485907        40.4336 
 200   0.0000       1.502488        40.8848 
 201   0.0000       1.517467        41.2924 
 202   0.0000       1.527325        41.5606 
 203   0.0000       1.534114        41.7454 
 204   0.0000       1.537501        41.8375 
 205   0.0000       1.553575        42.2749 
 206   0.0000       1.564657        42.5765 
 207   0.0000       1.582908        43.0731 
 208   0.0000       1.587255        43.1914 
 209   0.0000       1.604478        43.6601 
 210   0.0000       1.611969        43.8639 
 211   0.0000       1.615031        43.9472 
 212   0.0000       1.618498        44.0416 
 213   0.0000       1.637017        44.5455 
 214   0.0000       1.652799        44.9749 
 215   0.0000       1.666224        45.3403 
 216   0.0000       1.674354        45.5615 
 217   0.0000       1.684800        45.8457 
 218   0.0000       1.686936        45.9039 
 219   0.0000       1.696694        46.1694 
 220   0.0000       1.703106        46.3439 
 221   0.0000       1.718568        46.7646 
 222   0.0000       1.732371        47.1402 
 223   0.0000       1.737655        47.2840 
 224   0.0000       1.748767        47.5864 
 225   0.0000       1.759296        47.8729 
 226   0.0000       1.778826        48.4043 
 227   0.0000       1.783506        48.5317 
 228   0.0000       1.799945        48.9790 
 229   0.0000       1.818164        49.4747 
 230   0.0000       1.825858        49.6841 
 231   0.0000       1.831565        49.8394 
 232   0.0000       1.844049        50.1791 
 233   0.0000       1.868625        50.8479 
 234   0.0000       1.872696        50.9587 
 235   0.0000       1.897802        51.6418 
 236   0.0000       1.918087        52.1938 
 237   0.0000       1.931796        52.5668 
 238   0.0000       1.960368        53.3443 
 239   0.0000       1.982911        53.9577 
 240   0.0000       1.992016        54.2055 
 241   0.0000       2.014646        54.8213 
 242   0.0000       2.025769        55.1240 
 243   0.0000       2.038537        55.4714 
 244   0.0000       2.060715        56.0749 
 245   0.0000       2.067834        56.2686 
 246   0.0000       2.086515        56.7770 
 247   0.0000       2.101588        57.1871 
 248   0.0000       2.126231        57.8577 
 249   0.0000       2.142383        58.2972 
 250   0.0000       2.165012        58.9130 
 251   0.0000       2.185196        59.4622 
 252   0.0000       2.191329        59.6291 
 253   0.0000       2.211786        60.1858 
 254   0.0000       2.235551        60.8324 
 255   0.0000       2.241928        61.0060 
 256   0.0000       2.276772        61.9541 
 257   0.0000       2.280680        62.0604 
 258   0.0000       2.293989        62.4226 
 259   0.0000       2.297026        62.5053 
 260   0.0000       2.321450        63.1699 
 261   0.0000       2.345204        63.8163 
 262   0.0000       2.354125        64.0590 
 263   0.0000       2.370070        64.4929 
 264   0.0000       2.382704        64.8367 
 265   0.0000       2.391469        65.0752 
 266   0.0000       2.394091        65.1465 
 267   0.0000       2.399551        65.2951 
 268   0.0000       2.412831        65.6565 
 269   0.0000       2.431070        66.1528 
 270   0.0000       2.446454        66.5714 
 271   0.0000       2.466401        67.1142 
 272   0.0000       2.488443        67.7140 
 273   0.0000       2.491168        67.7881 
 274   0.0000       2.496274        67.9271 
 275   0.0000       2.503380        68.1204 
 276   0.0000       2.535680        68.9994 
 277   0.0000       2.568739        69.8989 
 278   0.0000       2.590069        70.4794 
 279   0.0000       2.606773        70.9339 
 280   0.0000       2.626530        71.4715 
 281   0.0000       2.645614        71.9908 
 282   0.0000       2.664005        72.4913 
 283   0.0000       2.691013        73.2262 
 284   0.0000       2.707036        73.6622 
 285   0.0000       2.726841        74.2011 
 286   0.0000       2.748092        74.7794 
 287   0.0000       2.761029        75.1314 
 288   0.0000       2.772095        75.4325 
 289   0.0000       2.783592        75.7454 
 290   0.0000       2.835454        77.1566 
 291   0.0000       2.933986        79.8378 
 292   0.0000       3.001731        81.6813 
 293   0.0000       3.046503        82.8996 
 294   0.0000       3.105393        84.5020 
 295   0.0000       3.129100        85.1471 
 296   0.0000       3.379127        91.9507 
 297   0.0000       3.439081        93.5821 
 298   0.0000       3.458269        94.1043 
 299   0.0000       3.462750        94.2262 
 300   0.0000       4.924079       133.9910 
 301   0.0000       4.971643       135.2853 
 302   0.0000       4.983846       135.6173 
 303   0.0000       4.988184       135.7354 
 304   0.0000       5.009491       136.3152 
 305   0.0000       5.017043       136.5207 
 306   0.0000       5.025148       136.7412 
 307   0.0000       5.053964       137.5254 
 308   0.0000       5.074835       138.0933 
 309   0.0000       5.093801       138.6094 
 310   0.0000       5.135509       139.7443 
 311   0.0000       5.152925       140.2182 
 312   0.0000       5.181134       140.9858 
 313   0.0000       5.190942       141.2527 
 314   0.0000       5.245675       142.7421 
 315   0.0000       5.282648       143.7482 
 316   0.0000       5.295033       144.0852 
 317   0.0000       5.308664       144.4561 
 318   0.0000       5.322658       144.8369 
 319   0.0000       5.354425       145.7013 
 320   0.0000       5.375306       146.2695 
 321   0.0000       5.477975       149.0633 
 322   0.0000       5.599597       152.3728 
 323   0.0000       5.645594       153.6244 
 324   0.0000       5.701143       155.1360 
 325   0.0000       5.732657       155.9935 
 326   0.0000       5.860382       159.4691 
 327   0.0000       7.202315       195.9850 
 328   0.0000       7.306547       198.8213 
 329   0.0000       7.342692       199.8048 
 330   0.0000       9.095518       247.5016 
 331   0.0000       9.120731       248.1877 
 332   0.0000      29.580037       804.9137 
 333   0.0000      29.634852       806.4053 
 334   0.0000      29.730818       809.0167 
 335   0.0000      29.890061       813.3499 
 336   0.0000      29.959382       815.2362 
 337   0.0000      30.057189       817.8977 
 338   0.0000      30.078427       818.4756 
 339   0.0000      30.138262       820.1038 
 340   0.0000      30.266864       823.6032 
 341   0.0000      36.541177       994.3360 
 342   0.0000      36.595760       995.8213 
 343   0.0000      36.607741       996.1473 
 344   0.0000      36.619170       996.4583 
 345   0.0000      36.632719       996.8270 
 346   0.0000      36.636255       996.9232 
 347   0.0000      36.664472       997.6910 
 348   0.0000      36.698061       998.6050 
 349   0.0000      36.709006       998.9028 
 350   0.0000      36.713087       999.0139 
 351   0.0000      36.734660       999.6009 
 352   0.0000      36.771938      1000.6153 
 353   0.0000      36.806353      1001.5518 
 354   0.0000      36.865567      1003.1631 
 355   0.0000      36.875296      1003.4278 
 356   0.0000      36.886164      1003.7236 
 357   0.0000      36.921284      1004.6792 
 358   0.0000      36.934092      1005.0277 
 359   0.0000      41.143618      1119.5748 
 360   0.0000      41.247494      1122.4014 
 361   0.0000      41.280511      1123.2998 
 362   0.0000      53.633121      1459.4314 
 363   0.0000      53.655808      1460.0488 

                 SPIN DOWN ORBITALS
  NO   OCC          E(Eh)            E(eV) 
   0   1.0000     -19.121757      -520.3294 
   1   1.0000     -19.098358      -519.6927 
   2   1.0000     -14.370725      -391.0473 
   3   1.0000     -14.347645      -390.4193 
   4   1.0000     -14.305044      -389.2600 
   5   1.0000     -10.300912      -280.3021 
   6   1.0000     -10.284778      -279.8630 
   7   1.0000     -10.236447      -278.5479 
   8   1.0000     -10.225077      -278.2385 
   9   1.0000     -10.210493      -277.8416 
  10   1.0000     -10.190388      -277.2946 
  11   1.0000     -10.188154      -277.2338 
  12   1.0000     -10.184999      -277.1479 
  13   1.0000     -10.174524      -276.8629 
  14   1.0000      -1.054139       -28.6846 
  15   1.0000      -1.030138       -28.0315 
  16   1.0000      -0.935769       -25.4636 
  17   1.0000      -0.920160       -25.0388 
  18   1.0000      -0.874497       -23.7963 
  19   1.0000      -0.797439       -21.6994 
  20   1.0000      -0.752622       -20.4799 
  21   1.0000      -0.727592       -19.7988 
  22   1.0000      -0.704832       -19.1795 
  23   1.0000      -0.668200       -18.1826 
  24   1.0000      -0.619027       -16.8446 
  25   1.0000      -0.599437       -16.3115 
  26   1.0000      -0.569675       -15.5016 
  27   1.0000      -0.551062       -14.9952 
  28   1.0000      -0.539347       -14.6764 
  29   1.0000      -0.487203       -13.2575 
  30   1.0000      -0.480084       -13.0638 
  31   1.0000      -0.473961       -12.8971 
  32   1.0000      -0.465727       -12.6731 
  33   1.0000      -0.458723       -12.4825 
  34   1.0000      -0.454127       -12.3574 
  35   1.0000      -0.447264       -12.1707 
  36   1.0000      -0.435388       -11.8475 
  37   1.0000      -0.425386       -11.5753 
  38   1.0000      -0.413755       -11.2589 
  39   1.0000      -0.401321       -10.9205 
  40   1.0000      -0.397579       -10.8187 
  41   1.0000      -0.391771       -10.6606 
  42   1.0000      -0.388903       -10.5826 
  43   1.0000      -0.377378       -10.2690 
  44   1.0000      -0.369660       -10.0590 
  45   1.0000      -0.360567        -9.8115 
  46   1.0000      -0.348945        -9.4953 
  47   1.0000      -0.340783        -9.2732 
  48   1.0000      -0.327968        -8.9245 
  49   1.0000      -0.271593        -7.3904 
  50   1.0000      -0.269376        -7.3301 
  51   1.0000      -0.249255        -6.7826 
  52   1.0000      -0.245786        -6.6882 
  53   1.0000      -0.233376        -6.3505 
  54   0.0000      -0.044356        -1.2070 
  55   0.0000       0.008326         0.2266 
  56   0.0000       0.014535         0.3955 
  57   0.0000       0.022845         0.6217 
  58   0.0000       0.030796         0.8380 
  59   0.0000       0.033310         0.9064 
  60   0.0000       0.039036         1.0622 
  61   0.0000       0.054534         1.4839 
  62   0.0000       0.057200         1.5565 
  63   0.0000       0.065536         1.7833 
  64   0.0000       0.078773         2.1435 
  65   0.0000       0.094605         2.5743 
  66   0.0000       0.098076         2.6688 
  67   0.0000       0.114095         3.1047 
  68   0.0000       0.122058         3.3214 
  69   0.0000       0.150052         4.0831 
  70   0.0000       0.152157         4.1404 
  71   0.0000       0.159912         4.3514 
  72   0.0000       0.166707         4.5363 
  73   0.0000       0.171238         4.6596 
  74   0.0000       0.180165         4.9025 
  75   0.0000       0.184351         5.0165 
  76   0.0000       0.188788         5.1372 
  77   0.0000       0.195823         5.3286 
  78   0.0000       0.198821         5.4102 
  79   0.0000       0.208411         5.6712 
  80   0.0000       0.218143         5.9360 
  81   0.0000       0.221910         6.0385 
  82   0.0000       0.226656         6.1676 
  83   0.0000       0.233598         6.3565 
  84   0.0000       0.239563         6.5188 
  85   0.0000       0.244202         6.6451 
  86   0.0000       0.250684         6.8215 
  87   0.0000       0.256039         6.9672 
  88   0.0000       0.262352         7.1390 
  89   0.0000       0.268269         7.3000 
  90   0.0000       0.272850         7.4246 
  91   0.0000       0.278297         7.5729 
  92   0.0000       0.280216         7.6251 
  93   0.0000       0.288259         7.8439 
  94   0.0000       0.289813         7.8862 
  95   0.0000       0.298798         8.1307 
  96   0.0000       0.303904         8.2697 
  97   0.0000       0.312455         8.5023 
  98   0.0000       0.315488         8.5849 
  99   0.0000       0.323407         8.8004 
 100   0.0000       0.325233         8.8500 
 101   0.0000       0.331335         9.0161 
 102   0.0000       0.344455         9.3731 
 103   0.0000       0.358211         9.7474 
 104   0.0000       0.362205         9.8561 
 105   0.0000       0.377017        10.2592 
 106   0.0000       0.379158        10.3174 
 107   0.0000       0.398074        10.8321 
 108   0.0000       0.405104        11.0234 
 109   0.0000       0.415122        11.2960 
 110   0.0000       0.420718        11.4483 
 111   0.0000       0.429210        11.6794 
 112   0.0000       0.441624        12.0172 
 113   0.0000       0.449033        12.2188 
 114   0.0000       0.460361        12.5271 
 115   0.0000       0.465241        12.6598 
 116   0.0000       0.475826        12.9479 
 117   0.0000       0.493000        13.4152 
 118   0.0000       0.498612        13.5679 
 119   0.0000       0.513040        13.9605 
 120   0.0000       0.525259        14.2930 
 121   0.0000       0.539663        14.6850 
 122   0.0000       0.542050        14.7499 
 123   0.0000       0.562979        15.3194 
 124   0.0000       0.572681        15.5834 
 125   0.0000       0.577026        15.7017 
 126   0.0000       0.587128        15.9766 
 127   0.0000       0.606795        16.5117 
 128   0.0000       0.621078        16.9004 
 129   0.0000       0.647122        17.6091 
 130   0.0000       0.654361        17.8061 
 131   0.0000       0.664517        18.0824 
 132   0.0000       0.685670        18.6580 
 133   0.0000       0.695757        18.9325 
 134   0.0000       0.716867        19.5069 
 135   0.0000       0.729842        19.8600 
 136   0.0000       0.744506        20.2590 
 137   0.0000       0.771810        21.0020 
 138   0.0000       0.786836        21.4109 
 139   0.0000       0.800873        21.7929 
 140   0.0000       0.810135        22.0449 
 141   0.0000       0.817048        22.2330 
 142   0.0000       0.821727        22.3603 
 143   0.0000       0.823391        22.4056 
 144   0.0000       0.837765        22.7968 
 145   0.0000       0.852398        23.1949 
 146   0.0000       0.860649        23.4195 
 147   0.0000       0.868570        23.6350 
 148   0.0000       0.876198        23.8426 
 149   0.0000       0.883418        24.0390 
 150   0.0000       0.891970        24.2717 
 151   0.0000       0.897311        24.4171 
 152   0.0000       0.905619        24.6432 
 153   0.0000       0.907004        24.6808 
 154   0.0000       0.912635        24.8341 
 155   0.0000       0.922513        25.1029 
 156   0.0000       0.926221        25.2038 
 157   0.0000       0.937525        25.5114 
 158   0.0000       0.939717        25.5710 
 159   0.0000       0.947347        25.7786 
 160   0.0000       0.957859        26.0647 
 161   0.0000       0.961998        26.1773 
 162   0.0000       0.980084        26.6694 
 163   0.0000       0.983161        26.7532 
 164   0.0000       0.997056        27.1313 
 165   0.0000       1.012502        27.5516 
 166   0.0000       1.023721        27.8569 
 167   0.0000       1.034005        28.1367 
 168   0.0000       1.035162        28.1682 
 169   0.0000       1.040592        28.3160 
 170   0.0000       1.063532        28.9402 
 171   0.0000       1.079267        29.3683 
 172   0.0000       1.117066        30.3969 
 173   0.0000       1.126055        30.6415 
 174   0.0000       1.147325        31.2203 
 175   0.0000       1.154931        31.4273 
 176   0.0000       1.172872        31.9155 
 177   0.0000       1.175660        31.9913 
 178   0.0000       1.184474        32.2312 
 179   0.0000       1.198681        32.6178 
 180   0.0000       1.205593        32.8059 
 181   0.0000       1.218156        33.1477 
 182   0.0000       1.234365        33.5888 
 183   0.0000       1.260224        34.2924 
 184   0.0000       1.289604        35.0919 
 185   0.0000       1.297031        35.2940 
 186   0.0000       1.308440        35.6044 
 187   0.0000       1.332514        36.2596 
 188   0.0000       1.345221        36.6053 
 189   0.0000       1.362379        37.0722 
 190   0.0000       1.375927        37.4409 
 191   0.0000       1.389353        37.8062 
 192   0.0000       1.403069        38.1794 
 193   0.0000       1.405231        38.2383 
 194   0.0000       1.410473        38.3809 
 195   0.0000       1.416580        38.5471 
 196   0.0000       1.442150        39.2429 
 197   0.0000       1.467855        39.9424 
 198   0.0000       1.480586        40.2888 
 199   0.0000       1.488263        40.4977 
 200   0.0000       1.502877        40.8954 
 201   0.0000       1.518639        41.3243 
 202   0.0000       1.530089        41.6358 
 203   0.0000       1.540006        41.9057 
 204   0.0000       1.542770        41.9809 
 205   0.0000       1.557534        42.3826 
 206   0.0000       1.566148        42.6170 
 207   0.0000       1.583638        43.0930 
 208   0.0000       1.592174        43.3253 
 209   0.0000       1.606850        43.7246 
 210   0.0000       1.615035        43.9473 
 211   0.0000       1.620044        44.0837 
 212   0.0000       1.622648        44.1545 
 213   0.0000       1.637759        44.5657 
 214   0.0000       1.655548        45.0497 
 215   0.0000       1.666805        45.3561 
 216   0.0000       1.677640        45.6509 
 217   0.0000       1.686775        45.8995 
 218   0.0000       1.688947        45.9586 
 219   0.0000       1.697880        46.2017 
 220   0.0000       1.704012        46.3685 
 221   0.0000       1.719930        46.8017 
 222   0.0000       1.733763        47.1781 
 223   0.0000       1.739610        47.3372 
 224   0.0000       1.749589        47.6087 
 225   0.0000       1.761882        47.9433 
 226   0.0000       1.780709        48.4556 
 227   0.0000       1.788933        48.6793 
 228   0.0000       1.803458        49.0746 
 229   0.0000       1.826082        49.6902 
 230   0.0000       1.828896        49.7668 
 231   0.0000       1.833249        49.8852 
 232   0.0000       1.847316        50.2680 
 233   0.0000       1.869932        50.8834 
 234   0.0000       1.875764        51.0421 
[...]
  6 C s       :     2.943591  s :     2.943591
      pz      :     1.007716  p :     2.970739
      px      :     1.008140
      py      :     0.954884
      dz2     :     0.024530  d :     0.147289
      dxz     :     0.049254
      dyz     :     0.018649
      dx2y2   :     0.029903
      dxy     :     0.024954
  7 C s       :     2.865460  s :     2.865460
      pz      :     1.005165  p :     2.976214
      px      :     0.946634
      py      :     1.024415
      dz2     :     0.021605  d :     0.229206
      dxz     :     0.070497
      dyz     :     0.050631
      dx2y2   :     0.043633
      dxy     :     0.042840
  8 N s       :     3.178451  s :     3.178451
      pz      :     1.294686  p :     3.864901
      px      :     1.138215
      py      :     1.432001
      dz2     :     0.003969  d :     0.052680
      dxz     :     0.019714
      dyz     :     0.009245
      dx2y2   :     0.014151
      dxy     :     0.005602
  9 H s       :     0.863971  s :     0.863971
      pz      :     0.042030  p :     0.090669
      px      :     0.017168
      py      :     0.031472
 10 H s       :     0.874555  s :     0.874555
      pz      :     0.026481  p :     0.077781
      px      :     0.015652
      py      :     0.035648
 11 H s       :     0.892920  s :     0.892920
      pz      :     0.027540  p :     0.078191
      px      :     0.017805
      py      :     0.032846
 12 H s       :     0.810845  s :     0.810845
      pz      :     0.049444  p :     0.140761
      px      :     0.052345
      py      :     0.038971
 13 H s       :     0.805711  s :     0.805711
      pz      :     0.047967  p :     0.141031
      px      :     0.024715
      py      :     0.068349
 14 H s       :     0.755809  s :     0.755809
      pz      :     0.082492  p :     0.153981
      px      :     0.046340
      py      :     0.025150
 15 C s       :     2.843075  s :     2.843075
      pz      :     0.997426  p :     2.772698
      px      :     0.810231
      py      :     0.965041
      dz2     :     0.105586  d :     0.488586
      dxz     :     0.103443
      dyz     :     0.195423
      dx2y2   :     0.038891
      dxy     :     0.045243
 16 N s       :     3.063270  s :     3.063270
      pz      :     1.135527  p :     3.814336
      px      :     1.522260
      py      :     1.156550
      dz2     :     0.021355  d :     0.080526
      dxz     :     0.004019
      dyz     :     0.025591
      dx2y2   :     0.016519
      dxy     :     0.013042
 17 H s       :     0.774526  s :     0.774526
      pz      :     0.076444  p :     0.145788
      px      :     0.048545
      py      :     0.020799
 18 O s       :     3.585053  s :     3.585053
      pz      :     1.425787  p :     4.580479
      px      :     1.456848
      py      :     1.697843
      dz2     :     0.018227  d :     0.031942
      dxz     :     0.006475
      dyz     :     0.006993
      dx2y2   :     0.000120
      dxy     :     0.000128
 19 C s       :     2.871975  s :     2.871975
      pz      :     1.008336  p :     3.065404
      px      :     1.040903
      py      :     1.016165
      dz2     :     0.029574  d :     0.105706
      dxz     :     0.009099
      dyz     :     0.025559
      dx2y2   :     0.018781
      dxy     :     0.022693
 20 H s       :     0.863897  s :     0.863897
      pz      :     0.018074  p :     0.081600
      px      :     0.043780
      py      :     0.019746
 21 H s       :     0.885071  s :     0.885071
      pz      :     0.046486  p :     0.081438
      px      :     0.017332
      py      :     0.017619
 22 H s       :     0.864596  s :     0.864596
      pz      :     0.016834  p :     0.081571
      px      :     0.028039
      py      :     0.036698
 23 C s       :     2.856578  s :     2.856578
      pz      :     1.025814  p :     2.973116
      px      :     1.037869
      py      :     0.909434
      dz2     :     0.027220  d :     0.159094
      dxz     :     0.014206
      dyz     :     0.035980
      dx2y2   :     0.026692
      dxy     :     0.054997
 24 H s       :     0.888723  s :     0.888723
      pz      :     0.021696  p :     0.079275
      px      :     0.037104
      py      :     0.020475
 25 H s       :     0.889081  s :     0.889081
      pz      :     0.017051  p :     0.079286
      px      :     0.036391
      py      :     0.025844
 26 H s       :     0.860462  s :     0.860462
      pz      :     0.048898  p :     0.084527
      px      :     0.018517
      py      :     0.017112
 27 H s       :     0.848917  s :     0.848917
      pz      :     0.040956  p :     0.083376
      px      :     0.028100
      py      :     0.014319
 28 H s       :     0.877593  s :     0.877593
      pz      :     0.027336  p :     0.080133
      px      :     0.017188
      py      :     0.035610
 29 H s       :     0.857093  s :     0.857093
      pz      :     0.027568  p :     0.082826
      px      :     0.017131
      py      :     0.038127
 30 H s       :     0.861345  s :     0.861345
      pz      :     0.027179  p :     0.080784
      px      :     0.017684
      py      :     0.035921
 31 H s       :     0.866173  s :     0.866173
      pz      :     0.027100  p :     0.080583
      px      :     0.016970
      py      :     0.036513

SPIN
  0 N s       :     0.000266  s :     0.000266
      pz      :     0.000020  p :     0.000307
      px      :     0.000268
      py      :     0.000018
      dz2     :     0.000005  d :     0.000007
      dxz     :     0.000003
      dyz     :     0.000000
      dx2y2   :     0.000000
      dxy     :    -0.000001
  1 C s       :    -0.000203  s :    -0.000203
      pz      :     0.000034  p :     0.000597
      px      :     0.000235
      py      :     0.000328
      dz2     :     0.000034  d :     0.000176
      dxz     :    -0.000004
      dyz     :     0.000004
      dx2y2   :     0.000083
      dxy     :     0.000058
  2 C s       :     0.000651  s :     0.000651
      pz      :     0.000124  p :     0.000656
      px      :     0.000541
      py      :    -0.000009
      dz2     :     0.000072  d :     0.000265
      dxz     :     0.000011
      dyz     :     0.000018
      dx2y2   :     0.000144
      dxy     :     0.000020
  3 O s       :     0.000256  s :     0.000256
      pz      :     0.000140  p :     0.001947
      px      :     0.001656
      py      :     0.000152
      dz2     :    -0.000002  d :    -0.000007
      dxz     :    -0.000005
      dyz     :    -0.000000
      dx2y2   :     0.000001
      dxy     :    -0.000000
  4 C s       :     0.003507  s :     0.003507
      pz      :     0.003007  p :     0.007587
      px      :     0.003332
      py      :     0.001248
      dz2     :    -0.000320  d :    -0.000491
      dxz     :     0.000020
      dyz     :     0.000192
      dx2y2   :    -0.000281
      dxy     :    -0.000103
  5 C s       :    -0.003559  s :    -0.003559
      pz      :    -0.004229  p :    -0.022539
      px      :    -0.013010
      py      :    -0.005300
      dz2     :     0.000666  d :     0.034540
      dxz     :     0.005916
      dyz     :     0.008306
      dx2y2   :     0.001875
      dxy     :     0.017776
  6 C s       :     0.031888  s :     0.031888
      pz      :     0.151979  p :     0.797744
      px      :     0.017348
      py      :     0.628417
      dz2     :    -0.000309  d :    -0.003078
      dxz     :    -0.001377
      dyz     :     0.000439
      dx2y2   :    -0.001757
      dxy     :    -0.000075
  7 C s       :    -0.002272  s :    -0.002272
      pz      :    -0.009055  p :    -0.022713
      px      :    -0.006771
      py      :    -0.006888
      dz2     :     0.003351  d :     0.035701
      dxz     :     0.007735
      dyz     :     0.013668
      dx2y2   :     0.000662
      dxy     :     0.010285
  8 N s       :     0.005450  s :     0.005450
      pz      :     0.000194  p :     0.004028
      px      :     0.004464
      py      :    -0.000630
      dz2     :    -0.000073  d :    -0.000095
      dxz     :     0.000010
      dyz     :     0.000173
      dx2y2   :    -0.000156
      dxy     :    -0.000049
  9 H s       :    -0.017677  s :    -0.017677
      pz      :     0.007464  p :     0.026899
      px      :     0.000458
      py      :     0.018977
 10 H s       :     0.044415  s :     0.044415
      pz      :    -0.000311  p :    -0.000534
      px      :     0.000301
      py      :    -0.000524
 11 H s       :     0.017382  s :     0.017382
      pz      :    -0.000594  p :    -0.001004
      px      :    -0.000259
      py      :    -0.000151
 12 H s       :     0.000252  s :     0.000252
      pz      :     0.000005  p :     0.000194
      px      :     0.000263
      py      :    -0.000074
 13 H s       :     0.000357  s :     0.000357
      pz      :     0.000418  p :     0.000658
      px      :    -0.000039
      py      :     0.000280
 14 H s       :    -0.000005  s :    -0.000005
      pz      :     0.000000  p :    -0.000001
      px      :    -0.000001
      py      :    -0.000000
 15 C s       :     0.000015  s :     0.000015
      pz      :     0.000011  p :     0.000037
      px      :     0.000007
      py      :     0.000019
      dz2     :    -0.000000  d :     0.000015
      dxz     :     0.000000
      dyz     :     0.000001
      dx2y2   :    -0.000001
      dxy     :     0.000014
 16 N s       :     0.000118  s :     0.000118
      pz      :     0.000042  p :     0.000657
      px      :     0.000589
      py      :     0.000025
      dz2     :    -0.000002  d :    -0.000011
      dxz     :    -0.000002
      dyz     :    -0.000001
      dx2y2   :     0.000001
      dxy     :    -0.000007
 17 H s       :    -0.000012  s :    -0.000012
      pz      :     0.000007  p :     0.000026
      px      :     0.000019
      py      :    -0.000000
 18 O s       :    -0.000002  s :    -0.000002
      pz      :    -0.000000  p :     0.000004
      px      :     0.000008
      py      :    -0.000003
      dz2     :    -0.000000  d :    -0.000000
      dxz     :    -0.000000
      dyz     :    -0.000000
      dx2y2   :     0.000000
      dxy     :     0.000000
 19 C s       :     0.000024  s :     0.000024
      pz      :     0.000000  p :     0.000004
      px      :     0.000001
      py      :     0.000003
      dz2     :     0.000000  d :    -0.000001
      dxz     :     0.000000
      dyz     :     0.000000
      dx2y2   :    -0.000000
      dxy     :    -0.000000
 20 H s       :    -0.000000  s :    -0.000000
      pz      :    -0.000000  p :     0.000000
      px      :    -0.000000
      py      :     0.000000
 21 H s       :     0.000004  s :     0.000004
      pz      :     0.000000  p :     0.000000
      px      :    -0.000000
      py      :    -0.000000
 22 H s       :    -0.000002  s :    -0.000002
      pz      :     0.000000  p :     0.000000
      px      :     0.000000
      py      :     0.000000
 23 C s       :     0.000052  s :     0.000052
      pz      :    -0.000009  p :    -0.000028
      px      :    -0.000014
      py      :    -0.000005
      dz2     :     0.000000  d :     0.000037
      dxz     :     0.000003
      dyz     :     0.000002
      dx2y2   :     0.000000
      dxy     :     0.000032
 24 H s       :     0.000022  s :     0.000022
      pz      :    -0.000000  p :    -0.000002
      px      :    -0.000001
      py      :    -0.000001
 25 H s       :     0.000030  s :     0.000030
      pz      :    -0.000000  p :    -0.000000
      px      :     0.000000
      py      :     0.000000
 26 H s       :     0.000018  s :     0.000018
      pz      :    -0.000000  p :    -0.000002
      px      :    -0.000001
      py      :    -0.000001
 27 H s       :    -0.000051  s :    -0.000051
      pz      :     0.000021  p :     0.000050
      px      :     0.000028
      py      :     0.000001
 28 H s       :    -0.000264  s :    -0.000264
      pz      :     0.000064  p :     0.000299
      px      :     0.000206
      py      :     0.000029
 29 H s       :    -0.000492  s :    -0.000492
      pz      :     0.000418  p :     0.000501
      px      :    -0.000029
      py      :     0.000112
 30 H s       :     0.043945  s :     0.043945
      pz      :    -0.000332  p :    -0.000746
      px      :     0.000110
      py      :    -0.000524
 31 H s       :     0.015126  s :     0.015126
      pz      :    -0.000397  p :    -0.000925
      px      :    -0.000407
      py      :    -0.000120


                      *****************************
                      * MAYER POPULATION ANALYSIS *
                      *****************************

  NA   - Mulliken gross atomic population
  ZA   - Total nuclear charge
  QA   - Mulliken gross atomic charge
  VA   - Mayer's total valence
  BVA  - Mayer's bonded valence
  FA   - Mayer's free valence

  ATOM       NA         ZA         QA         VA         BVA        FA
  0 N      7.1188     7.0000    -0.1188     3.2690     3.2690     0.0000
  1 C      6.1292     6.0000    -0.1292     4.0486     4.0486     0.0000
  2 C      5.9160     6.0000     0.0840     4.0418     4.0418     0.0000
  3 O      8.3329     8.0000    -0.3329     2.1086     2.1086     0.0000
  4 C      6.2936     6.0000    -0.2936     3.9341     3.9339     0.0002
  5 C      6.2492     6.0000    -0.2492     3.9624     3.9604     0.0020
  6 C      6.1278     6.0000    -0.1278     3.8291     3.0464     0.7827
  7 C      6.2957     6.0000    -0.2957     3.9181     3.9159     0.0022
  8 N      7.4696     7.0000    -0.4696     2.9583     2.9582     0.0001
  9 H      0.8627     1.0000     0.1373     0.9759     0.9733     0.0027
 10 H      0.8416     1.0000     0.1584     0.9535     0.9505     0.0030
 11 H      0.8633     1.0000     0.1367     0.9507     0.9504     0.0004
 12 H      0.7912     1.0000     0.2088     0.9610     0.9610     0.0000
 13 H      0.7813     1.0000     0.2187     0.9574     0.9574     0.0000
 14 H      0.7479     1.0000     0.2521     0.9694     0.9694     0.0000
 15 C      5.8302     6.0000     0.1698     3.9736     3.9736    -0.0000
 16 N      7.0917     7.0000    -0.0917     3.1802     3.1802     0.0000
 17 H      0.7692     1.0000     0.2308     0.9622     0.9622     0.0000
 18 O      8.3249     8.0000    -0.3249     2.1153     2.1153     0.0000
 19 C      6.5536     6.0000    -0.5536     3.8581     3.8581     0.0000
 20 H      0.8140     1.0000     0.1860     0.9588     0.9588     0.0000
 21 H      0.8515     1.0000     0.1485     0.9715     0.9715    -0.0000
 22 H      0.8144     1.0000     0.1856     0.9591     0.9591     0.0000
 23 C      6.4574     6.0000    -0.4574     3.8910     3.8910     0.0000
 24 H      0.8378     1.0000     0.1622     0.9571     0.9571     0.0000
 25 H      0.8365     1.0000     0.1635     0.9558     0.9558     0.0000
 26 H      0.7999     1.0000     0.2001     0.9658     0.9658     0.0000
 27 H      0.8326     1.0000     0.1674     0.9485     0.9485     0.0000
 28 H      0.8681     1.0000     0.1319     0.9722     0.9722     0.0000
 29 H      0.8099     1.0000     0.1901     0.9592     0.9592     0.0000
 30 H      0.8457     1.0000     0.1543     0.9676     0.9647     0.0029
 31 H      0.8416     1.0000     0.1584     0.9718     0.9715     0.0003

  Mayer bond orders larger than 0.100000
B(  0-N ,  1-C ) :   1.0209 B(  0-N , 14-H ) :   0.8931 B(  0-N , 15-C ) :   1.2050 
B(  1-C ,  2-C ) :   0.9001 B(  1-C ,  4-C ) :   0.9268 B(  1-C , 18-O ) :   0.1453 
B(  1-C , 27-H ) :   0.9693 B(  2-C ,  3-O ) :   1.8697 B(  2-C , 16-N ) :   1.1855 
B(  4-C ,  5-C ) :   0.9609 B(  4-C , 28-H ) :   0.9808 B(  4-C , 29-H ) :   0.9608 
B(  5-C ,  6-C ) :   0.9767 B(  5-C , 30-H ) :   0.9456 B(  5-C , 31-H ) :   0.9680 
B(  6-C ,  7-C ) :   0.9694 B(  6-C ,  9-H ) :   0.9906 B(  7-C ,  8-N ) :   1.0102 
B(  7-C , 10-H ) :   0.9432 B(  7-C , 11-H ) :   0.9474 B(  8-N , 12-H ) :   0.9447 
B(  8-N , 13-H ) :   0.9466 B( 15-C , 18-O ) :   1.8623 B( 15-C , 19-C ) :   0.8943 
B( 16-N , 17-H ) :   0.9298 B( 16-N , 23-C ) :   0.9696 B( 19-C , 20-H ) :   0.9578 
B( 19-C , 21-H ) :   0.9759 B( 19-C , 22-H ) :   0.9601 B( 23-C , 24-H ) :   0.9619 
B( 23-C , 25-H ) :   0.9576 B( 23-C , 26-H ) :   0.9433 

-------
TIMINGS
-------

Total SCF time: 0 days 0 hours 0 min 16 sec 

Total time                  ....      16.563 sec
Sum of individual times     ....      15.876 sec  ( 95.8%)

Fock matrix formation       ....      13.690 sec  ( 82.7%)
  Split-RI-J                ....       1.121 sec  (  8.2% of F)
  Chain of spheres X        ....       9.628 sec  ( 70.3% of F)
  XC integration            ....       2.622 sec  ( 19.2% of F)
    Basis function eval.    ....       0.281 sec  ( 10.7% of XC)
    Density eval.           ....       0.384 sec  ( 14.7% of XC)
    XC-Functional eval.     ....       0.065 sec  (  2.5% of XC)
    XC-Potential eval.      ....       0.234 sec  (  8.9% of XC)
Diagonalization             ....       0.484 sec  (  2.9%)
Density matrix formation    ....       0.025 sec  (  0.1%)
Population analysis         ....       0.069 sec  (  0.4%)
Initial guess               ....       0.055 sec  (  0.3%)
Orbital Transformation      ....       0.000 sec  (  0.0%)
Orbital Orthonormalization  ....       0.042 sec  (  0.3%)
DIIS solution               ....       0.242 sec  (  1.5%)
Grid generation             ....       1.312 sec  (  7.9%)

Maximum memory used throughout the entire SCF-calculation: 83.9 MB

-------------------------   --------------------
FINAL SINGLE POINT ENERGY      -668.217914773084
-------------------------   --------------------

                                *** OPTIMIZATION RUN DONE ***

                            ***************************************
                            *     ORCA property calculations      *
                            ***************************************

                                    ---------------------
                                    Active property flags
                                    ---------------------
   (+) Dipole Moment


------------------------------------------------------------------------------
                       ORCA ELECTRIC PROPERTIES CALCULATION
------------------------------------------------------------------------------

Dipole Moment Calculation                       ... on
Quadrupole Moment Calculation                   ... off
Polarizability Calculation                      ... off
GBWName                                         ... opt.gbw
Electron density                                ... opt.scfp
The origin for moment calculation is the CENTER OF MASS  = ( 0.079330,  0.249405 -0.033639)

-------------
DIPOLE MOMENT
-------------
                                X             Y             Z
Electronic contribution:      8.51089      -1.50065      -1.81349
Nuclear contribution   :     -8.62599       2.35973       2.30063
                        -----------------------------------------
Total Dipole Moment    :     -0.11510       0.85908       0.48714
                        -----------------------------------------
Magnitude (a.u.)       :      0.99427
Magnitude (Debye)      :      2.52724



--------------------
Rotational spectrum 
--------------------
 
Rotational constants in cm-1:     0.019579     0.013194     0.008916 
Rotational constants in MHz :   586.965856   395.536530   267.287973 

 Dipole components along the rotational axes: 
x,y,z [a.u.] :    -0.115407     0.923676     0.349398 
x,y,z [Debye]:    -0.293341     2.347799     0.888099 

 

Timings for individual modules:

Sum of individual times         ...      307.239 sec (=   5.121 min)
GTO integral calculation        ...       27.163 sec (=   0.453 min)   8.8 %
SCF iterations                  ...      205.658 sec (=   3.428 min)  66.9 %
SCF Gradient evaluation         ...       73.947 sec (=   1.232 min)  24.1 %
Geometry relaxation             ...        0.471 sec (=   0.008 min)   0.2 %
                             ****ORCA TERMINATED NORMALLY****
TOTAL RUN TIME: 0 days 0 hours 5 minutes 30 seconds 328 msec
