
                                 *****************
                                 * O   R   C   A *
                                 *****************

                                            #,                                       
                                            ###                                      
                                            ####                                     
                                            #####                                    
                                            ######                                   
                                           ########,                                 
                                     ,,################,,,,,                         
                               ,,#################################,,                 
                          ,,##########################################,,             
                       ,#########################################, ''#####,          
                    ,#############################################,,   '####,        
                  ,##################################################,,,,####,       
                ,###########''''           ''''###############################       
              ,#####''   ,,,,##########,,,,          '''####'''          '####       
            ,##' ,,,,###########################,,,                        '##       
           ' ,,###''''                  '''############,,,                           
         ,,##''                                '''############,,,,        ,,,,,,###''
      ,#''                                            '''#######################'''  
     '                                                          ''''####''''         
             ,#######,   #######,   ,#######,      ##                                
            ,#'     '#,  ##    ##  ,#'     '#,    #''#        ######   ,####,        
            ##       ##  ##   ,#'  ##            #'  '#       #        #'  '#        
            ##       ##  #######   ##           ,######,      #####,   #    #        
            '#,     ,#'  ##    ##  '#,     ,#' ,#      #,         ##   #,  ,#        
             '#######'   ##     ##  '#######'  #'      '#     #####' # '####'        



                  #######################################################
                  #                        -***-                        #
                  #          Department of theory and spectroscopy      #
                  #    Directorship and core code : Frank Neese         #
                  #        Max Planck Institute fuer Kohlenforschung    #
                  #                Kaiser Wilhelm Platz 1               #
                  #                 D-45470 Muelheim/Ruhr               #
                  #                      Germany                        #
                  #                                                     #
                  #                  All rights reserved                #
                  #                        -***-                        #
                  #######################################################


                         Program Version 5.0.4 -  RELEASE  -


 With contributions from (in alphabetic order):
   Daniel Aravena         : Magnetic Suceptibility
   Michael Atanasov       : Ab Initio Ligand Field Theory (pilot matlab implementation)
   Alexander A. Auer      : GIAO ZORA, VPT2 properties, NMR spectrum
   Ute Becker             : Parallelization
   Giovanni Bistoni       : ED, misc. LED, open-shell LED, HFLD
   Martin Brehm           : Molecular dynamics
   Dmytro Bykov           : SCF Hessian
   Vijay G. Chilkuri      : MRCI spin determinant printing, contributions to CSF-ICE
   Dipayan Datta          : RHF DLPNO-CCSD density
   Achintya Kumar Dutta   : EOM-CC, STEOM-CC
   Dmitry Ganyushin       : Spin-Orbit,Spin-Spin,Magnetic field MRCI
   Miquel Garcia          : C-PCM and meta-GGA Hessian, CC/C-PCM, Gaussian charge scheme
   Yang Guo               : DLPNO-NEVPT2, F12-NEVPT2, CIM, IAO-localization
   Andreas Hansen         : Spin unrestricted coupled pair/coupled cluster methods
   Benjamin Helmich-Paris : MC-RPA, TRAH-SCF, COSX integrals
   Lee Huntington         : MR-EOM, pCC
   Robert Izsak           : Overlap fitted RIJCOSX, COSX-SCS-MP3, EOM
   Marcus Kettner         : VPT2
   Christian Kollmar      : KDIIS, OOCD, Brueckner-CCSD(T), CCSD density, CASPT2, CASPT2-K
   Simone Kossmann        : Meta GGA functionals, TD-DFT gradient, OOMP2, MP2 Hessian
   Martin Krupicka        : Initial AUTO-CI
   Lucas Lang             : DCDCAS
   Marvin Lechner         : AUTO-CI (C++ implementation), FIC-MRCC
   Dagmar Lenk            : GEPOL surface, SMD
   Dimitrios Liakos       : Extrapolation schemes; Compound Job, initial MDCI parallelization
   Dimitrios Manganas     : Further ROCIS development; embedding schemes
   Dimitrios Pantazis     : SARC Basis sets
   Anastasios Papadopoulos: AUTO-CI, single reference methods and gradients
   Taras Petrenko         : DFT Hessian,TD-DFT gradient, ASA, ECA, R-Raman, ABS, FL, XAS/XES, NRVS
   Peter Pinski           : DLPNO-MP2, DLPNO-MP2 Gradient
   Christoph Reimann      : Effective Core Potentials
   Marius Retegan         : Local ZFS, SOC
   Christoph Riplinger    : Optimizer, TS searches, QM/MM, DLPNO-CCSD(T), (RO)-DLPNO pert. Triples
   Tobias Risthaus        : Range-separated hybrids, TD-DFT gradient, RPA, STAB
   Michael Roemelt        : Original ROCIS implementation
   Masaaki Saitow         : Open-shell DLPNO-CCSD energy and density
   Barbara Sandhoefer     : DKH picture change effects
   Avijit Sen             : IP-ROCIS
   Kantharuban Sivalingam : CASSCF convergence, NEVPT2, FIC-MRCI
   Bernardo de Souza      : ESD, SOC TD-DFT
   Georgi Stoychev        : AutoAux, RI-MP2 NMR, DLPNO-MP2 response
   Willem Van den Heuvel  : Paramagnetic NMR
   Boris Wezisla          : Elementary symmetry handling
   Frank Wennmohs         : Technical directorship


 We gratefully acknowledge several colleagues who have allowed us to
 interface, adapt or use parts of their codes:
   Stefan Grimme, W. Hujo, H. Kruse, P. Pracht,  : VdW corrections, initial TS optimization,
                  C. Bannwarth, S. Ehlert          DFT functionals, gCP, sTDA/sTD-DF
   Ed Valeev, F. Pavosevic, A. Kumar             : LibInt (2-el integral package), F12 methods
   Garnet Chan, S. Sharma, J. Yang, R. Olivares  : DMRG
   Ulf Ekstrom                                   : XCFun DFT Library
   Mihaly Kallay                                 : mrcc  (arbitrary order and MRCC methods)
   Jiri Pittner, Ondrej Demel                    : Mk-CCSD
   Frank Weinhold                                : gennbo (NPA and NBO analysis)
   Christopher J. Cramer and Donald G. Truhlar   : smd solvation model
   Lars Goerigk                                  : TD-DFT with DH, B97 family of functionals
   V. Asgeirsson, H. Jonsson                     : NEB implementation
   FAccTs GmbH                                   : IRC, NEB, NEB-TS, DLPNO-Multilevel, CI-OPT
                                                   MM, QMMM, 2- and 3-layer-ONIOM, Crystal-QMMM,
                                                   LR-CPCM, SF, NACMEs, symmetry and pop. for TD-DFT,
                                                   nearIR, NL-DFT gradient (VV10), updates on ESD,
                                                   ML-optimized integration grids
   S Lehtola, MJT Oliveira, MAL Marques          : LibXC Library
   Liviu Ungur et al                             : ANISO software


 Your calculation uses the libint2 library for the computation of 2-el integrals
 For citations please refer to: http://libint.valeyev.net

 Your ORCA version has been built with support for libXC version: 5.1.0
 For citations please refer to: https://tddft.org/programs/libxc/

 This ORCA versions uses:
   CBLAS   interface :  Fast vector & matrix operations
   LAPACKE interface :  Fast linear algebra routines
   SCALAPACK package :  Parallel linear algebra routines
   Shared memory     :  Shared parallel matrices
   BLAS/LAPACK       :  OpenBLAS 0.3.15  USE64BITINT DYNAMIC_ARCH NO_AFFINITY Zen SINGLE_THREADED
        Core in use  :  Zen
   Copyright (c) 2011-2014, The OpenBLAS Project




***************************************
The coordinates will be read from file: opt.xyz
***************************************


================================================================================

----- Orbital basis set information -----
Your calculation utilizes the basis: EPR-II
   V. Barone, in Recent Advances in Density Functional Methods, Part 1 (ed. D. P. Chong), World Scientific, Singapore, 1995, p. 287.

----- AuxJ basis set information -----
Your calculation utilizes the AutoAux generation procedure.
  G. L. Stoychev, A. A. Auer, F. Neese, J. Chem. Theory Comput. 13, 554 (2017)

----- AuxC basis set information -----
Your calculation utilizes the AutoAux generation procedure.
  G. L. Stoychev, A. A. Auer, F. Neese, J. Chem. Theory Comput. 13, 554 (2017)

----- AuxJK basis set information -----
Your calculation utilizes the AutoAux generation procedure.
  G. L. Stoychev, A. A. Auer, F. Neese, J. Chem. Theory Comput. 13, 554 (2017)

================================================================================
                                        WARNINGS
                       Please study these warnings very carefully!
================================================================================


WARNING: your system is open-shell and RHF/RKS was chosen
  ===> : WILL SWITCH to UHF/UKS


INFO   : the flag for use of the SHARK integral package has been found!

================================================================================
                                       INPUT FILE
================================================================================
NAME = epr_info.inp
|  1> ! B3LYP EPR-II AUTOAUX
|  2> %pal nprocs 16 end
|  3> *XYZFile -1 2 opt.xyz
|  4> %EPRNMR
|  5>         GTENSOR   TRUE
|  6>         NUCLEI    = 1,4,6,7,9,10,12,13,14,16,17,18 {SHIFT, AISO, ADIP, AORB}
|  7>         ORI       GIAO
|  8> END
|  9> 
| 10>                          ****END OF INPUT****
================================================================================

                       ****************************
                       * Single Point Calculation *
                       ****************************

---------------------------------
CARTESIAN COORDINATES (ANGSTROEM)
---------------------------------
  N     -3.789395   -0.103541    0.090809
  C     -2.442507    0.235908    0.120459
  C     -1.860158   -0.150739    1.428586
  O     -2.564210   -0.786096    2.260222
  C     -1.722794    0.902715   -1.017971
  H     -0.696742    0.523149   -1.052244
  H     -2.233395    0.623602   -1.941211
  C     -1.643025    2.458491   -0.941484
  H     -1.586107    2.855550   -1.962689
  H     -2.558577    2.876492   -0.508922
  C     -0.420817    3.072371   -0.177190
  O      0.440083    2.257130    0.305937
  O     -0.387173    4.319261   -0.147320
  H     -4.034499   -0.542754    0.981170
  C     -4.753981   -0.007340   -0.881635
  N     -0.569770    0.200045    1.648308
  H     -0.147314    0.969700    1.055834
  O     -4.582813    0.445702   -2.017616
  C     -6.131549   -0.515630   -0.445226
  H     -6.837962    0.319594   -0.489124
  H     -6.467754   -1.269879   -1.162974
  H     -6.146240   -0.942118    0.561818
  C      0.023268   -0.038754    2.952908
  H      0.013549   -1.105942    3.199456
  H      1.055321    0.318366    2.927042
  H     -0.515544    0.488869    3.751621

----------------------------
CARTESIAN COORDINATES (A.U.)
----------------------------
  NO LB      ZA    FRAG     MASS         X           Y           Z
   0 N     7.0000    0    14.007   -7.160918   -0.195664    0.171604
   1 C     6.0000    0    12.011   -4.615670    0.445802    0.227634
   2 C     6.0000    0    12.011   -3.515190   -0.284855    2.699637
   3 O     8.0000    0    15.999   -4.845654   -1.485506    4.271201
   4 C     6.0000    0    12.011   -3.255609    1.705885   -1.923686
   5 H     1.0000    0     1.008   -1.316651    0.988609   -1.988453
   6 H     1.0000    0     1.008   -4.220505    1.178438   -3.668356
   7 C     6.0000    0    12.011   -3.104867    4.645874   -1.779147
   8 H     1.0000    0     1.008   -2.997308    5.396207   -3.708944
   9 H     1.0000    0     1.008   -4.835009    5.435783   -0.961723
  10 C     6.0000    0    12.011   -0.795229    5.805940   -0.334840
  11 O     8.0000    0    15.999    0.831636    4.265358    0.578138
  12 O     8.0000    0    15.999   -0.731650    8.162220   -0.278395
  13 H     1.0000    0     1.008   -7.624099   -1.025657    1.854142
  14 C     6.0000    0    12.011   -8.983723   -0.013871   -1.666049
  15 N     7.0000    0    14.007   -1.076708    0.378030    3.114851
  16 H     1.0000    0     1.008   -0.278382    1.832467    1.995237
  17 O     8.0000    0    15.999   -8.660261    0.842255   -3.812741
  18 C     6.0000    0    12.011  -11.586948   -0.974400   -0.841355
  19 H     1.0000    0     1.008  -12.921876    0.603946   -0.924310
  20 H     1.0000    0     1.008  -12.222284   -2.399723   -2.197702
  21 H     1.0000    0     1.008  -11.614710   -1.780344    1.061681
  22 C     6.0000    0    12.011    0.043970   -0.073235    5.580188
  23 H     1.0000    0     1.008    0.025603   -2.089928    6.046096
  24 H     1.0000    0     1.008    1.994268    0.601624    5.531308
  25 H     1.0000    0     1.008   -0.974236    0.923829    7.089536

--------------------------------
INTERNAL COORDINATES (ANGSTROEM)
--------------------------------
 N      0   0   0     0.000000000000     0.00000000     0.00000000
 C      1   0   0     1.389319947388     0.00000000     0.00000000
 C      2   1   0     1.483180632193   109.61950938     0.00000000
 O      3   2   1     1.261342522419   119.58153008     5.12728133
 C      2   1   3     1.502877382751   123.81431495   180.41597810
 H      5   2   1     1.094544986139   108.58922382   214.88408538
 H      5   2   1     1.091324423744   107.65562688   332.60281446
 C      5   2   1     1.559695447556   115.46227004    94.21172361
 H      8   5   2     1.097157283626   108.54184086   208.29001890
 H      8   5   2     1.095477157894   110.93026199   324.16056090
 C      8   5   2     1.566776043351   117.04208704    88.74843289
 O     11   8   5     1.280303890323   117.33091978     1.42913752
 O     11   8   5     1.247700962415   115.10443873   179.44928992
 H      1   2   3     1.022607783240   108.58576744   359.54497869
 C      1   2   3     1.373073191127   132.76883591   182.67884534
 N      3   2   1     1.355149514325   116.70480883   184.44392670
 H     16   3   2     1.059180500426   118.50212033    19.37010857
 O     15   1   2     1.234907921286   125.43789557   359.82544938
 C     15   1   2     1.531830207463   114.00018537   180.20146590
 H     19  15   1     1.094781795129   108.40322226   117.98390909
 H     19  15   1     1.094114950792   108.55365917   234.51434720
 H     19  15   1     1.093729273639   113.81485637   356.51073503
 C     16   3   2     1.452825012342   119.45486381   174.38216472
 H     23  16   3     1.095340355390   111.01704692    60.47867883
 H     23  16   3     1.092399864406   108.09838485   180.47807202
 H     23  16   3     1.098474681566   111.94726181   300.39493328

---------------------------
INTERNAL COORDINATES (A.U.)
---------------------------
 N      0   0   0     0.000000000000     0.00000000     0.00000000
 C      1   0   0     2.625434212957     0.00000000     0.00000000
 C      2   1   0     2.802805201982   109.61950938     0.00000000
 O      3   2   1     2.383591928440   119.58153008     5.12728133
 C      2   1   3     2.840026666263   123.81431495   180.41597810
 H      5   2   1     2.068390265059   108.58922382   214.88408538
 H      5   2   1     2.062304284135   107.65562688   332.60281446
 C      5   2   1     2.947397248205   115.46227004    94.21172361
 H      8   5   2     2.073326791891   108.54184086   208.29001890
 H      8   5   2     2.070151814386   110.93026199   324.16056090
 C      8   5   2     2.960777635121   117.04208704    88.74843289
 O     11   8   5     2.419423720905   117.33091978     1.42913752
 O     11   8   5     2.357813115994   115.10443873   179.44928992
 H      1   2   3     1.932448652740   108.58576744   359.54497869
 C      1   2   3     2.594732293060   132.76883591   182.67884534
 N      3   2   1     2.560861452591   116.70480883   184.44392670
 H     16   3   2     2.001561072195   118.50212033    19.37010857
 O     15   1   2     2.333637771841   125.43789557   359.82544938
 C     15   1   2     2.894739575773   114.00018537   180.20146590
 H     19  15   1     2.068837769197   108.40322226   117.98390909
 H     19  15   1     2.067577616026   108.55365917   234.51434720
 H     19  15   1     2.066848791830   113.81485637   356.51073503
 C     16   3   2     2.745441393838   119.45486381   174.38216472
 H     23  16   3     2.069893295119   111.01704692    60.47867883
 H     23  16   3     2.064336572461   108.09838485   180.47807202
 H     23  16   3     2.075816313207   111.94726181   300.39493328

---------------------
BASIS SET INFORMATION
---------------------
There are 4 groups of distinct atoms

 Group   1 Type N   : 10s5p1d contracted to 6s2p1d pattern {511111/41/1}
 Group   2 Type C   : 10s5p1d contracted to 6s2p1d pattern {511111/41/1}
 Group   3 Type O   : 10s5p1d contracted to 6s2p1d pattern {511111/41/1}
 Group   4 Type H   : 6s1p contracted to 4s1p pattern {3111/1}

Atom   0N    basis set group =>   1
Atom   1C    basis set group =>   2
Atom   2C    basis set group =>   2
Atom   3O    basis set group =>   3
Atom   4C    basis set group =>   2
Atom   5H    basis set group =>   4
Atom   6H    basis set group =>   4
Atom   7C    basis set group =>   2
Atom   8H    basis set group =>   4
Atom   9H    basis set group =>   4
Atom  10C    basis set group =>   2
Atom  11O    basis set group =>   3
Atom  12O    basis set group =>   3
Atom  13H    basis set group =>   4
Atom  14C    basis set group =>   2
Atom  15N    basis set group =>   1
Atom  16H    basis set group =>   4
Atom  17O    basis set group =>   3
Atom  18C    basis set group =>   2
Atom  19H    basis set group =>   4
Atom  20H    basis set group =>   4
Atom  21H    basis set group =>   4
Atom  22C    basis set group =>   2
Atom  23H    basis set group =>   4
Atom  24H    basis set group =>   4
Atom  25H    basis set group =>   4
---------------------------------
AUXILIARY/J BASIS SET INFORMATION
---------------------------------
There are 4 groups of distinct atoms

 Group   1 Type N   : 17s13p12d2f contracted to 17s13p12d2f pattern {11111111111111111/1111111111111/111111111111/11}
 Group   2 Type C   : 17s13p12d2f contracted to 17s13p12d2f pattern {11111111111111111/1111111111111/111111111111/11}
 Group   3 Type O   : 17s13p12d2f contracted to 17s13p12d2f pattern {11111111111111111/1111111111111/111111111111/11}
 Group   4 Type H   : 15s6p1d contracted to 15s6p1d pattern {111111111111111/111111/1}

Atom   0N    basis set group =>   1
Atom   1C    basis set group =>   2
Atom   2C    basis set group =>   2
Atom   3O    basis set group =>   3
Atom   4C    basis set group =>   2
Atom   5H    basis set group =>   4
Atom   6H    basis set group =>   4
Atom   7C    basis set group =>   2
Atom   8H    basis set group =>   4
Atom   9H    basis set group =>   4
Atom  10C    basis set group =>   2
Atom  11O    basis set group =>   3
Atom  12O    basis set group =>   3
Atom  13H    basis set group =>   4
Atom  14C    basis set group =>   2
Atom  15N    basis set group =>   1
Atom  16H    basis set group =>   4
Atom  17O    basis set group =>   3
Atom  18C    basis set group =>   2
Atom  19H    basis set group =>   4
Atom  20H    basis set group =>   4
Atom  21H    basis set group =>   4
Atom  22C    basis set group =>   2
Atom  23H    basis set group =>   4
Atom  24H    basis set group =>   4
Atom  25H    basis set group =>   4
---------------------------------
AUXILIARY/C BASIS SET INFORMATION
---------------------------------
There are 4 groups of distinct atoms

 Group   1 Type N   : 17s13p12d2f contracted to 17s13p12d2f pattern {11111111111111111/1111111111111/111111111111/11}
 Group   2 Type C   : 17s13p12d2f contracted to 17s13p12d2f pattern {11111111111111111/1111111111111/111111111111/11}
 Group   3 Type O   : 17s13p12d2f contracted to 17s13p12d2f pattern {11111111111111111/1111111111111/111111111111/11}
 Group   4 Type H   : 15s6p1d contracted to 15s6p1d pattern {111111111111111/111111/1}

Atom   0N    basis set group =>   1
Atom   1C    basis set group =>   2
Atom   2C    basis set group =>   2
Atom   3O    basis set group =>   3
Atom   4C    basis set group =>   2
Atom   5H    basis set group =>   4
Atom   6H    basis set group =>   4
Atom   7C    basis set group =>   2
Atom   8H    basis set group =>   4
Atom   9H    basis set group =>   4
Atom  10C    basis set group =>   2
Atom  11O    basis set group =>   3
Atom  12O    basis set group =>   3
Atom  13H    basis set group =>   4
Atom  14C    basis set group =>   2
Atom  15N    basis set group =>   1
Atom  16H    basis set group =>   4
Atom  17O    basis set group =>   3
Atom  18C    basis set group =>   2
Atom  19H    basis set group =>   4
Atom  20H    basis set group =>   4
Atom  21H    basis set group =>   4
Atom  22C    basis set group =>   2
Atom  23H    basis set group =>   4
Atom  24H    basis set group =>   4
Atom  25H    basis set group =>   4
----------------------------------
AUXILIARY/JK BASIS SET INFORMATION
----------------------------------
There are 4 groups of distinct atoms

 Group   1 Type N   : 17s13p12d2f contracted to 17s13p12d2f pattern {11111111111111111/1111111111111/111111111111/11}
 Group   2 Type C   : 17s13p12d2f contracted to 17s13p12d2f pattern {11111111111111111/1111111111111/111111111111/11}
 Group   3 Type O   : 17s13p12d2f contracted to 17s13p12d2f pattern {11111111111111111/1111111111111/111111111111/11}
 Group   4 Type H   : 15s6p1d contracted to 15s6p1d pattern {111111111111111/111111/1}

Atom   0N    basis set group =>   1
Atom   1C    basis set group =>   2
Atom   2C    basis set group =>   2
Atom   3O    basis set group =>   3
Atom   4C    basis set group =>   2
Atom   5H    basis set group =>   4
Atom   6H    basis set group =>   4
Atom   7C    basis set group =>   2
Atom   8H    basis set group =>   4
Atom   9H    basis set group =>   4
Atom  10C    basis set group =>   2
Atom  11O    basis set group =>   3
Atom  12O    basis set group =>   3
Atom  13H    basis set group =>   4
Atom  14C    basis set group =>   2
Atom  15N    basis set group =>   1
Atom  16H    basis set group =>   4
Atom  17O    basis set group =>   3
Atom  18C    basis set group =>   2
Atom  19H    basis set group =>   4
Atom  20H    basis set group =>   4
Atom  21H    basis set group =>   4
Atom  22C    basis set group =>   2
Atom  23H    basis set group =>   4
Atom  24H    basis set group =>   4
Atom  25H    basis set group =>   4


           ************************************************************
           *        Program running with 16 parallel MPI-processes    *
           *              working on a common directory               *
           ************************************************************
------------------------------------------------------------------------------
                           ORCA GTO INTEGRAL CALCULATION
                           -- RI-GTO INTEGRALS CHOSEN --
------------------------------------------------------------------------------
------------------------------------------------------------------------------
                   ___                                                        
                  /   \      - P O W E R E D   B Y -                         
                 /     \                                                     
                 |  |  |   _    _      __       _____    __    __             
                 |  |  |  | |  | |    /  \     |  _  \  |  |  /  |          
                  \  \/   | |  | |   /    \    | | | |  |  | /  /          
                 / \  \   | |__| |  /  /\  \   | |_| |  |  |/  /          
                |  |  |   |  __  | /  /__\  \  |    /   |      \           
                |  |  |   | |  | | |   __   |  |    \   |  |\   \          
                \     /   | |  | | |  |  |  |  | |\  \  |  | \   \       
                 \___/    |_|  |_| |__|  |__|  |_| \__\ |__|  \__/        
                                                                              
                      - O R C A' S   B I G   F R I E N D -                    
                                      &                                       
                       - I N T E G R A L  F E E D E R -                       
                                                                              
 v1 FN, 2020, v2 2021                                                         
------------------------------------------------------------------------------


Reading SHARK input file epr_info.SHARKINP.tmp ... ok
----------------------
SHARK INTEGRAL PACKAGE
----------------------

Number of atoms                             ...     26
Number of basis functions                   ...    322
Number of shells                            ...    186
Maximum angular momentum                    ...      2
Integral batch strategy                     ... SHARK/LIBINT Hybrid
RI-J (if used) integral strategy            ... SPLIT-RIJ (Revised 2003 algorithm where possible)
Printlevel                                  ...      1
Contraction scheme used                     ... SEGMENTED contraction
Coulomb Range Separation                    ... NOT USED
Exchange Range Separation                   ... NOT USED
Finite Nucleus Model                        ... NOT USED
Auxiliary Coulomb fitting basis             ... AVAILABLE
   # of basis functions in Aux-J            ...   2276
   # of shells in Aux-J                     ...    880
   Maximum angular momentum in Aux-J        ...      3
Auxiliary J/K fitting basis                 ... AVAILABLE
   # of basis functions in Aux-JK           ...   2276
   # of shells in Aux-JK                    ...    880
   Maximum angular momentum in Aux-JK       ...      3
Auxiliary Correlation fitting basis         ... AVAILABLE
   # of basis functions in Aux-C            ...   2276
   # of shells in Aux-C                     ...    880
   Maximum angular momentum in Aux-C        ...      3
Auxiliary 'external' fitting basis          ... NOT available
Integral threshold                          ...     1.000000e-10
Primitive cut-off                           ...     1.000000e-11
Primitive pair pre-selection threshold      ...     1.000000e-11

Calculating pre-screening integrals         ... done (  0.0 sec) Dimension = 186
Organizing shell pair data                  ... done (  0.0 sec)
Shell pair information
Total number of shell pairs                 ...     17391
Shell pairs after pre-screening             ...     12124
Total number of primitive shell pairs       ...     47846
Primitive shell pairs kept                  ...     24122
          la=0 lb=0:   5466 shell pairs
          la=1 lb=0:   4121 shell pairs
          la=1 lb=1:    722 shell pairs
          la=2 lb=0:   1262 shell pairs
          la=2 lb=1:    470 shell pairs
          la=2 lb=2:     83 shell pairs

Calculating one electron integrals          ... done (  0.0 sec)
Calculating RI/J V-Matrix + Cholesky decomp.... done (  0.3 sec)
Calculating RI/JK V-Matrix + Cholesky decomp... done (  0.3 sec)
Calculating RI/C V-Matrix + Cholesky decomp.... done (  0.3 sec)
Calculating Nuclear repulsion               ... done (  0.0 sec) ENN=    910.002032179094 Eh

SHARK setup successfully completed in   1.0 seconds

Maximum memory used throughout the entire GTOINT-calculation: 23.4 MB


           ************************************************************
           *        Program running with 16 parallel MPI-processes    *
           *              working on a common directory               *
           ************************************************************
-------------------------------------------------------------------------------
                                 ORCA SCF
-------------------------------------------------------------------------------

------------
SCF SETTINGS
------------
Hamiltonian:
 Density Functional     Method          .... DFT(GTOs)
 Exchange Functional    Exchange        .... B88
   X-Alpha parameter    XAlpha          ....  0.666667
   Becke's b parameter  XBeta           ....  0.004200
 Correlation Functional Correlation     .... LYP
 LDA part of GGA corr.  LDAOpt          .... VWN-5
 Gradients option       PostSCFGGA      .... off
 Hybrid DFT is turned on
   Fraction HF Exchange ScalHFX         ....  0.200000
   Scaling of DF-GGA-X  ScalDFX         ....  0.720000
   Scaling of DF-GGA-C  ScalDFC         ....  0.810000
   Scaling of DF-LDA-C  ScalLDAC        ....  1.000000
   Perturbative correction              ....  0.000000
   Density functional embedding theory  .... OFF
   NL short-range parameter             ....  4.800000
 RI-approximation to the Coulomb term is turned on
   Number of AuxJ basis functions       .... 2276
   RIJ-COSX (HFX calculated with COS-X)).... on


General Settings:
 Integral files         IntName         .... epr_info
 Hartree-Fock type      HFTyp           .... UHF
 Total Charge           Charge          ....   -1
 Multiplicity           Mult            ....    2
 Number of Electrons    NEL             ....  107
 Basis Dimension        Dim             ....  322
 Nuclear Repulsion      ENuc            ....    910.0020321791 Eh

Convergence Acceleration:
 DIIS                   CNVDIIS         .... on
   Start iteration      DIISMaxIt       ....    12
   Startup error        DIISStart       ....  0.200000
   # of expansion vecs  DIISMaxEq       ....     5
   Bias factor          DIISBfac        ....   1.050
   Max. coefficient     DIISMaxC        ....  10.000
 Trust-Rad. Augm. Hess. CNVTRAH         .... auto
   Auto Start mean grad. ratio tolernc. ....  1.125000
   Auto Start start iteration           ....    20
   Auto Start num. interpolation iter.  ....    10
   Max. Number of Micro iterations      ....    16
   Max. Number of Macro iterations      .... Maxiter - #DIIS iter
   Number of Davidson start vectors     ....     2
   Converg. threshold I  (grad. norm)   ....   5.000e-05
   Converg. threshold II (energy diff.) ....   1.000e-06
   Grad. Scal. Fac. for Micro threshold ....   0.100
   Minimum threshold for Micro iter.    ....   0.010
   NR start threshold (gradient norm)   ....   0.001
   Initial trust radius                 ....   0.400
   Minimum AH scaling param. (alpha)    ....   1.000
   Maximum AH scaling param. (alpha)    .... 1000.000
   Orbital update algorithm             .... Taylor
   White noise on init. David. guess    .... on
   Maximum white noise                  ....   0.010
   Quad. conv. algorithm                .... NR
 SOSCF                  CNVSOSCF        .... off
 Level Shifting         CNVShift        .... on
   Level shift para.    LevelShift      ....    0.2500
   Turn off err/grad.   ShiftErr        ....    0.0010
 Zerner damping         CNVZerner       .... off
 Static damping         CNVDamp         .... on
   Fraction old density DampFac         ....    0.7000
   Max. Damping (<1)    DampMax         ....    0.9800
   Min. Damping (>=0)   DampMin         ....    0.0000
   Turn off err/grad.   DampErr         ....    0.1000
 Fernandez-Rico         CNVRico         .... off

SCF Procedure:
 Maximum # iterations   MaxIter         ....   125
 SCF integral mode      SCFMode         .... Direct
   Integral package                     .... SHARK and LIBINT hybrid scheme
 Reset frequency        DirectResetFreq ....    20
 Integral Threshold     Thresh          ....  1.000e-10 Eh
 Primitive CutOff       TCut            ....  1.000e-11 Eh

Convergence Tolerance:
 Convergence Check Mode ConvCheckMode   .... Total+1el-Energy
 Convergence forced     ConvForced      .... 0
 Energy Change          TolE            ....  1.000e-06 Eh
 1-El. energy change                    ....  1.000e-03 Eh
 DIIS Error             TolErr          ....  1.000e-06


Diagonalization of the overlap matrix:
Smallest eigenvalue                        ... 6.112e-04
Time for diagonalization                   ...    0.010 sec
Threshold for overlap eigenvalues          ... 1.000e-08
Number of eigenvalues below threshold      ... 0
Time for construction of square roots      ...    0.009 sec
Total time needed                          ...    0.020 sec

Time for model grid setup =    0.099 sec

------------------------------
INITIAL GUESS: MODEL POTENTIAL
------------------------------
Loading Hartree-Fock densities                     ... done
Calculating cut-offs                               ... done
Initializing the effective Hamiltonian             ... done
Setting up the integral package (SHARK)            ... done
Starting the Coulomb interaction                   ... done (   0.0 sec)
Reading the grid                                   ... done
Mapping shells                                     ... done
Starting the XC term evaluation                    ... done (   0.0 sec)
  promolecular density results
     # of electrons  =    105.988977637
     EX              =    -90.570998356
     EC              =     -3.649430341
     EX+EC           =    -94.220428697
Transforming the Hamiltonian                       ... done (   0.0 sec)
Diagonalizing the Hamiltonian                      ... done (   0.0 sec)
Back transforming the eigenvectors                 ... done (   0.0 sec)
Now organizing SCF variables                       ... done
                      ------------------
                      INITIAL GUESS DONE (   0.2 sec)
                      ------------------
-------------------
DFT GRID GENERATION
-------------------

General Integration Accuracy     IntAcc      ... 4.388
Radial Grid Type                 RadialGrid  ... OptM3 with GC (2021)
Angular Grid (max. ang.)         AngularGrid ... 4 (Lebedev-302)
Angular grid pruning method      GridPruning ... 4 (adaptive)
Weight generation scheme         WeightScheme... Becke
Basis function cutoff            BFCut       ... 1.0000e-10
Integration weight cutoff        WCut        ... 1.0000e-14
Angular grids for H and He will be reduced by one unit
Partially contracted basis set               ... off
Rotationally invariant grid construction     ... off

Total number of grid points                  ...   122704
Total number of batches                      ...     1930
Average number of points per batch           ...       63
Average number of grid points per atom       ...     4719
Time for grid setup =    0.525 sec

--------------------
COSX GRID GENERATION
--------------------

GRIDX 1
-------
General Integration Accuracy     IntAcc      ... 3.816
Radial Grid Type                 RadialGrid  ... OptM3 with GC (2021)
Angular Grid (max. ang.)         AngularGrid ... 1 (Lebedev-50)
Angular grid pruning method      GridPruning ... 4 (adaptive)
Weight generation scheme         WeightScheme... Becke
Basis function cutoff            BFCut       ... 1.0000e-10
Integration weight cutoff        WCut        ... 1.0000e-14
Angular grids for H and He will be reduced by one unit
Partially contracted basis set               ... on
Rotationally invariant grid construction     ... off

Total number of grid points                  ...    15609
Total number of batches                      ...      259
Average number of points per batch           ...       60
Average number of grid points per atom       ...      600
UseSFitting                                  ... on

GRIDX 2
-------
General Integration Accuracy     IntAcc      ... 4.020
Radial Grid Type                 RadialGrid  ... OptM3 with GC (2021)
Angular Grid (max. ang.)         AngularGrid ... 2 (Lebedev-110)
Angular grid pruning method      GridPruning ... 4 (adaptive)
Weight generation scheme         WeightScheme... Becke
Basis function cutoff            BFCut       ... 1.0000e-10
Integration weight cutoff        WCut        ... 1.0000e-14
Angular grids for H and He will be reduced by one unit
Partially contracted basis set               ... on
Rotationally invariant grid construction     ... off

Total number of grid points                  ...    33990
Total number of batches                      ...      545
Average number of points per batch           ...       62
Average number of grid points per atom       ...     1307
UseSFitting                                  ... on

GRIDX 3
-------
General Integration Accuracy     IntAcc      ... 4.338
Radial Grid Type                 RadialGrid  ... OptM3 with GC (2021)
Angular Grid (max. ang.)         AngularGrid ... 3 (Lebedev-194)
Angular grid pruning method      GridPruning ... 4 (adaptive)
Weight generation scheme         WeightScheme... Becke
Basis function cutoff            BFCut       ... 1.0000e-10
Integration weight cutoff        WCut        ... 1.0000e-14
Angular grids for H and He will be reduced by one unit
Partially contracted basis set               ... on
Rotationally invariant grid construction     ... off

Total number of grid points                  ...    74510
Total number of batches                      ...     1178
Average number of points per batch           ...       63
Average number of grid points per atom       ...     2866
UseSFitting                                  ... on

Time for X-Grid setup             =    0.676 sec

--------------
SCF ITERATIONS
--------------
ITER       Energy         Delta-E        Max-DP      RMS-DP      [F,P]     Damp
               ***  Starting incremental Fock matrix formation  ***
  0   -721.7512765629   0.000000000000 0.06442145  0.00122533  0.1382583 0.7000
  1   -722.0319188440  -0.280642281078 0.03923125  0.00089316  0.0562818 0.7000
                               ***Turning on DIIS***
  2   -722.1280660305  -0.096147186546 0.07922004  0.00146140  0.0190966 0.0000
  3   -722.2955794177  -0.167513387177 0.03264224  0.00062897  0.0316957 0.0000
  4   -722.3273934722  -0.031814054555 0.01619519  0.00023620  0.0073120 0.0000
  5   -722.3302233212  -0.002829848960 0.00798310  0.00009497  0.0035368 0.0000
  6   -722.3304767028  -0.000253381619 0.00374987  0.00004379  0.0016608 0.0000
  7   -722.3305326069  -0.000055904060 0.00398352  0.00004525  0.0007038 0.0000
               *** Restarting incremental Fock matrix formation ***
                                   *** Resetting DIIS ***
  8   -722.3305796810  -0.000047074114 0.00127213  0.00001652  0.0003380 0.0000
  9   -722.3305786114   0.000001069562 0.00072832  0.00000879  0.0007519 0.0000
 10   -722.3305861560  -0.000007544617 0.00033227  0.00000382  0.0001374 0.0000
 11   -722.3305869439  -0.000000787875 0.00020628  0.00000261  0.0001333 0.0000
                 **** Energy Check signals convergence ****

               *****************************************************
               *                     SUCCESS                       *
               *           SCF CONVERGED AFTER  12 CYCLES          *
               *****************************************************

Old exchange energy                            =    -18.398926255 Eh
New exchange energy                            =    -18.398986690 Eh
Exchange energy change after final integration =     -0.000060434 Eh
Total energy after final integration           =   -722.330647725 Eh
Final COS-X integration done in                =     2.202 sec

----------------
TOTAL SCF ENERGY
----------------

Total Energy       :         -722.33064773 Eh          -19655.61620 eV

Components:
Nuclear Repulsion  :          910.00203218 Eh           24762.41419 eV
Electronic Energy  :        -1632.33267990 Eh          -44418.03039 eV
One Electron Energy:        -2807.74913856 Eh          -76402.73830 eV
Two Electron Energy:         1175.41645865 Eh           31984.70791 eV
Max COSX asymmetry :            0.00000146 Eh               0.00004 eV

Virial components:
Potential Energy   :        -1439.89484930 Eh          -39181.53080 eV
Kinetic Energy     :          717.56420157 Eh           19525.91460 eV
Virial Ratio       :            2.00664254


DFT components:
N(Alpha)           :       53.999974293867 electrons
N(Beta)            :       52.999985854578 electrons
N(Total)           :      106.999960148445 electrons
E(X)               :      -73.201534498152 Eh       
E(C)               :       -4.331367050210 Eh       
E(XC)              :      -77.532901548362 Eh       
DFET-embed. en.    :        0.000000000000 Eh       

---------------
SCF CONVERGENCE
---------------

  Last Energy change         ...   -3.4718e-07  Tolerance :   1.0000e-06
  Last MAX-Density change    ...    0.0000e+00  Tolerance :   1.0000e-05
  Last RMS-Density change    ...    0.0000e+00  Tolerance :   1.0000e-06
  Last DIIS Error            ...    6.2303e-05  Tolerance :   1.0000e-06

             **** THE GBW FILE WAS UPDATED (epr_info.gbw) ****
             **** DENSITY epr_info.scfp WAS UPDATED ****
             **** ENERGY FILE WAS UPDATED (epr_info.en.tmp) ****
----------------------
UHF SPIN CONTAMINATION
----------------------

Warning: in a DFT calculation there is little theoretical justification to 
         calculate <S**2> as in Hartree-Fock theory. We will do it anyways
         but you should keep in mind that the values have only limited relevance

Expectation value of <S**2>     :     0.756159
Ideal value S*(S+1) for S=0.5   :     0.750000
Deviation                       :     0.006159

             **** THE GBW FILE WAS UPDATED (epr_info.gbw) ****
             **** DENSITY epr_info.scfp WAS UPDATED ****
----------------
ORBITAL ENERGIES
----------------
                 SPIN UP ORBITALS
  NO   OCC          E(Eh)            E(eV) 
   0   1.0000     -19.008771      -517.2550 
   1   1.0000     -18.983414      -516.5650 
   2   1.0000     -18.928802      -515.0789 
   3   1.0000     -18.921376      -514.8768 
   4   1.0000     -14.266916      -388.2225 
   5   1.0000     -14.211364      -386.7109 
   6   1.0000     -10.193920      -277.3907 
   7   1.0000     -10.162029      -276.5229 
   8   1.0000     -10.123722      -275.4805 
   9   1.0000     -10.120522      -275.3934 
  10   1.0000     -10.101853      -274.8854 
  11   1.0000     -10.093890      -274.6687 
  12   1.0000     -10.062403      -273.8119 
  13   1.0000     -10.044236      -273.3176 
  14   1.0000      -0.929641       -25.2968 
  15   1.0000      -0.900864       -24.5138 
  16   1.0000      -0.858556       -23.3625 
  17   1.0000      -0.828428       -22.5427 
  18   1.0000      -0.784563       -21.3490 
  19   1.0000      -0.770249       -20.9595 
  20   1.0000      -0.674041       -18.3416 
  21   1.0000      -0.635267       -17.2865 
  22   1.0000      -0.596801       -16.2398 
  23   1.0000      -0.561078       -15.2677 
  24   1.0000      -0.512525       -13.9465 
  25   1.0000      -0.459697       -12.5090 
  26   1.0000      -0.438817       -11.9408 
  27   1.0000      -0.418186       -11.3794 
  28   1.0000      -0.374932       -10.2024 
  29   1.0000      -0.358858        -9.7650 
  30   1.0000      -0.349401        -9.5077 
  31   1.0000      -0.337806        -9.1922 
  32   1.0000      -0.333021        -9.0620 
  33   1.0000      -0.325988        -8.8706 
  34   1.0000      -0.309070        -8.4102 
  35   1.0000      -0.306468        -8.3394 
  36   1.0000      -0.294616        -8.0169 
  37   1.0000      -0.292699        -7.9647 
  38   1.0000      -0.286292        -7.7904 
  39   1.0000      -0.268935        -7.3181 
  40   1.0000      -0.265120        -7.2143 
  41   1.0000      -0.254883        -6.9357 
  42   1.0000      -0.238027        -6.4770 
  43   1.0000      -0.235482        -6.4078 
  44   1.0000      -0.220342        -5.9958 
  45   1.0000      -0.198884        -5.4119 
  46   1.0000      -0.195480        -5.3193 
  47   1.0000      -0.152330        -4.1451 
  48   1.0000      -0.143599        -3.9075 
  49   1.0000      -0.131582        -3.5805 
  50   1.0000      -0.090808        -2.4710 
  51   1.0000      -0.084890        -2.3100 
  52   1.0000      -0.071975        -1.9585 
  53   1.0000      -0.052732        -1.4349 
  54   0.0000       0.100967         2.7474 
  55   0.0000       0.121328         3.3015 
  56   0.0000       0.126925         3.4538 
  57   0.0000       0.146870         3.9965 
  58   0.0000       0.169098         4.6014 
  59   0.0000       0.173765         4.7284 
  60   0.0000       0.180318         4.9067 
  61   0.0000       0.189664         5.1610 
  62   0.0000       0.204701         5.5702 
  63   0.0000       0.213648         5.8137 
  64   0.0000       0.218019         5.9326 
  65   0.0000       0.226075         6.1518 
  66   0.0000       0.247941         6.7468 
  67   0.0000       0.257191         6.9985 
  68   0.0000       0.274309         7.4643 
  69   0.0000       0.281561         7.6617 
  70   0.0000       0.286689         7.8012 
  71   0.0000       0.299139         8.1400 
  72   0.0000       0.305356         8.3092 
  73   0.0000       0.315737         8.5916 
  74   0.0000       0.324674         8.8348 
  75   0.0000       0.327774         8.9192 
  76   0.0000       0.332553         9.0492 
  77   0.0000       0.351512         9.5651 
  78   0.0000       0.353797         9.6273 
  79   0.0000       0.357891         9.7387 
  80   0.0000       0.365894         9.9565 
  81   0.0000       0.370842        10.0911 
  82   0.0000       0.376185        10.2365 
  83   0.0000       0.384104        10.4520 
  84   0.0000       0.393316        10.7027 
  85   0.0000       0.402969        10.9653 
  86   0.0000       0.407656        11.0929 
  87   0.0000       0.413307        11.2467 
  88   0.0000       0.418281        11.3820 
  89   0.0000       0.424762        11.5584 
  90   0.0000       0.426893        11.6163 
  91   0.0000       0.441996        12.0273 
  92   0.0000       0.448668        12.2089 
  93   0.0000       0.455958        12.4072 
  94   0.0000       0.462923        12.5968 
  95   0.0000       0.469578        12.7779 
  96   0.0000       0.478547        13.0219 
  97   0.0000       0.505739        13.7619 
  98   0.0000       0.507277        13.8037 
  99   0.0000       0.520816        14.1721 
 100   0.0000       0.528938        14.3931 
 101   0.0000       0.531213        14.4550 
 102   0.0000       0.547081        14.8868 
 103   0.0000       0.555779        15.1235 
 104   0.0000       0.565029        15.3752 
 105   0.0000       0.573777        15.6133 
 106   0.0000       0.586168        15.9504 
 107   0.0000       0.597756        16.2658 
 108   0.0000       0.607736        16.5373 
 109   0.0000       0.622934        16.9509 
 110   0.0000       0.627143        17.0654 
 111   0.0000       0.641084        17.4448 
 112   0.0000       0.658898        17.9295 
 113   0.0000       0.662010        18.0142 
 114   0.0000       0.667447        18.1621 
 115   0.0000       0.687211        18.7000 
 116   0.0000       0.707709        19.2577 
 117   0.0000       0.733533        19.9604 
 118   0.0000       0.742863        20.2143 
 119   0.0000       0.764914        20.8144 
 120   0.0000       0.773391        21.0450 
 121   0.0000       0.804660        21.8959 
 122   0.0000       0.829426        22.5698 
 123   0.0000       0.841801        22.9066 
 124   0.0000       0.871805        23.7230 
 125   0.0000       0.881768        23.9941 
 126   0.0000       0.896545        24.3962 
 127   0.0000       0.901725        24.5372 
 128   0.0000       0.914735        24.8912 
 129   0.0000       0.920902        25.0590 
 130   0.0000       0.937164        25.5015 
 131   0.0000       0.947117        25.7724 
 132   0.0000       0.954459        25.9722 
 133   0.0000       0.962290        26.1852 
 134   0.0000       0.977266        26.5927 
 135   0.0000       0.984360        26.7858 
 136   0.0000       0.997119        27.1330 
 137   0.0000       1.000126        27.2148 
 138   0.0000       1.010332        27.4925 
 139   0.0000       1.022654        27.8278 
 140   0.0000       1.026701        27.9379 
 141   0.0000       1.032384        28.0926 
 142   0.0000       1.045091        28.4384 
 143   0.0000       1.054458        28.6933 
 144   0.0000       1.059416        28.8282 
 145   0.0000       1.070643        29.1337 
 146   0.0000       1.082847        29.4658 
 147   0.0000       1.095424        29.8080 
 148   0.0000       1.097749        29.8713 
 149   0.0000       1.111343        30.2412 
 150   0.0000       1.120452        30.4891 
 151   0.0000       1.132530        30.8177 
 152   0.0000       1.146051        31.1856 
 153   0.0000       1.157398        31.4944 
 154   0.0000       1.162234        31.6260 
 155   0.0000       1.182215        32.1697 
 156   0.0000       1.201363        32.6907 
 157   0.0000       1.205984        32.8165 
 158   0.0000       1.221979        33.2517 
 159   0.0000       1.228937        33.4411 
 160   0.0000       1.262076        34.3428 
 161   0.0000       1.275355        34.7042 
 162   0.0000       1.300044        35.3760 
 163   0.0000       1.316767        35.8311 
 164   0.0000       1.328431        36.1485 
 165   0.0000       1.354342        36.8535 
 166   0.0000       1.363464        37.1018 
 167   0.0000       1.401238        38.1296 
 168   0.0000       1.418323        38.5945 
 169   0.0000       1.430534        38.9268 
 170   0.0000       1.446235        39.3541 
 171   0.0000       1.476015        40.1644 
 172   0.0000       1.491646        40.5898 
 173   0.0000       1.495964        40.7072 
 174   0.0000       1.512384        41.1541 
 175   0.0000       1.529872        41.6299 
 176   0.0000       1.559470        42.4353 
 177   0.0000       1.567834        42.6629 
 178   0.0000       1.583394        43.0864 
 179   0.0000       1.588672        43.2300 
 180   0.0000       1.598259        43.4908 
 181   0.0000       1.611273        43.8450 
 182   0.0000       1.634194        44.4687 
 183   0.0000       1.641497        44.6674 
 184   0.0000       1.645671        44.7810 
 185   0.0000       1.658023        45.1171 
 186   0.0000       1.668657        45.4065 
 187   0.0000       1.676791        45.6278 
 188   0.0000       1.690738        46.0073 
 189   0.0000       1.715568        46.6830 
 190   0.0000       1.722337        46.8672 
 191   0.0000       1.728824        47.0437 
 192   0.0000       1.744337        47.4658 
 193   0.0000       1.752966        47.7006 
 194   0.0000       1.780822        48.4586 
 195   0.0000       1.811802        49.3016 
 196   0.0000       1.817204        49.4486 
 197   0.0000       1.826653        49.7058 
 198   0.0000       1.842673        50.1417 
 199   0.0000       1.860362        50.6230 
 200   0.0000       1.876076        51.0506 
 201   0.0000       1.882496        51.2253 
 202   0.0000       1.906937        51.8904 
 203   0.0000       1.915311        52.1183 
 204   0.0000       1.916937        52.1625 
 205   0.0000       1.944677        52.9173 
 206   0.0000       1.956240        53.2320 
 207   0.0000       1.968312        53.5605 
 208   0.0000       1.982223        53.9390 
 209   0.0000       1.994397        54.2703 
 210   0.0000       2.016837        54.8809 
 211   0.0000       2.041276        55.5459 
 212   0.0000       2.086868        56.7866 
 213   0.0000       2.100554        57.1590 
 214   0.0000       2.131279        57.9950 
 215   0.0000       2.134929        58.0944 
 216   0.0000       2.149568        58.4927 
 217   0.0000       2.162778        58.8522 
 218   0.0000       2.179991        59.3206 
 219   0.0000       2.200781        59.8863 
 220   0.0000       2.232406        60.7469 
 221   0.0000       2.247256        61.1510 
 222   0.0000       2.252402        61.2910 
 223   0.0000       2.270104        61.7727 
 224   0.0000       2.309208        62.8367 
 225   0.0000       2.319720        63.1228 
 226   0.0000       2.372115        64.5485 
 227   0.0000       2.379518        64.7500 
 228   0.0000       2.390888        65.0594 
 229   0.0000       2.403536        65.4035 
 230   0.0000       2.422048        65.9073 
 231   0.0000       2.463674        67.0400 
 232   0.0000       2.477215        67.4084 
 233   0.0000       2.483768        67.5868 
 234   0.0000       2.500631        68.0456 
 235   0.0000       2.522229        68.6333 
 236   0.0000       2.578557        70.1661 
 237   0.0000       2.584109        70.3172 
 238   0.0000       2.610337        71.0309 
 239   0.0000       2.617759        71.2329 
 240   0.0000       2.628465        71.5242 
 241   0.0000       2.654537        72.2336 
 242   0.0000       2.671374        72.6918 
 243   0.0000       2.683306        73.0165 
 244   0.0000       2.733294        74.3767 
 245   0.0000       2.785036        75.7847 
 246   0.0000       2.816217        76.6332 
 247   0.0000       2.825861        76.8956 
 248   0.0000       2.842401        77.3457 
 249   0.0000       2.853020        77.6346 
 250   0.0000       2.864720        77.9530 
 251   0.0000       2.868932        78.0676 
 252   0.0000       2.893351        78.7321 
 253   0.0000       2.929363        79.7120 
 254   0.0000       2.994145        81.4748 
 255   0.0000       3.019174        82.1559 
 256   0.0000       3.126822        85.0851 
 257   0.0000       3.153298        85.8056 
 258   0.0000       3.178818        86.5000 
 259   0.0000       3.201727        87.1234 
 260   0.0000       3.269920        88.9791 
 261   0.0000       3.358445        91.3879 
 262   0.0000       3.378899        91.9445 
 263   0.0000       3.463360        94.2428 
 264   0.0000       3.487148        94.8901 
 265   0.0000       3.526926        95.9725 
 266   0.0000       3.548948        96.5718 
 267   0.0000       3.572672        97.2174 
 268   0.0000       3.583830        97.5210 
 269   0.0000       3.680315       100.1465 
 270   0.0000       5.070705       137.9809 
 271   0.0000       5.084167       138.3472 
 272   0.0000       5.105184       138.9191 
 273   0.0000       5.112502       139.1182 
 274   0.0000       5.135511       139.7444 
 275   0.0000       5.172540       140.7520 
 276   0.0000       5.187321       141.1542 
 277   0.0000       5.257165       143.0547 
 278   0.0000       5.316411       144.6669 
 279   0.0000       5.348787       145.5479 
 280   0.0000       5.382199       146.4571 
 281   0.0000       5.406634       147.1220 
 282   0.0000       5.433470       147.8522 
 283   0.0000       5.447956       148.2464 
 284   0.0000       5.474673       148.9734 
 285   0.0000       5.682571       154.6306 
 286   0.0000       5.761776       156.7859 
 287   0.0000       5.789632       157.5439 
 288   0.0000       5.836704       158.8248 
 289   0.0000       5.943184       161.7223 
 290   0.0000       7.449809       202.7196 
 291   0.0000       7.505492       204.2348 
 292   0.0000       9.160868       249.2799 
 293   0.0000       9.167176       249.4515 
 294   0.0000       9.249628       251.6952 
 295   0.0000       9.314473       253.4597 
 296   0.0000      29.692554       807.9755 
 297   0.0000      29.733175       809.0808 
 298   0.0000      29.763494       809.9058 
 299   0.0000      30.003144       816.4270 
 300   0.0000      30.135683       820.0336 
 301   0.0000      30.153738       820.5249 
 302   0.0000      30.248307       823.0983 
 303   0.0000      30.342866       825.6714 
 304   0.0000      36.692734       998.4600 
 305   0.0000      36.725753       999.3585 
 306   0.0000      36.735841       999.6331 
 307   0.0000      36.752450      1000.0850 
 308   0.0000      36.798095      1001.3271 
 309   0.0000      36.800044      1001.3801 
 310   0.0000      36.869526      1003.2708 
 311   0.0000      36.919046      1004.6183 
 312   0.0000      36.987358      1006.4772 
 313   0.0000      37.007859      1007.0350 
 314   0.0000      37.020947      1007.3912 
 315   0.0000      37.070775      1008.7471 
 316   0.0000      41.385417      1126.1545 
 317   0.0000      41.443861      1127.7448 
 318   0.0000      53.701307      1461.2868 
 319   0.0000      53.706700      1461.4336 
 320   0.0000      53.782556      1463.4978 
 321   0.0000      53.850367      1465.3430 

                 SPIN DOWN ORBITALS
  NO   OCC          E(Eh)            E(eV) 
   0   1.0000     -19.005948      -517.1781 
   1   1.0000     -18.981579      -516.5150 
   2   1.0000     -18.928794      -515.0787 
   3   1.0000     -18.921172      -514.8713 
   4   1.0000     -14.266464      -388.2102 
   5   1.0000     -14.209407      -386.6576 
   6   1.0000     -10.192899      -277.3629 
   7   1.0000     -10.162544      -276.5369 
   8   1.0000     -10.120544      -275.3940 
   9   1.0000     -10.113623      -275.2057 
  10   1.0000     -10.101992      -274.8892 
  11   1.0000     -10.094005      -274.6719 
  12   1.0000     -10.062978      -273.8276 
  13   1.0000     -10.043210      -273.2896 
  14   1.0000      -0.924540       -25.1580 
  15   1.0000      -0.897096       -24.4112 
  16   1.0000      -0.858330       -23.3564 
  17   1.0000      -0.822698       -22.3868 
  18   1.0000      -0.781807       -21.2741 
  19   1.0000      -0.768863       -20.9218 
  20   1.0000      -0.665675       -18.1140 
  21   1.0000      -0.633424       -17.2363 
  22   1.0000      -0.593045       -16.1376 
  23   1.0000      -0.555140       -15.1061 
  24   1.0000      -0.510158       -13.8821 
  25   1.0000      -0.455830       -12.4038 
  26   1.0000      -0.436252       -11.8710 
  27   1.0000      -0.415038       -11.2938 
  28   1.0000      -0.373244       -10.1565 
  29   1.0000      -0.351969        -9.5776 
  30   1.0000      -0.347595        -9.4586 
  31   1.0000      -0.333426        -9.0730 
  32   1.0000      -0.330302        -8.9880 
  33   1.0000      -0.321997        -8.7620 
  34   1.0000      -0.307383        -8.3643 
  35   1.0000      -0.301774        -8.2117 
  36   1.0000      -0.293331        -7.9819 
  37   1.0000      -0.285735        -7.7753 
  38   1.0000      -0.282317        -7.6822 
  39   1.0000      -0.267758        -7.2861 
  40   1.0000      -0.259432        -7.0595 
  41   1.0000      -0.247440        -6.7332 
  42   1.0000      -0.235417        -6.4060 
  43   1.0000      -0.234597        -6.3837 
  44   1.0000      -0.216246        -5.8843 
  45   1.0000      -0.195124        -5.3096 
  46   1.0000      -0.183199        -4.9851 
  47   1.0000      -0.149675        -4.0729 
  48   1.0000      -0.139492        -3.7958 
  49   1.0000      -0.119800        -3.2599 
  50   1.0000      -0.089979        -2.4484 
  51   1.0000      -0.084387        -2.2963 
  52   1.0000      -0.068455        -1.8627 
  53   0.0000       0.036226         0.9858 
  54   0.0000       0.101253         2.7552 
  55   0.0000       0.126818         3.4509 
  56   0.0000       0.136571         3.7163 
  57   0.0000       0.147415         4.0114 
  58   0.0000       0.170001         4.6260 
  59   0.0000       0.175165         4.7665 
  60   0.0000       0.180851         4.9212 
  61   0.0000       0.204693         5.5700 
  62   0.0000       0.205321         5.5871 
  63   0.0000       0.216777         5.8988 
  64   0.0000       0.222262         6.0481 
  65   0.0000       0.229527         6.2458 
  66   0.0000       0.248623         6.7654 
  67   0.0000       0.258031         7.0214 
  68   0.0000       0.275478         7.4961 
  69   0.0000       0.283297         7.7089 
  70   0.0000       0.288858         7.8602 
  71   0.0000       0.300879         8.1873 
  72   0.0000       0.306711         8.3460 
  73   0.0000       0.319869         8.7041 
  74   0.0000       0.325773         8.8647 
  75   0.0000       0.328819         8.9476 
  76   0.0000       0.333436         9.0733 
  77   0.0000       0.353985         9.6324 
  78   0.0000       0.355641         9.6775 
  79   0.0000       0.358838         9.7645 
  80   0.0000       0.367519        10.0007 
  81   0.0000       0.371345        10.1048 
  82   0.0000       0.377213        10.2645 
  83   0.0000       0.386207        10.5092 
  84   0.0000       0.395752        10.7690 
  85   0.0000       0.404490        11.0067 
  86   0.0000       0.409715        11.1489 
  87   0.0000       0.417547        11.3620 
  88   0.0000       0.419847        11.4246 
  89   0.0000       0.426402        11.6030 
  90   0.0000       0.430697        11.7199 
  91   0.0000       0.445609        12.1256 
  92   0.0000       0.452457        12.3120 
  93   0.0000       0.457924        12.4607 
  94   0.0000       0.466598        12.6968 
  95   0.0000       0.472967        12.8701 
  96   0.0000       0.481594        13.1048 
  97   0.0000       0.507083        13.7984 
  98   0.0000       0.509947        13.8764 
  99   0.0000       0.521820        14.1994 
 100   0.0000       0.530257        14.4290 
 101   0.0000       0.532743        14.4967 
 102   0.0000       0.548122        14.9151 
 103   0.0000       0.557195        15.1621 
 104   0.0000       0.569133        15.4869 
 105   0.0000       0.575179        15.6514 
 106   0.0000       0.588720        16.0199 
 107   0.0000       0.599920        16.3246 
 108   0.0000       0.609264        16.5789 
 109   0.0000       0.626031        17.0352 
 110   0.0000       0.630704        17.1623 
 111   0.0000       0.646956        17.6046 
 112   0.0000       0.660107        17.9624 
 113   0.0000       0.664136        18.0720 
 114   0.0000       0.670610        18.2482 
 115   0.0000       0.689267        18.7559 
 116   0.0000       0.710071        19.3220 
 117   0.0000       0.736413        20.0388 
 118   0.0000       0.744817        20.2675 
 119   0.0000       0.771678        20.9984 
 120   0.0000       0.776260        21.1231 
 121   0.0000       0.807738        21.9797 
 122   0.0000       0.833228        22.6733 
 123   0.0000       0.843731        22.9591 
 124   0.0000       0.874565        23.7981 
 125   0.0000       0.885121        24.0854 
 126   0.0000       0.898766        24.4567 
 127   0.0000       0.904266        24.6063 
 128   0.0000       0.917593        24.9690 
 129   0.0000       0.923217        25.1220 
 130   0.0000       0.939520        25.5656 
 131   0.0000       0.948371        25.8065 
 132   0.0000       0.955273        25.9943 
 133   0.0000       0.963631        26.2217 
 134   0.0000       0.977815        26.6077 
 135   0.0000       0.986804        26.8523 
 136   0.0000       0.998099        27.1597 
 137   0.0000       1.002211        27.2715 
 138   0.0000       1.013962        27.5913 
 139   0.0000       1.023777        27.8584 
 140   0.0000       1.028480        27.9864 
 141   0.0000       1.033610        28.1259 
 142   0.0000       1.046668        28.4813 
 143   0.0000       1.056402        28.7462 
 144   0.0000       1.061411        28.8825 
 145   0.0000       1.073732        29.2177 
 146   0.0000       1.085506        29.5381 
 147   0.0000       1.098013        29.8784 
 148   0.0000       1.099586        29.9212 
 149   0.0000       1.113109        30.2892 
 150   0.0000       1.123968        30.5847 
 151   0.0000       1.133619        30.8473 
 152   0.0000       1.150703        31.3122 
 153   0.0000       1.159319        31.5467 
 154   0.0000       1.168156        31.7871 
 155   0.0000       1.183497        32.2046 
 156   0.0000       1.204154        32.7667 
 157   0.0000       1.207177        32.8489 
 158   0.0000       1.224318        33.3154 
 159   0.0000       1.232952        33.5503 
 160   0.0000       1.262834        34.3635 
 161   0.0000       1.279051        34.8047 
 162   0.0000       1.301934        35.4274 
 163   0.0000       1.318414        35.8759 
 164   0.0000       1.330270        36.1985 
 165   0.0000       1.356161        36.9030 
 166   0.0000       1.366557        37.1859 
 167   0.0000       1.404991        38.2317 
 168   0.0000       1.419294        38.6210 
 169   0.0000       1.434070        39.0230 
 170   0.0000       1.448052        39.4035 
 171   0.0000       1.478145        40.2224 
 172   0.0000       1.493424        40.6381 
 173   0.0000       1.497022        40.7360 
 174   0.0000       1.516497        41.2660 
 175   0.0000       1.530452        41.6457 
 176   0.0000       1.561208        42.4826 
 177   0.0000       1.570478        42.7349 
 178   0.0000       1.584660        43.1208 
 179   0.0000       1.589967        43.2652 
 180   0.0000       1.605236        43.6807 
 181   0.0000       1.613669        43.9102 
 182   0.0000       1.636501        44.5315 
 183   0.0000       1.643976        44.7349 
 184   0.0000       1.648751        44.8648 
 185   0.0000       1.660705        45.1901 
 186   0.0000       1.670133        45.4466 
 187   0.0000       1.680747        45.7354 
 188   0.0000       1.694175        46.1008 
 189   0.0000       1.718663        46.7672 
 190   0.0000       1.726381        46.9772 
 191   0.0000       1.730517        47.0898 
 192   0.0000       1.746887        47.5352 
 193   0.0000       1.755575        47.7716 
 194   0.0000       1.786402        48.6105 
 195   0.0000       1.813993        49.3612 
 196   0.0000       1.819316        49.5061 
 197   0.0000       1.829476        49.7826 
 198   0.0000       1.845641        50.2224 
 199   0.0000       1.863321        50.7035 
 200   0.0000       1.878830        51.1256 
 201   0.0000       1.885083        51.2957 
 202   0.0000       1.908756        51.9399 
 203   0.0000       1.917254        52.1711 
 204   0.0000       1.919189        52.2238 
 205   0.0000       1.946316        52.9619 
 206   0.0000       1.958083        53.2821 
 207   0.0000       1.972070        53.6628 
 208   0.0000       1.984246        53.9941 
 209   0.0000       1.995554        54.3018 
 210   0.0000       2.018149        54.9166 
 211   0.0000       2.045961        55.6734 
 212   0.0000       2.088538        56.8320 
 213   0.0000       2.103276        57.2330 
 214   0.0000       2.132287        58.0225 
 215   0.0000       2.136904        58.1481 
 216   0.0000       2.151276        58.5392 
 217   0.0000       2.164287        58.8932 
 218   0.0000       2.185355        59.4665 
 219   0.0000       2.201843        59.9152 
 220   0.0000       2.233968        60.7894 
 221   0.0000       2.249709        61.2177 
 222   0.0000       2.255004        61.3618 
 223   0.0000       2.271931        61.8224 
 224   0.0000       2.311171        62.8902 
 225   0.0000       2.322423        63.1964 
 226   0.0000       2.375487        64.6403 
 227   0.0000       2.381742        64.8105 
 228   0.0000       2.394958        65.1701 
 229   0.0000       2.406773        65.4916 
 230   0.0000       2.426771        66.0358 
 231   0.0000       2.465901        67.1006 
 232   0.0000       2.478786        67.4512 
 233   0.0000       2.484286        67.6009 
 234   0.0000       2.504034        68.1382 
 235   0.0000       2.525120        68.7120 
 236   0.0000       2.581437        70.2445 
 237   0.0000       2.584792        70.3358 
 238   0.0000       2.611491        71.0623 
 239   0.0000       2.619552        71.2816 
 240   0.0000       2.629819        71.5610 
 241   0.0000       2.656098        72.2761 
 242   0.0000       2.673524        72.7503 
 243   0.0000       2.685276        73.0701 
 244   0.0000       2.737039        74.4786 
 245   0.0000       2.788888        75.8895 
 246   0.0000       2.820365        76.7460 
 247   0.0000       2.829076        76.9831 
 248   0.0000       2.848022        77.4986 
 249   0.0000       2.856985        77.7425 
 250   0.0000       2.869748        78.0898 
 251   0.0000       2.870271        78.1040 
 252   0.0000       2.895360        78.7868 
 253   0.0000       2.929790        79.7236 
 254   0.0000       2.996478        81.5383 
 255   0.0000       3.020762        82.1991 
 256   0.0000       3.129518        85.1585 
 257   0.0000       3.155626        85.8690 
 258   0.0000       3.185307        86.6766 
 259   0.0000       3.209098        87.3240 
 260   0.0000       3.270623        88.9982 
 261   0.0000       3.358783        91.3971 
 262   0.0000       3.379613        91.9639 
 263   0.0000       3.464237        94.2667 
 264   0.0000       3.488331        94.9223 
 265   0.0000       3.530019        96.0567 
 266   0.0000       3.550976        96.6270 
 267   0.0000       3.573630        97.2434 
 268   0.0000       3.584683        97.5442 
 269   0.0000       3.680610       100.1545 
 270   0.0000       5.071964       138.0152 
 271   0.0000       5.089073       138.4807 
 272   0.0000       5.105903       138.9387 
 273   0.0000       5.113914       139.1567 
 274   0.0000       5.136706       139.7769 
 275   0.0000       5.173366       140.7744 
 276   0.0000       5.189387       141.2104 
 277   0.0000       5.261745       143.1794 
 278   0.0000       5.317716       144.7024 
 279   0.0000       5.349036       145.5547 
 280   0.0000       5.382742       146.4718 
 281   0.0000       5.407412       147.1432 
 282   0.0000       5.434812       147.8888 
 283   0.0000       5.450410       148.3132 
 284   0.0000       5.475256       148.9893 
 285   0.0000       5.684112       154.6726 
 286   0.0000       5.762202       156.7975 
 287   0.0000       5.790716       157.5734 
 288   0.0000       5.844044       159.0245 
 289   0.0000       5.947371       161.8362 
 290   0.0000       7.451922       202.7771 
 291   0.0000       7.509828       204.3528 
 292   0.0000       9.161246       249.2902 
 293   0.0000       9.173318       249.6187 
 294   0.0000       9.253532       251.8014 
 295   0.0000       9.314867       253.4704 
 296   0.0000      29.695282       808.0497 
 297   0.0000      29.734950       809.1291 
 298   0.0000      29.766173       809.9787 
 299   0.0000      30.003958       816.4492 
 300   0.0000      30.136327       820.0511 
 301   0.0000      30.153920       820.5299 
 302   0.0000      30.254711       823.2726 
 303   0.0000      30.343669       825.6932 
 304   0.0000      36.694706       998.5137 
 305   0.0000      36.726390       999.3759 
 306   0.0000      36.738053       999.6932 
 307   0.0000      36.753395      1000.1107 
 308   0.0000      36.798573      1001.3401 
 309   0.0000      36.803858      1001.4839 
 310   0.0000      36.869180      1003.2614 
 311   0.0000      36.918573      1004.6054 
 312   0.0000      36.988768      1006.5155 
 313   0.0000      37.009370      1007.0762 
 314   0.0000      37.022476      1007.4328 
 315   0.0000      37.073365      1008.8175 
 316   0.0000      41.386085      1126.1726 
 317   0.0000      41.446321      1127.8117 
 318   0.0000      53.701496      1461.2920 
 319   0.0000      53.709963      1461.5224 
 320   0.0000      53.784623      1463.5540 
 321   0.0000      53.850589      1465.3490 

                    ********************************
                    * MULLIKEN POPULATION ANALYSIS *
                    ********************************

--------------------------------------------
MULLIKEN ATOMIC CHARGES AND SPIN POPULATIONS
--------------------------------------------
   0 N :    0.008348    0.011214
   1 C :    0.112876    0.662120
   2 C :    0.024148   -0.022550
   3 O :   -0.452002    0.067987
   4 C :   -0.350739   -0.039543
   5 H :    0.163401    0.010255
   6 H :    0.142659    0.007859
   7 C :   -0.299255    0.037976
   8 H :    0.135909    0.003740
   9 H :    0.157117   -0.001870
  10 C :    0.087082   -0.000277
  11 O :   -0.431799    0.000325
  12 O :   -0.415183    0.006700
  13 H :    0.234512   -0.002018
  14 C :    0.091991    0.061154
  15 N :   -0.070842    0.086713
  16 H :    0.260905   -0.002261
  17 O :   -0.321283    0.102170
  18 C :   -0.567484   -0.005015
  19 H :    0.176805    0.006296
  20 H :    0.172592    0.006029
  21 H :    0.148071   -0.000140
  22 C :   -0.470557   -0.007890
  23 H :    0.155481    0.004150
  24 H :    0.149719    0.000203
  25 H :    0.157528    0.006673
Sum of atomic charges         :   -1.0000000
Sum of atomic spin populations:    1.0000000

-----------------------------------------------------
MULLIKEN REDUCED ORBITAL CHARGES AND SPIN POPULATIONS
-----------------------------------------------------
CHARGE
  0 N s       :     3.353444  s :     3.353444
      pz      :     1.141425  p :     3.599614
      px      :     0.996363
      py      :     1.461826
      dz2     :     0.007775  d :     0.038594
      dxz     :     0.011281
      dyz     :     0.004920
      dx2y2   :     0.006915
      dxy     :     0.007702
  1 C s       :     3.104229  s :     3.104229
      pz      :     0.898816  p :     2.691401
      px      :     0.806408
      py      :     0.986176
      dz2     :     0.022611  d :     0.091495
      dxz     :     0.021825
      dyz     :     0.009711
      dx2y2   :     0.018882
      dxy     :     0.018467
  2 C s       :     3.079289  s :     3.079289
      pz      :     0.940758  p :     2.702925
      px      :     0.884537
      py      :     0.877630
      dz2     :     0.050909  d :     0.193639
      dxz     :     0.041864
      dyz     :     0.024561
      dx2y2   :     0.040115
      dxy     :     0.036190
  3 O s       :     3.934307  s :     3.934307
      pz      :     1.498050  p :     4.501493
      px      :     1.556713
      py      :     1.446729
      dz2     :     0.002902  d :     0.016202
      dxz     :     0.004477
      dyz     :     0.003908
      dx2y2   :     0.002118
      dxy     :     0.002797
  4 C s       :     3.227666  s :     3.227666
      pz      :     0.996853  p :     3.045360
      px      :     1.074103
      py      :     0.974405
      dz2     :     0.015916  d :     0.077713
      dxz     :     0.013766
      dyz     :     0.015622
      dx2y2   :     0.017227
      dxy     :     0.015181
  5 H s       :     0.816224  s :     0.816224
      pz      :     0.004609  p :     0.020375
      px      :     0.010322
      py      :     0.005443
  6 H s       :     0.836355  s :     0.836355
      pz      :     0.009103  p :     0.020986
      px      :     0.006682
      py      :     0.005201
  7 C s       :     3.195920  s :     3.195920
      pz      :     1.074125  p :     3.034295
      px      :     1.054844
      py      :     0.905326
      dz2     :     0.015548  d :     0.069040
      dxz     :     0.010183
      dyz     :     0.012963
      dx2y2   :     0.016172
      dxy     :     0.014174
  8 H s       :     0.844324  s :     0.844324
      pz      :     0.009007  p :     0.019766
      px      :     0.005211
      py      :     0.005548
  9 H s       :     0.823226  s :     0.823226
      pz      :     0.005540  p :     0.019657
      px      :     0.008365
      py      :     0.005751
 10 C s       :     3.085705  s :     3.085705
      pz      :     0.866311  p :     2.596509
      px      :     0.895481
      py      :     0.834717
      dz2     :     0.018766  d :     0.230704
      dxz     :     0.018122
      dyz     :     0.057145
      dx2y2   :     0.062771
      dxy     :     0.073900
 11 O s       :     3.876253  s :     3.876253
      pz      :     1.553725  p :     4.541806
      px      :     1.465889
      py      :     1.522193
      dz2     :     0.001837  d :     0.013740
      dxz     :     0.002780
      dyz     :     0.002073
      dx2y2   :     0.002294
      dxy     :     0.004756
 12 O s       :     3.911434  s :     3.911434
      pz      :     1.573114  p :     4.487577
      px      :     1.702620
      py      :     1.211843
      dz2     :     0.002099  d :     0.016172
      dxz     :     0.000055
      dyz     :     0.004095
      dx2y2   :     0.006429
      dxy     :     0.003494
 13 H s       :     0.720286  s :     0.720286
      pz      :     0.020653  p :     0.045203
      px      :     0.011440
      py      :     0.013109
 14 C s       :     3.068749  s :     3.068749
      pz      :     0.860333  p :     2.647301
      px      :     0.925614
      py      :     0.861354
      dz2     :     0.047131  d :     0.191958
      dxz     :     0.071542
      dyz     :     0.035993
      dx2y2   :     0.015169
      dxy     :     0.022124
 15 N s       :     3.401280  s :     3.401280
      pz      :     1.138758  p :     3.635631
      px      :     1.096261
      py      :     1.400612
      dz2     :     0.007968  d :     0.033932
      dxz     :     0.007258
      dyz     :     0.005697
      dx2y2   :     0.007798
      dxy     :     0.005209
 16 H s       :     0.679636  s :     0.679636
      pz      :     0.017919  p :     0.059458
      px      :     0.013551
      py      :     0.027989
 17 O s       :     3.901577  s :     3.901577
      pz      :     1.247719  p :     4.401702
      px      :     1.739507
      py      :     1.414476
      dz2     :     0.007286  d :     0.018004
      dxz     :     0.003455
      dyz     :     0.005792
      dx2y2   :     0.000857
      dxy     :     0.000614
 18 C s       :     3.227520  s :     3.227520
      pz      :     1.118616  p :     3.277663
      px      :     1.035140
      py      :     1.123907
      dz2     :     0.015061  d :     0.062300
      dxz     :     0.005818
      dyz     :     0.015305
      dx2y2   :     0.008041
      dxy     :     0.018076
 19 H s       :     0.804429  s :     0.804429
      pz      :     0.004386  p :     0.018767
      px      :     0.006944
      py      :     0.007437
 20 H s       :     0.808727  s :     0.808727
      pz      :     0.006692  p :     0.018680
      px      :     0.005173
      py      :     0.006815
 21 H s       :     0.833003  s :     0.833003
      pz      :     0.008936  p :     0.018927
      px      :     0.004662
      py      :     0.005328
 22 C s       :     3.200476  s :     3.200476
      pz      :     0.945023  p :     3.178286
      px      :     1.098083
      py      :     1.135180
      dz2     :     0.024792  d :     0.091795
      dxz     :     0.018525
      dyz     :     0.019514
      dx2y2   :     0.020036
      dxy     :     0.008927
 23 H s       :     0.827524  s :     0.827524
      pz      :     0.003321  p :     0.016995
      px      :     0.004354
      py      :     0.009319
 24 H s       :     0.832928  s :     0.832928
      pz      :     0.003300  p :     0.017353
      px      :     0.008991
      py      :     0.005061
 25 H s       :     0.825485  s :     0.825485
      pz      :     0.005777  p :     0.016987
      px      :     0.005715
      py      :     0.005494

SPIN
  0 N s       :    -0.003212  s :    -0.003212
      pz      :     0.000700  p :     0.008766
      px      :    -0.008741
      py      :     0.016807
      dz2     :     0.000024  d :     0.005661
      dxz     :     0.000603
      dyz     :     0.000354
      dx2y2   :     0.000845
      dxy     :     0.003835
  1 C s       :     0.033652  s :     0.033652
      pz      :     0.102622  p :     0.628758
      px      :     0.051034
      py      :     0.475102
      dz2     :     0.000263  d :    -0.000291
      dxz     :     0.000020
      dyz     :    -0.000156
      dx2y2   :    -0.000499
      dxy     :     0.000081
  2 C s       :    -0.012403  s :    -0.012403
      pz      :    -0.011041  p :    -0.019701
      px      :    -0.003035
      py      :    -0.005625
      dz2     :     0.003462  d :     0.009554
      dxz     :    -0.000113
      dyz     :     0.005140
      dx2y2   :    -0.000121
      dxy     :     0.001185
  3 O s       :     0.000374  s :     0.000374
      pz      :     0.011747  p :     0.067752
      px      :     0.008100
[...]

 A(FC)           0.4486               0.4486               0.4486
 A(SD)          -0.8082               0.1295               0.6787
 A(ORB+DIA)      0.0028              -0.0026               0.0001    A(PC) =   0.0001
 A(ORB)          0.0030              -0.0025               0.0000    A(PC) =   0.0002
 A(DIA)         -0.0002              -0.0001               0.0000    A(PC) =  -0.0001
             ----------           ----------           ----------
 A(Tot)         -0.3568               0.5756               1.1273    A(iso)=    0.4487
 Orientation: 
  X          -0.6246933            0.7442305           -0.2363878
  Y          -0.4265007           -0.0716089            0.9016481
  Z           0.6541066            0.6640731            0.3621484

Notes:  (1) The A matrix conforms to the "SAI" spin Hamiltonian convention.
        (2) Tensor is right-handed.

 -----------------------------------------------------------
 Nucleus  15N : A:ISTP=   17 I=  2.5 P=-72.3588 MHz/au**3
                Q:ISTP=   17 I=  2.5 Q= -0.0256 barn     
 -----------------------------------------------------------
 Solving for nuclear perturbation:
Forming RHS of the CP-SCF equations         ... 
Calc. nucleus orbit integrals (SHARK)       ... done

------------------------------------------------------------------------------
                           ORCA CP-SCF CALCULATION
------------------------------------------------------------------------------

Input orbitals are from        ... epr_info.gbw
Input Perturbation             ... epr_info.pin.tmp
Wavefunction output            ... epr_info.pout.tmp
Perturbation mode              ... Imaginary perturbation
Solver                         ... POPLE
Max. number of iterations      ... 64
Convergence tolerance          ... 1.000e-03
Integral handling              ... Direct
DFT GridXC                     ... 1
COSX GridX                     ... 1
COSX IntAccX                   ... 3.067
COSX Algorithm                 ... Auto
Number of perturbations        ... 3
Number of operators            ... 2
Orbital ranges used for CP-SCF:
 Operator 0:  Orbitals   0... 53  to  54...321
 Operator 1:  Orbitals   0... 52  to  53...321
Variables per perturbation     ... 28729
DFT calculation                         ... on
XC functional terms                     ... off
Hybrid DFT                              ... on
   Exchange mixing (SCF)                ...  0.200
   Exchange mixing (CP-SCF)             ...  0.200
   GGA exch. scaling(SCF)               ...  0.720
   GGA exch. scaling (CP-SCF)           ...  0.720
   GGA corr. scaling (SCF)              ...  0.810
   GGA corr. scaling (CP-SCF)           ...  0.810

CP-SCF GRID
-----------

General Integration Accuracy     IntAcc      ... 3.467
Radial Grid Type                 RadialGrid  ... OptM3 with GC (2021)
Angular Grid (max. ang.)         AngularGrid ... 1 (Lebedev-50)
Angular grid pruning method      GridPruning ... 4 (adaptive)
Weight generation scheme         WeightScheme... Becke
Basis function cutoff            BFCut       ... 1.0000e-10
Integration weight cutoff        WCut        ... 1.0000e-14
Angular grids for H and He will be reduced by one unit
Partially contracted basis set               ... off
Rotationally invariant grid construction     ... off

Total number of grid points                  ...    17803
Total number of batches                      ...      292
Average number of points per batch           ...       60
Average number of grid points per atom       ...      685

CP-SCF GRIDX
------------

General Integration Accuracy     IntAcc      ... 3.067
Radial Grid Type                 RadialGrid  ... OptM3 with GC (2021)
Angular Grid (max. ang.)         AngularGrid ... 1 (Lebedev-50)
Angular grid pruning method      GridPruning ... 4 (adaptive)
Weight generation scheme         WeightScheme... Becke
Basis function cutoff            BFCut       ... 1.0000e-10
Integration weight cutoff        WCut        ... 1.0000e-14
Angular grids for H and He will be reduced by one unit
Partially contracted basis set               ... on
Rotationally invariant grid construction     ... off

Total number of grid points                  ...     8243
Total number of batches                      ...      146
Average number of points per batch           ...       56
Average number of grid points per atom       ...      317

Memory available               ... 931.6 MB
Memory needed per perturbation ...   6.5 MB
Perturbations treated per batch... 3
Number of batches              ... 1
     CP-SCF ITERATION   0:   1.2007e+00 (   0.4 sec   0/  3 done)
     CP-SCF ITERATION   1:   7.7013e-02 (   0.4 sec   0/  3 done)
     CP-SCF ITERATION   2:   7.2513e-03 (   0.4 sec   0/  3 done)
     CP-SCF ITERATION   3:   6.6070e-04 (   0.4 sec   3/  3 done)
                    *** THE CP-SCF HAS CONVERGED ***

Forming final perturbed densities           ... done
Transforming perturbed density to AO basis  ... done

 Raw HFC matrix (all values in MHz): 
 -----------------------------------
                -2.3126               8.2043               3.3237
                 8.2140             -14.7507              -7.8203
                 3.2981              -7.8330              -2.0881

 A(FC)          -6.3727              -6.3727              -6.3727
 A(SD)           7.5093               8.4978             -16.0070
 A(ORB+DIA)     -0.0259              -0.0087               0.0013    A(PC) =  -0.0111
 A(ORB)         -0.0257              -0.0086               0.0012    A(PC) =  -0.0110
 A(DIA)         -0.0002              -0.0001               0.0000    A(PC) =  -0.0001
             ----------           ----------           ----------
 A(Tot)          1.1107               2.1163             -22.3785    A(iso)=   -6.3838
 Orientation: 
  X          -0.6681191            0.6253576            0.4031685
  Y           0.0212195            0.5576475           -0.8298066
  Z          -0.7437517           -0.5458546           -0.3858447

Notes:  (1) The A matrix conforms to the "SAI" spin Hamiltonian convention.
        (2) Tensor is right-handed.

 -----------------------------------------------------------
 Nucleus  16H : A:ISTP=   17 I=  2.5 P=-72.3588 MHz/au**3
                Q:ISTP=   17 I=  2.5 Q= -0.0256 barn     
 -----------------------------------------------------------
 Solving for nuclear perturbation:
Forming RHS of the CP-SCF equations         ... 
Calc. nucleus orbit integrals (SHARK)       ... done

------------------------------------------------------------------------------
                           ORCA CP-SCF CALCULATION
------------------------------------------------------------------------------

Input orbitals are from        ... epr_info.gbw
Input Perturbation             ... epr_info.pin.tmp
Wavefunction output            ... epr_info.pout.tmp
Perturbation mode              ... Imaginary perturbation
Solver                         ... POPLE
Max. number of iterations      ... 64
Convergence tolerance          ... 1.000e-03
Integral handling              ... Direct
DFT GridXC                     ... 1
COSX GridX                     ... 1
COSX IntAccX                   ... 3.067
COSX Algorithm                 ... Auto
Number of perturbations        ... 3
Number of operators            ... 2
Orbital ranges used for CP-SCF:
 Operator 0:  Orbitals   0... 53  to  54...321
 Operator 1:  Orbitals   0... 52  to  53...321
Variables per perturbation     ... 28729
DFT calculation                         ... on
XC functional terms                     ... off
Hybrid DFT                              ... on
   Exchange mixing (SCF)                ...  0.200
   Exchange mixing (CP-SCF)             ...  0.200
   GGA exch. scaling(SCF)               ...  0.720
   GGA exch. scaling (CP-SCF)           ...  0.720
   GGA corr. scaling (SCF)              ...  0.810
   GGA corr. scaling (CP-SCF)           ...  0.810

CP-SCF GRID
-----------

General Integration Accuracy     IntAcc      ... 3.467
Radial Grid Type                 RadialGrid  ... OptM3 with GC (2021)
Angular Grid (max. ang.)         AngularGrid ... 1 (Lebedev-50)
Angular grid pruning method      GridPruning ... 4 (adaptive)
Weight generation scheme         WeightScheme... Becke
Basis function cutoff            BFCut       ... 1.0000e-10
Integration weight cutoff        WCut        ... 1.0000e-14
Angular grids for H and He will be reduced by one unit
Partially contracted basis set               ... off
Rotationally invariant grid construction     ... off

Total number of grid points                  ...    17803
Total number of batches                      ...      292
Average number of points per batch           ...       60
Average number of grid points per atom       ...      685

CP-SCF GRIDX
------------

General Integration Accuracy     IntAcc      ... 3.067
Radial Grid Type                 RadialGrid  ... OptM3 with GC (2021)
Angular Grid (max. ang.)         AngularGrid ... 1 (Lebedev-50)
Angular grid pruning method      GridPruning ... 4 (adaptive)
Weight generation scheme         WeightScheme... Becke
Basis function cutoff            BFCut       ... 1.0000e-10
Integration weight cutoff        WCut        ... 1.0000e-14
Angular grids for H and He will be reduced by one unit
Partially contracted basis set               ... on
Rotationally invariant grid construction     ... off

Total number of grid points                  ...     8243
Total number of batches                      ...      146
Average number of points per batch           ...       56
Average number of grid points per atom       ...      317

Memory available               ... 931.2 MB
Memory needed per perturbation ...   6.5 MB
Perturbations treated per batch... 3
Number of batches              ... 1
     CP-SCF ITERATION   0:   6.2906e-02 (   0.4 sec   0/  3 done)
     CP-SCF ITERATION   1:   3.4698e-03 (   0.4 sec   0/  3 done)
     CP-SCF ITERATION   2:   3.8615e-04 (   0.4 sec   3/  3 done)
                    *** THE CP-SCF HAS CONVERGED ***

Forming final perturbed densities           ... done
Transforming perturbed density to AO basis  ... done

 Raw HFC matrix (all values in MHz): 
 -----------------------------------
                 0.2444              -0.5134               0.1962
                -0.5136               0.5853               0.3831
                 0.1970               0.3838               0.5195

 A(FC)           0.4505               0.4505               0.4505
 A(SD)          -0.7589               0.1590               0.5999
 A(ORB+DIA)     -0.0020              -0.0002               0.0001    A(PC) =  -0.0007
 A(ORB)         -0.0019              -0.0001               0.0000    A(PC) =  -0.0007
 A(DIA)         -0.0002              -0.0001               0.0000    A(PC) =  -0.0001
             ----------           ----------           ----------
 A(Tot)         -0.3104               0.6092               1.0504    A(iso)=    0.4497
 Orientation: 
  X          -0.6905799            0.5971093           -0.4081175
  Y          -0.5805495           -0.1211043            0.8051683
  Z           0.4313487            0.7929655            0.4302837

Notes:  (1) The A matrix conforms to the "SAI" spin Hamiltonian convention.
        (2) Tensor is right-handed.

 -----------------------------------------------------------
 Nucleus  17O : A:ISTP=   17 I=  2.5 P=-72.3588 MHz/au**3
                Q:ISTP=   17 I=  2.5 Q= -0.0256 barn     
 -----------------------------------------------------------
 Solving for nuclear perturbation:
Forming RHS of the CP-SCF equations         ... 
Calc. nucleus orbit integrals (SHARK)       ... done

------------------------------------------------------------------------------
                           ORCA CP-SCF CALCULATION
------------------------------------------------------------------------------

Input orbitals are from        ... epr_info.gbw
Input Perturbation             ... epr_info.pin.tmp
Wavefunction output            ... epr_info.pout.tmp
Perturbation mode              ... Imaginary perturbation
Solver                         ... POPLE
Max. number of iterations      ... 64
Convergence tolerance          ... 1.000e-03
Integral handling              ... Direct
DFT GridXC                     ... 1
COSX GridX                     ... 1
COSX IntAccX                   ... 3.067
COSX Algorithm                 ... Auto
Number of perturbations        ... 3
Number of operators            ... 2
Orbital ranges used for CP-SCF:
 Operator 0:  Orbitals   0... 53  to  54...321
 Operator 1:  Orbitals   0... 52  to  53...321
Variables per perturbation     ... 28729
DFT calculation                         ... on
XC functional terms                     ... off
Hybrid DFT                              ... on
   Exchange mixing (SCF)                ...  0.200
   Exchange mixing (CP-SCF)             ...  0.200
   GGA exch. scaling(SCF)               ...  0.720
   GGA exch. scaling (CP-SCF)           ...  0.720
   GGA corr. scaling (SCF)              ...  0.810
   GGA corr. scaling (CP-SCF)           ...  0.810

CP-SCF GRID
-----------

General Integration Accuracy     IntAcc      ... 3.467
Radial Grid Type                 RadialGrid  ... OptM3 with GC (2021)
Angular Grid (max. ang.)         AngularGrid ... 1 (Lebedev-50)
Angular grid pruning method      GridPruning ... 4 (adaptive)
Weight generation scheme         WeightScheme... Becke
Basis function cutoff            BFCut       ... 1.0000e-10
Integration weight cutoff        WCut        ... 1.0000e-14
Angular grids for H and He will be reduced by one unit
Partially contracted basis set               ... off
Rotationally invariant grid construction     ... off

Total number of grid points                  ...    17803
Total number of batches                      ...      292
Average number of points per batch           ...       60
Average number of grid points per atom       ...      685

CP-SCF GRIDX
------------

General Integration Accuracy     IntAcc      ... 3.067
Radial Grid Type                 RadialGrid  ... OptM3 with GC (2021)
Angular Grid (max. ang.)         AngularGrid ... 1 (Lebedev-50)
Angular grid pruning method      GridPruning ... 4 (adaptive)
Weight generation scheme         WeightScheme... Becke
Basis function cutoff            BFCut       ... 1.0000e-10
Integration weight cutoff        WCut        ... 1.0000e-14
Angular grids for H and He will be reduced by one unit
Partially contracted basis set               ... on
Rotationally invariant grid construction     ... off

Total number of grid points                  ...     8243
Total number of batches                      ...      146
Average number of points per batch           ...       56
Average number of grid points per atom       ...      317

Memory available               ... 930.9 MB
Memory needed per perturbation ...   6.5 MB
Perturbations treated per batch... 3
Number of batches              ... 1
     CP-SCF ITERATION   0:   4.2858e+00 (   0.4 sec   0/  3 done)
     CP-SCF ITERATION   1:   1.6473e-01 (   0.4 sec   0/  3 done)
     CP-SCF ITERATION   2:   1.7816e-02 (   0.4 sec   0/  3 done)
     CP-SCF ITERATION   3:   1.0243e-03 (   0.4 sec   1/  3 done)
     CP-SCF ITERATION   4:   6.9366e-05 (   0.3 sec   3/  3 done)
                    *** THE CP-SCF HAS CONVERGED ***

Forming final perturbed densities           ... done
Transforming perturbed density to AO basis  ... done

 Raw HFC matrix (all values in MHz): 
 -----------------------------------
                 2.9887              12.8601               4.2299
                12.8591             -30.4534             -13.5340
                 4.2429             -13.5306               2.8077

 A(FC)          -8.1427              -8.1427              -8.1427
 A(SD)          15.3336              16.0944             -31.4280
 A(ORB+DIA)     -0.0763              -0.1546               0.0019    A(PC) =  -0.0763
 A(ORB)         -0.0762              -0.1545               0.0019    A(PC) =  -0.0762
 A(DIA)         -0.0002              -0.0001               0.0000    A(PC) =  -0.0001
             ----------           ----------           ----------
 A(Tot)          7.1147               7.7971             -39.5688    A(iso)=   -8.2190
 Orientation: 
  X          -0.8157404           -0.4926518           -0.3030871
  Y          -0.0725370           -0.4327264            0.8986024
  Z          -0.5738519            0.7550113            0.3172569

Notes:  (1) The A matrix conforms to the "SAI" spin Hamiltonian convention.
        (2) Tensor is right-handed.


--------------------------------------------------------------------------------
----------------------------------------------------------------------------
                           ORCA EULER ANGLE PROGRAM
----------------------------------------------------------------------------

Only g-tensor available        -->  using g-tensor as reference tensor

Reference tensor               ...  g

g-tensor ordering              ...  |g_min> --> |gx>
                                    |g_mid> --> |gy>
                                    |g_max> --> |gz>

A- and EFG-tensor ordering     ...  the axes |Ax>, |Qx>, |Ay>, etc. are assigned
                                    such that the Euler rotation is minimal. You
                                    can find the respective eigenvalues as Ax,
                                    EFGx, Ay, etc. in the tables below.
                                    The relation of |Ax>, |Ay>,  etc. to Amin, Amid, etc.
                                    (as printed in the ORCA EPR/NMR CALCULATION Output)
                                    is obtained in the detailed printout.

Euler rotation around          ...  z - y - z
   First rotation              -->  by alpha around z
   Second rotation             -->  by beta around y'
   Third rotation              -->  by gamma around z''
   Positive / Negative angle   -->  clockwise / counterclockwise rotation

Plot EFG-tensors                    (-)
Plot HFC-tensors                    (-)
Detailed Printout                   (-)

-------------------------------------------------------------------------
          Euler rotation of hyperfine tensor to g-tensor
-------------------------------------------------------------------------

-------------------------------------------------------------------
 Atom  |   Alpha    Beta    Gamma   |   Ax       Ay       Az 
       |          [degrees]         |           [MHz]         
-------------------------------------------------------------------
  0N      -82.4     34.5     77.6       1.30    11.83    13.68
  3O       90.7     38.1    -89.6     -25.92     5.07     6.18
  5H       54.9     26.5    -71.2      -3.19    -4.62    -3.37
  6H      -74.2     24.7     54.6      -2.36    -2.67    -3.69
  8H     -146.9     32.9    105.3      -0.71    -0.50    -1.42
  9H       39.7     38.8    -60.5      -0.30     0.59     0.95
 11O      -22.0     21.9     28.0       1.01     0.64     0.43
 12O      -48.5     37.2     51.9      -0.05    -3.45    -0.02
 13H       83.3     33.4    -90.5       1.13    -0.36     0.58
 15N       82.3     30.0    -78.9     -22.38     2.12     1.11
 16H       87.0     22.6    -81.5       1.05    -0.31     0.61
 17O       79.7     43.5    -85.4     -39.57     7.80     7.11
-------------------------------------------------------------------


Maximum memory used throughout the entire EPRNMR-calculation: 121.2 MB

Timings for individual modules:

Sum of individual times         ...      292.215 sec (=   4.870 min)
GTO integral calculation        ...        3.430 sec (=   0.057 min)   1.2 %
Spin-Orbit-Coupling Matrices    ...        4.333 sec (=   0.072 min)   1.5 %
SCF iterations                  ...       21.916 sec (=   0.365 min)   7.5 %
EPR/NMR calculation             ...      262.535 sec (=   4.376 min)  89.8 %
                             ****ORCA TERMINATED NORMALLY****
TOTAL RUN TIME: 0 days 0 hours 4 minutes 54 seconds 861 msec
