
                                 *****************
                                 * O   R   C   A *
                                 *****************

                                            #,                                       
                                            ###                                      
                                            ####                                     
                                            #####                                    
                                            ######                                   
                                           ########,                                 
                                     ,,################,,,,,                         
                               ,,#################################,,                 
                          ,,##########################################,,             
                       ,#########################################, ''#####,          
                    ,#############################################,,   '####,        
                  ,##################################################,,,,####,       
                ,###########''''           ''''###############################       
              ,#####''   ,,,,##########,,,,          '''####'''          '####       
            ,##' ,,,,###########################,,,                        '##       
           ' ,,###''''                  '''############,,,                           
         ,,##''                                '''############,,,,        ,,,,,,###''
      ,#''                                            '''#######################'''  
     '                                                          ''''####''''         
             ,#######,   #######,   ,#######,      ##                                
            ,#'     '#,  ##    ##  ,#'     '#,    #''#        ######   ,####,        
            ##       ##  ##   ,#'  ##            #'  '#       #        #'  '#        
            ##       ##  #######   ##           ,######,      #####,   #    #        
            '#,     ,#'  ##    ##  '#,     ,#' ,#      #,         ##   #,  ,#        
             '#######'   ##     ##  '#######'  #'      '#     #####' # '####'        



                  #######################################################
                  #                        -***-                        #
                  #          Department of theory and spectroscopy      #
                  #    Directorship and core code : Frank Neese         #
                  #        Max Planck Institute fuer Kohlenforschung    #
                  #                Kaiser Wilhelm Platz 1               #
                  #                 D-45470 Muelheim/Ruhr               #
                  #                      Germany                        #
                  #                                                     #
                  #                  All rights reserved                #
                  #                        -***-                        #
                  #######################################################


                         Program Version 5.0.4 -  RELEASE  -


 With contributions from (in alphabetic order):
   Daniel Aravena         : Magnetic Suceptibility
   Michael Atanasov       : Ab Initio Ligand Field Theory (pilot matlab implementation)
   Alexander A. Auer      : GIAO ZORA, VPT2 properties, NMR spectrum
   Ute Becker             : Parallelization
   Giovanni Bistoni       : ED, misc. LED, open-shell LED, HFLD
   Martin Brehm           : Molecular dynamics
   Dmytro Bykov           : SCF Hessian
   Vijay G. Chilkuri      : MRCI spin determinant printing, contributions to CSF-ICE
   Dipayan Datta          : RHF DLPNO-CCSD density
   Achintya Kumar Dutta   : EOM-CC, STEOM-CC
   Dmitry Ganyushin       : Spin-Orbit,Spin-Spin,Magnetic field MRCI
   Miquel Garcia          : C-PCM and meta-GGA Hessian, CC/C-PCM, Gaussian charge scheme
   Yang Guo               : DLPNO-NEVPT2, F12-NEVPT2, CIM, IAO-localization
   Andreas Hansen         : Spin unrestricted coupled pair/coupled cluster methods
   Benjamin Helmich-Paris : MC-RPA, TRAH-SCF, COSX integrals
   Lee Huntington         : MR-EOM, pCC
   Robert Izsak           : Overlap fitted RIJCOSX, COSX-SCS-MP3, EOM
   Marcus Kettner         : VPT2
   Christian Kollmar      : KDIIS, OOCD, Brueckner-CCSD(T), CCSD density, CASPT2, CASPT2-K
   Simone Kossmann        : Meta GGA functionals, TD-DFT gradient, OOMP2, MP2 Hessian
   Martin Krupicka        : Initial AUTO-CI
   Lucas Lang             : DCDCAS
   Marvin Lechner         : AUTO-CI (C++ implementation), FIC-MRCC
   Dagmar Lenk            : GEPOL surface, SMD
   Dimitrios Liakos       : Extrapolation schemes; Compound Job, initial MDCI parallelization
   Dimitrios Manganas     : Further ROCIS development; embedding schemes
   Dimitrios Pantazis     : SARC Basis sets
   Anastasios Papadopoulos: AUTO-CI, single reference methods and gradients
   Taras Petrenko         : DFT Hessian,TD-DFT gradient, ASA, ECA, R-Raman, ABS, FL, XAS/XES, NRVS
   Peter Pinski           : DLPNO-MP2, DLPNO-MP2 Gradient
   Christoph Reimann      : Effective Core Potentials
   Marius Retegan         : Local ZFS, SOC
   Christoph Riplinger    : Optimizer, TS searches, QM/MM, DLPNO-CCSD(T), (RO)-DLPNO pert. Triples
   Tobias Risthaus        : Range-separated hybrids, TD-DFT gradient, RPA, STAB
   Michael Roemelt        : Original ROCIS implementation
   Masaaki Saitow         : Open-shell DLPNO-CCSD energy and density
   Barbara Sandhoefer     : DKH picture change effects
   Avijit Sen             : IP-ROCIS
   Kantharuban Sivalingam : CASSCF convergence, NEVPT2, FIC-MRCI
   Bernardo de Souza      : ESD, SOC TD-DFT
   Georgi Stoychev        : AutoAux, RI-MP2 NMR, DLPNO-MP2 response
   Willem Van den Heuvel  : Paramagnetic NMR
   Boris Wezisla          : Elementary symmetry handling
   Frank Wennmohs         : Technical directorship


 We gratefully acknowledge several colleagues who have allowed us to
 interface, adapt or use parts of their codes:
   Stefan Grimme, W. Hujo, H. Kruse, P. Pracht,  : VdW corrections, initial TS optimization,
                  C. Bannwarth, S. Ehlert          DFT functionals, gCP, sTDA/sTD-DF
   Ed Valeev, F. Pavosevic, A. Kumar             : LibInt (2-el integral package), F12 methods
   Garnet Chan, S. Sharma, J. Yang, R. Olivares  : DMRG
   Ulf Ekstrom                                   : XCFun DFT Library
   Mihaly Kallay                                 : mrcc  (arbitrary order and MRCC methods)
   Jiri Pittner, Ondrej Demel                    : Mk-CCSD
   Frank Weinhold                                : gennbo (NPA and NBO analysis)
   Christopher J. Cramer and Donald G. Truhlar   : smd solvation model
   Lars Goerigk                                  : TD-DFT with DH, B97 family of functionals
   V. Asgeirsson, H. Jonsson                     : NEB implementation
   FAccTs GmbH                                   : IRC, NEB, NEB-TS, DLPNO-Multilevel, CI-OPT
                                                   MM, QMMM, 2- and 3-layer-ONIOM, Crystal-QMMM,
                                                   LR-CPCM, SF, NACMEs, symmetry and pop. for TD-DFT,
                                                   nearIR, NL-DFT gradient (VV10), updates on ESD,
                                                   ML-optimized integration grids
   S Lehtola, MJT Oliveira, MAL Marques          : LibXC Library
   Liviu Ungur et al                             : ANISO software


 Your calculation uses the libint2 library for the computation of 2-el integrals
 For citations please refer to: http://libint.valeyev.net

 Your ORCA version has been built with support for libXC version: 5.1.0
 For citations please refer to: https://tddft.org/programs/libxc/

 This ORCA versions uses:
   CBLAS   interface :  Fast vector & matrix operations
   LAPACKE interface :  Fast linear algebra routines
   SCALAPACK package :  Parallel linear algebra routines
   Shared memory     :  Shared parallel matrices
   BLAS/LAPACK       :  OpenBLAS 0.3.15  USE64BITINT DYNAMIC_ARCH NO_AFFINITY Zen SINGLE_THREADED
        Core in use  :  Zen
   Copyright (c) 2011-2014, The OpenBLAS Project




***************************************
The coordinates will be read from file: opt.xyz
***************************************


XCFun DFT library Copyright 2009-2010 Ulf Ekstrom and contributors.
See http://admol.org/xcfun for more information.
This is free software; see the source code for copying conditions.
There is ABSOLUTELY NO WARRANTY; not even for MERCHANTABILITY or FITNESS FOR A PARTICULAR PURPOSE.
For details see the documentation.
Scientific users of this library should cite U. Ekstrom, L. Visscher, R. Bast, A. J. Thorvaldsen and K. Ruud;
J.Chem.Theor.Comp. 2010, DOI: 10.1021/ct100117s
XCFun Version 0.99 

================================================================================

----- Orbital basis set information -----
Your calculation utilizes the basis: def2-TZVP
   F. Weigend and R. Ahlrichs, Phys. Chem. Chem. Phys. 7, 3297 (2005).

----- AuxJ basis set information -----
Your calculation utilizes the auxiliary basis: def2/J
   F. Weigend, Phys. Chem. Chem. Phys. 8, 1057 (2006).

================================================================================
                                        WARNINGS
                       Please study these warnings very carefully!
================================================================================


WARNING: your system is open-shell and RHF/RKS was chosen
  ===> : WILL SWITCH to UHF/UKS


WARNING: Geometry Optimization
  ===> : Switching off AutoStart
         For restart on a previous wavefunction, please use MOREAD

WARNING: Minnesota functionals are quite sensitive to the integration grid.
         see SE Wheeler, KN Houk, JCTC 2010, 6, 395,
             N Mardirossian, M Head-Gordon, JCTC 2016, 12, 4303.
         DEFGRID3 seems to be a minimum grid for reliable results with these functionals!
  ===> : Please increase the integration grid!


INFO   : the flag for use of the SHARK integral package has been found!

================================================================================
                                       INPUT FILE
================================================================================
NAME = freq.inp
|  1> ! M062X def2-TZVP OPT FREQ
|  2> %pal nprocs 16 end
|  3> *XYZFile -1 2 opt.xyz
|  4> 
|  5>                          ****END OF INPUT****
================================================================================

                       *****************************
                       * Geometry Optimization Run *
                       *****************************

Geometry optimization settings:
Update method            Update   .... BFGS
Choice of coordinates    CoordSys .... Z-matrix Internals
Initial Hessian          InHess   .... Almoef's Model

Convergence Tolerances:
Energy Change            TolE     ....  5.0000e-06 Eh
Max. Gradient            TolMAXG  ....  3.0000e-04 Eh/bohr
RMS Gradient             TolRMSG  ....  1.0000e-04 Eh/bohr
Max. Displacement        TolMAXD  ....  4.0000e-03 bohr
RMS Displacement         TolRMSD  ....  2.0000e-03 bohr
Strict Convergence                ....  False
------------------------------------------------------------------------------
                        ORCA OPTIMIZATION COORDINATE SETUP
------------------------------------------------------------------------------

The optimization will be done in new redundant internal coordinates
Making redundant internal coordinates   ...  (new redundants) done
Evaluating the initial hessian          ...  (Almloef) done
Evaluating the coordinates              ...  done
Calculating the B-matrix                .... done
Calculating the G-matrix                .... done
Diagonalizing the G-matrix              .... done
Small eigenvalue found = 6.664e-03
Small eigenvalue found = 1.009e-02
Small eigenvalue found = 2.417e-02
Small eigenvalue found = 2.751e-02
The first mode is                       ....   44
The number of degrees of freedom        ....   72

    -----------------------------------------------------------------
                    Redundant Internal Coordinates


    -----------------------------------------------------------------
         Definition                    Initial Value    Approx d2E/dq
    -----------------------------------------------------------------
      1. B(C   1,N   0)                  1.3893         0.560997   
      2. B(C   2,C   1)                  1.4832         0.443685   
      3. B(O   3,C   2)                  1.2613         0.897719   
      4. B(C   4,C   1)                  1.5029         0.412715   
      5. B(H   5,C   4)                  1.0945         0.354137   
      6. B(H   6,C   4)                  1.0913         0.358352   
      7. B(C   7,C   4)                  1.5597         0.334966   
      8. B(H   8,C   7)                  1.0972         0.350755   
      9. B(H   9,C   7)                  1.0955         0.352927   
     10. B(C  10,C   7)                  1.5668         0.326365   
     11. B(O  11,C  10)                  1.2803         0.837314   
     12. B(O  12,C  10)                  1.2477         0.943853   
     13. B(H  13,N   0)                  1.0226         0.413124   
     14. B(C  14,N   0)                  1.3731         0.595499   
     15. B(N  15,C   2)                  1.3551         0.636029   
     16. B(H  16,N  15)                  1.0592         0.361186   
     17. B(O  17,C  14)                  1.2349         0.989270   
     18. B(C  18,C  14)                  1.5318         0.371071   
     19. B(H  19,C  18)                  1.0948         0.353830   
     20. B(H  20,C  18)                  1.0941         0.354697   
     21. B(H  21,C  18)                  1.0937         0.355200   
     22. B(C  22,N  15)                  1.4528         0.444265   
     23. B(H  23,C  22)                  1.0953         0.353104   
     24. B(H  24,C  22)                  1.0924         0.356939   
     25. B(H  25,C  22)                  1.0985         0.349062   
     26. A(C   1,N   0,H  13)          108.5858         0.349884   
     27. A(C   1,N   0,C  14)          132.7688         0.417800   
     28. A(H  13,N   0,C  14)          118.5775         0.353432   
     29. A(N   0,C   1,C   2)          109.6195         0.399165   
     30. A(C   2,C   1,C   4)          126.5647         0.380748   
     31. A(N   0,C   1,C   4)          123.8143         0.394127   
     32. A(C   1,C   2,N  15)          116.7048         0.408104   
     33. A(C   1,C   2,O   3)          119.5815         0.433990   
     34. A(O   3,C   2,N  15)          123.7099         0.460208   
     35. A(C   1,C   4,C   7)          115.4623         0.362765   
     36. A(H   5,C   4,H   6)          108.8695         0.289857   
     37. A(H   6,C   4,C   7)          108.6949         0.318327   
     38. A(C   1,C   4,H   5)          108.5892         0.328778   
     39. A(C   1,C   4,H   6)          107.6556         0.329421   
     40. A(H   5,C   4,C   7)          107.4276         0.317714   
     41. A(H   8,C   7,C  10)          105.7702         0.315878   
     42. A(C   4,C   7,C  10)          117.0421         0.348600   
     43. A(H   8,C   7,H   9)          105.8306         0.288730   
     44. A(C   4,C   7,H   9)          110.9303         0.317536   
     45. A(C   4,C   7,H   8)          108.5418         0.317217   
     46. A(H   9,C   7,C  10)          108.0491         0.316195   
     47. A(O  11,C  10,O  12)          127.5299         0.488550   
     48. A(C   7,C  10,O  12)          115.1044         0.414496   
     49. A(C   7,C  10,O  11)          117.3309         0.405791   
     50. A(O  17,C  14,C  18)          120.5609         0.427676   
     51. A(N   0,C  14,C  18)          114.0002         0.390920   
     52. A(N   0,C  14,O  17)          125.4379         0.462845   
     53. A(C   2,N  15,H  16)          118.5021         0.349363   
     54. A(H  16,N  15,C  22)          117.3181         0.329054   
     55. A(C   2,N  15,C  22)          119.4549         0.405572   
     56. A(H  19,C  18,H  20)          107.5385         0.289352   
     57. A(C  14,C  18,H  20)          108.5537         0.323158   
     58. A(C  14,C  18,H  19)          108.4032         0.323029   
     59. A(H  20,C  18,H  21)          109.3341         0.289527   
     60. A(H  19,C  18,H  21)          109.0106         0.289416   
     61. A(C  14,C  18,H  21)          113.8149         0.323234   
     62. A(H  24,C  22,H  25)          108.8811         0.289023   
     63. A(H  23,C  22,H  25)          107.4553         0.288534   
     64. A(N  15,C  22,H  25)          111.9473         0.330015   
     65. A(H  23,C  22,H  24)          109.4038         0.289545   
     66. A(N  15,C  22,H  24)          108.0984         0.331235   
     67. A(N  15,C  22,H  23)          111.0170         0.330643   
     68. D(C   4,C   1,N   0,H  13)    179.9610         0.025139   
     69. D(C   2,C   1,N   0,C  14)   -177.3212         0.025139   
     70. D(C   4,C   1,N   0,C  14)      3.0948         0.025139   
     71. D(C   2,C   1,N   0,H  13)     -0.4550         0.025139   
     72. D(N  15,C   2,C   1,N   0)   -175.5561         0.013427   
     73. D(O   3,C   2,C   1,C   4)   -175.3030         0.013427   
     74. D(N  15,C   2,C   1,C   4)      4.0136         0.013427   
     75. D(O   3,C   2,C   1,N   0)      5.1273         0.013427   
     76. D(H   6,C   4,C   1,C   2)    153.0907         0.012610   
     77. D(C   7,C   4,C   1,C   2)    -85.3004         0.012610   
     78. D(H   5,C   4,C   1,C   2)     35.3719         0.012610   
     79. D(C   7,C   4,C   1,N   0)     94.2117         0.012610   
     80. D(H   6,C   4,C   1,N   0)    -27.3972         0.012610   
     81. D(H   5,C   4,C   1,N   0)   -145.1159         0.012610   
     82. D(H   8,C   7,C   4,C   1)   -151.7100         0.009110   
     83. D(C  10,C   7,C   4,H   5)    -32.5527         0.009110   
     84. D(C  10,C   7,C   4,C   1)     88.7484         0.009110   
     85. D(H   9,C   7,C   4,H   6)     85.2089         0.009110   
     86. D(H   9,C   7,C   4,H   5)   -157.1406         0.009110   
     87. D(H   9,C   7,C   4,C   1)    -35.8394         0.009110   
     88. D(H   8,C   7,C   4,H   6)    -30.6616         0.009110   
     89. D(C  10,C   7,C   4,H   6)   -150.2032         0.009110   
     90. D(H   8,C   7,C   4,H   5)     86.9888         0.009110   
     91. D(O  12,C  10,C   7,H   9)    -54.5229         0.008167   
     92. D(O  12,C  10,C   7,H   8)     58.4418         0.008167   
     93. D(O  12,C  10,C   7,C   4)    179.4493         0.008167   
     94. D(O  11,C  10,C   7,H   9)    127.4570         0.008167   
     95. D(O  11,C  10,C   7,H   8)   -119.5784         0.008167   
     96. D(O  11,C  10,C   7,C   4)      1.4291         0.008167   
     97. D(O  17,C  14,N   0,H  13)   -176.7918         0.028544   
     98. D(O  17,C  14,N   0,C   1)     -0.1746         0.028544   
     99. D(C  18,C  14,N   0,H  13)      3.5843         0.028544   
    100. D(C  18,C  14,N   0,C   1)   -179.7985         0.028544   
    101. D(C  22,N  15,C   2,O   3)     -6.3322         0.032892   
    102. D(C  22,N  15,C   2,C   1)    174.3822         0.032892   
    103. D(H  16,N  15,C   2,O   3)   -161.3443         0.032892   
    104. D(H  16,N  15,C   2,C   1)     19.3701         0.032892   
    105. D(H  21,C  18,C  14,N   0)     -3.4893         0.010307   
    106. D(H  20,C  18,C  14,O  17)     54.8701         0.010307   
    107. D(H  20,C  18,C  14,N   0)   -125.4857         0.010307   
    108. D(H  19,C  18,C  14,O  17)    -61.6603         0.010307   
    109. D(H  21,C  18,C  14,O  17)    176.8665         0.010307   
    110. D(H  19,C  18,C  14,N   0)    117.9839         0.010307   
    111. D(H  25,C  22,N  15,H  16)     95.6974         0.016833   
    112. D(H  25,C  22,N  15,C   2)    -59.6051         0.016833   
    113. D(H  24,C  22,N  15,H  16)    -24.2195         0.016833   
    114. D(H  24,C  22,N  15,C   2)   -179.5219         0.016833   
    115. D(H  23,C  22,N  15,H  16)   -144.2189         0.016833   
    116. D(H  23,C  22,N  15,C   2)     60.4787         0.016833   
    -----------------------------------------------------------------

Number of atoms                         .... 26
Number of degrees of freedom            .... 116

         *************************************************************
         *                GEOMETRY OPTIMIZATION CYCLE   1            *
         *************************************************************
---------------------------------
CARTESIAN COORDINATES (ANGSTROEM)
---------------------------------
  N     -3.789395   -0.103541    0.090809
  C     -2.442507    0.235908    0.120459
  C     -1.860158   -0.150739    1.428586
  O     -2.564210   -0.786096    2.260222
  C     -1.722794    0.902715   -1.017971
  H     -0.696742    0.523149   -1.052244
  H     -2.233395    0.623602   -1.941211
  C     -1.643025    2.458491   -0.941484
  H     -1.586107    2.855550   -1.962689
  H     -2.558577    2.876492   -0.508922
  C     -0.420817    3.072371   -0.177190
  O      0.440083    2.257130    0.305937
  O     -0.387173    4.319261   -0.147320
  H     -4.034499   -0.542754    0.981170
  C     -4.753981   -0.007340   -0.881635
  N     -0.569770    0.200045    1.648308
  H     -0.147314    0.969700    1.055834
  O     -4.582813    0.445702   -2.017616
  C     -6.131549   -0.515630   -0.445226
  H     -6.837962    0.319594   -0.489124
  H     -6.467754   -1.269879   -1.162974
  H     -6.146240   -0.942118    0.561818
  C      0.023268   -0.038754    2.952908
  H      0.013549   -1.105942    3.199456
  H      1.055321    0.318366    2.927042
  H     -0.515544    0.488869    3.751621

----------------------------
CARTESIAN COORDINATES (A.U.)
----------------------------
  NO LB      ZA    FRAG     MASS         X           Y           Z
   0 N     7.0000    0    14.007   -7.160918   -0.195664    0.171604
   1 C     6.0000    0    12.011   -4.615670    0.445802    0.227634
   2 C     6.0000    0    12.011   -3.515190   -0.284855    2.699637
   3 O     8.0000    0    15.999   -4.845654   -1.485506    4.271201
   4 C     6.0000    0    12.011   -3.255609    1.705885   -1.923686
   5 H     1.0000    0     1.008   -1.316651    0.988609   -1.988453
   6 H     1.0000    0     1.008   -4.220505    1.178438   -3.668356
   7 C     6.0000    0    12.011   -3.104867    4.645874   -1.779147
   8 H     1.0000    0     1.008   -2.997308    5.396207   -3.708944
   9 H     1.0000    0     1.008   -4.835009    5.435783   -0.961723
  10 C     6.0000    0    12.011   -0.795229    5.805940   -0.334840
  11 O     8.0000    0    15.999    0.831636    4.265358    0.578138
  12 O     8.0000    0    15.999   -0.731650    8.162220   -0.278395
  13 H     1.0000    0     1.008   -7.624099   -1.025657    1.854142
  14 C     6.0000    0    12.011   -8.983723   -0.013871   -1.666049
  15 N     7.0000    0    14.007   -1.076708    0.378030    3.114851
  16 H     1.0000    0     1.008   -0.278382    1.832467    1.995237
  17 O     8.0000    0    15.999   -8.660261    0.842255   -3.812741
  18 C     6.0000    0    12.011  -11.586948   -0.974400   -0.841355
  19 H     1.0000    0     1.008  -12.921876    0.603946   -0.924310
  20 H     1.0000    0     1.008  -12.222284   -2.399723   -2.197702
  21 H     1.0000    0     1.008  -11.614710   -1.780344    1.061681
  22 C     6.0000    0    12.011    0.043970   -0.073235    5.580188
  23 H     1.0000    0     1.008    0.025603   -2.089928    6.046096
  24 H     1.0000    0     1.008    1.994268    0.601624    5.531308
  25 H     1.0000    0     1.008   -0.974236    0.923829    7.089536

--------------------------------
INTERNAL COORDINATES (ANGSTROEM)
--------------------------------
 N      0   0   0     0.000000000000     0.00000000     0.00000000
 C      1   0   0     1.389319947388     0.00000000     0.00000000
 C      2   1   0     1.483180632193   109.61950938     0.00000000
 O      3   2   1     1.261342522419   119.58153008     5.12728133
 C      2   1   3     1.502877382751   123.81431495   180.41597810
 H      5   2   1     1.094544986139   108.58922382   214.88408538
 H      5   2   1     1.091324423744   107.65562688   332.60281446
 C      5   2   1     1.559695447556   115.46227004    94.21172361
 H      8   5   2     1.097157283626   108.54184086   208.29001890
 H      8   5   2     1.095477157894   110.93026199   324.16056090
 C      8   5   2     1.566776043351   117.04208704    88.74843289
 O     11   8   5     1.280303890323   117.33091978     1.42913752
 O     11   8   5     1.247700962415   115.10443873   179.44928992
 H      1   2   3     1.022607783240   108.58576744   359.54497869
 C      1   2   3     1.373073191127   132.76883591   182.67884534
 N      3   2   1     1.355149514325   116.70480883   184.44392670
 H     16   3   2     1.059180500426   118.50212033    19.37010857
 O     15   1   2     1.234907921286   125.43789557   359.82544938
 C     15   1   2     1.531830207463   114.00018537   180.20146590
 H     19  15   1     1.094781795129   108.40322226   117.98390909
 H     19  15   1     1.094114950792   108.55365917   234.51434720
 H     19  15   1     1.093729273639   113.81485637   356.51073503
 C     16   3   2     1.452825012342   119.45486381   174.38216472
 H     23  16   3     1.095340355390   111.01704692    60.47867883
 H     23  16   3     1.092399864406   108.09838485   180.47807202
 H     23  16   3     1.098474681566   111.94726181   300.39493328

---------------------------
INTERNAL COORDINATES (A.U.)
---------------------------
 N      0   0   0     0.000000000000     0.00000000     0.00000000
 C      1   0   0     2.625434212957     0.00000000     0.00000000
 C      2   1   0     2.802805201982   109.61950938     0.00000000
 O      3   2   1     2.383591928440   119.58153008     5.12728133
 C      2   1   3     2.840026666263   123.81431495   180.41597810
 H      5   2   1     2.068390265059   108.58922382   214.88408538
 H      5   2   1     2.062304284135   107.65562688   332.60281446
 C      5   2   1     2.947397248205   115.46227004    94.21172361
 H      8   5   2     2.073326791891   108.54184086   208.29001890
 H      8   5   2     2.070151814386   110.93026199   324.16056090
 C      8   5   2     2.960777635121   117.04208704    88.74843289
 O     11   8   5     2.419423720905   117.33091978     1.42913752
 O     11   8   5     2.357813115994   115.10443873   179.44928992
 H      1   2   3     1.932448652740   108.58576744   359.54497869
 C      1   2   3     2.594732293060   132.76883591   182.67884534
 N      3   2   1     2.560861452591   116.70480883   184.44392670
 H     16   3   2     2.001561072195   118.50212033    19.37010857
 O     15   1   2     2.333637771841   125.43789557   359.82544938
 C     15   1   2     2.894739575773   114.00018537   180.20146590
 H     19  15   1     2.068837769197   108.40322226   117.98390909
 H     19  15   1     2.067577616026   108.55365917   234.51434720
 H     19  15   1     2.066848791830   113.81485637   356.51073503
 C     16   3   2     2.745441393838   119.45486381   174.38216472
 H     23  16   3     2.069893295119   111.01704692    60.47867883
 H     23  16   3     2.064336572461   108.09838485   180.47807202
 H     23  16   3     2.075816313207   111.94726181   300.39493328

---------------------
BASIS SET INFORMATION
---------------------
There are 4 groups of distinct atoms

 Group   1 Type N   : 11s6p2d1f contracted to 5s3p2d1f pattern {62111/411/11/1}
 Group   2 Type C   : 11s6p2d1f contracted to 5s3p2d1f pattern {62111/411/11/1}
 Group   3 Type O   : 11s6p2d1f contracted to 5s3p2d1f pattern {62111/411/11/1}
 Group   4 Type H   : 5s1p contracted to 3s1p pattern {311/1}

Atom   0N    basis set group =>   1
Atom   1C    basis set group =>   2
Atom   2C    basis set group =>   2
Atom   3O    basis set group =>   3
Atom   4C    basis set group =>   2
Atom   5H    basis set group =>   4
Atom   6H    basis set group =>   4
Atom   7C    basis set group =>   2
Atom   8H    basis set group =>   4
Atom   9H    basis set group =>   4
Atom  10C    basis set group =>   2
Atom  11O    basis set group =>   3
Atom  12O    basis set group =>   3
Atom  13H    basis set group =>   4
Atom  14C    basis set group =>   2
Atom  15N    basis set group =>   1
Atom  16H    basis set group =>   4
Atom  17O    basis set group =>   3
Atom  18C    basis set group =>   2
Atom  19H    basis set group =>   4
Atom  20H    basis set group =>   4
Atom  21H    basis set group =>   4
Atom  22C    basis set group =>   2
Atom  23H    basis set group =>   4
Atom  24H    basis set group =>   4
Atom  25H    basis set group =>   4
---------------------------------
AUXILIARY/J BASIS SET INFORMATION
---------------------------------
There are 4 groups of distinct atoms

 Group   1 Type N   : 12s5p4d2f1g contracted to 6s4p3d1f1g pattern {711111/2111/211/2/1}
 Group   2 Type C   : 12s5p4d2f1g contracted to 6s4p3d1f1g pattern {711111/2111/211/2/1}
 Group   3 Type O   : 12s5p4d2f1g contracted to 6s4p3d1f1g pattern {711111/2111/211/2/1}
 Group   4 Type H   : 5s2p1d contracted to 3s1p1d pattern {311/2/1}

Atom   0N    basis set group =>   1
Atom   1C    basis set group =>   2
Atom   2C    basis set group =>   2
Atom   3O    basis set group =>   3
Atom   4C    basis set group =>   2
Atom   5H    basis set group =>   4
Atom   6H    basis set group =>   4
Atom   7C    basis set group =>   2
Atom   8H    basis set group =>   4
Atom   9H    basis set group =>   4
Atom  10C    basis set group =>   2
Atom  11O    basis set group =>   3
Atom  12O    basis set group =>   3
Atom  13H    basis set group =>   4
Atom  14C    basis set group =>   2
Atom  15N    basis set group =>   1
Atom  16H    basis set group =>   4
Atom  17O    basis set group =>   3
Atom  18C    basis set group =>   2
Atom  19H    basis set group =>   4
Atom  20H    basis set group =>   4
Atom  21H    basis set group =>   4
Atom  22C    basis set group =>   2
Atom  23H    basis set group =>   4
Atom  24H    basis set group =>   4
Atom  25H    basis set group =>   4


           ************************************************************
           *        Program running with 16 parallel MPI-processes    *
           *              working on a common directory               *
           ************************************************************
------------------------------------------------------------------------------
                           ORCA GTO INTEGRAL CALCULATION
                           -- RI-GTO INTEGRALS CHOSEN --
------------------------------------------------------------------------------
------------------------------------------------------------------------------
                   ___                                                        
                  /   \      - P O W E R E D   B Y -                         
                 /     \                                                     
                 |  |  |   _    _      __       _____    __    __             
                 |  |  |  | |  | |    /  \     |  _  \  |  |  /  |          
                  \  \/   | |  | |   /    \    | | | |  |  | /  /          
                 / \  \   | |__| |  /  /\  \   | |_| |  |  |/  /          
                |  |  |   |  __  | /  /__\  \  |    /   |      \           
                |  |  |   | |  | | |   __   |  |    \   |  |\   \          
                \     /   | |  | | |  |  |  |  | |\  \  |  | \   \       
                 \___/    |_|  |_| |__|  |__|  |_| \__\ |__|  \__/        
                                                                              
                      - O R C A' S   B I G   F R I E N D -                    
                                      &                                       
                       - I N T E G R A L  F E E D E R -                       
                                                                              
 v1 FN, 2020, v2 2021                                                         
------------------------------------------------------------------------------


Reading SHARK input file freq.SHARKINP.tmp ... ok
----------------------
SHARK INTEGRAL PACKAGE
----------------------

Number of atoms                             ...     26
Number of basis functions                   ...    506
Number of shells                            ...    202
Maximum angular momentum                    ...      3
Integral batch strategy                     ... SHARK/LIBINT Hybrid
RI-J (if used) integral strategy            ... SPLIT-RIJ (Revised 2003 algorithm where possible)
Printlevel                                  ...      1
Contraction scheme used                     ... SEGMENTED contraction
Coulomb Range Separation                    ... NOT USED
Exchange Range Separation                   ... NOT USED
Finite Nucleus Model                        ... NOT USED
Auxiliary Coulomb fitting basis             ... AVAILABLE
   # of basis functions in Aux-J            ...    818
   # of shells in Aux-J                     ...    270
   Maximum angular momentum in Aux-J        ...      4
Auxiliary J/K fitting basis                 ... NOT available
Auxiliary Correlation fitting basis         ... NOT available
Auxiliary 'external' fitting basis          ... NOT available
Integral threshold                          ...     2.500000e-11
Primitive cut-off                           ...     2.500000e-12
Primitive pair pre-selection threshold      ...     2.500000e-12

Calculating pre-screening integrals         ... done (  0.0 sec) Dimension = 202
Organizing shell pair data                  ... done (  0.1 sec)
Shell pair information
Total number of shell pairs                 ...     20503
Shell pairs after pre-screening             ...     16104
Total number of primitive shell pairs       ...     62472
Primitive shell pairs kept                  ...     34081
          la=0 lb=0:   4334 shell pairs
          la=1 lb=0:   4617 shell pairs
          la=1 lb=1:   1271 shell pairs
          la=2 lb=0:   2268 shell pairs
          la=2 lb=1:   1236 shell pairs
          la=2 lb=2:    320 shell pairs
          la=3 lb=0:   1085 shell pairs
          la=3 lb=1:    602 shell pairs
          la=3 lb=2:    294 shell pairs
          la=3 lb=3:     77 shell pairs

Calculating one electron integrals          ... done (  0.0 sec)
Calculating RI/J V-Matrix + Cholesky decomp.... done (  0.0 sec)
Calculating Nuclear repulsion               ... done (  0.0 sec) ENN=    910.002032179094 Eh

SHARK setup successfully completed in   0.3 seconds

Maximum memory used throughout the entire GTOINT-calculation: 28.5 MB


           ************************************************************
           *        Program running with 16 parallel MPI-processes    *
           *              working on a common directory               *
           ************************************************************
-------------------------------------------------------------------------------
                                 ORCA SCF
-------------------------------------------------------------------------------

------------
SCF SETTINGS
------------
Hamiltonian:
 Density Functional     Method          .... DFT(GTOs)
 Exchange Functional    Exchange        .... M062X
 Correlation Functional Correlation     .... M062X
 Gradients option       PostSCFGGA      .... off
 Hybrid DFT is turned on
   Fraction HF Exchange ScalHFX         ....  0.540000
   Scaling of DF-GGA-X  ScalDFX         ....  0.460000
   Scaling of DF-GGA-C  ScalDFC         ....  1.000000
   Scaling of DF-LDA-C  ScalLDAC        ....  1.000000
   Perturbative correction              ....  0.000000
   Density functional embedding theory  .... OFF
 RI-approximation to the Coulomb term is turned on
   Number of AuxJ basis functions       .... 818
   RIJ-COSX (HFX calculated with COS-X)).... on


General Settings:
 Integral files         IntName         .... freq
 Hartree-Fock type      HFTyp           .... UHF
 Total Charge           Charge          ....   -1
 Multiplicity           Mult            ....    2
 Number of Electrons    NEL             ....  107
 Basis Dimension        Dim             ....  506
 Nuclear Repulsion      ENuc            ....    910.0020321791 Eh

Convergence Acceleration:
 DIIS                   CNVDIIS         .... on
   Start iteration      DIISMaxIt       ....    12
   Startup error        DIISStart       ....  0.200000
   # of expansion vecs  DIISMaxEq       ....     5
   Bias factor          DIISBfac        ....   1.050
   Max. coefficient     DIISMaxC        ....  10.000
 Trust-Rad. Augm. Hess. CNVTRAH         .... auto
   Auto Start mean grad. ratio tolernc. ....  1.125000
   Auto Start start iteration           ....    20
   Auto Start num. interpolation iter.  ....    10
   Max. Number of Micro iterations      ....    16
   Max. Number of Macro iterations      .... Maxiter - #DIIS iter
   Number of Davidson start vectors     ....     2
   Converg. threshold I  (grad. norm)   ....   1.000e-05
   Converg. threshold II (energy diff.) ....   1.000e-08
   Grad. Scal. Fac. for Micro threshold ....   0.100
   Minimum threshold for Micro iter.    ....   0.010
   NR start threshold (gradient norm)   ....   0.001
   Initial trust radius                 ....   0.400
   Minimum AH scaling param. (alpha)    ....   1.000
   Maximum AH scaling param. (alpha)    .... 1000.000
   Orbital update algorithm             .... Taylor
   White noise on init. David. guess    .... on
   Maximum white noise                  ....   0.010
   Quad. conv. algorithm                .... NR
 SOSCF                  CNVSOSCF        .... off
 Level Shifting         CNVShift        .... on
   Level shift para.    LevelShift      ....    0.2500
   Turn off err/grad.   ShiftErr        ....    0.0010
 Zerner damping         CNVZerner       .... off
 Static damping         CNVDamp         .... on
   Fraction old density DampFac         ....    0.7000
   Max. Damping (<1)    DampMax         ....    0.9800
   Min. Damping (>=0)   DampMin         ....    0.0000
   Turn off err/grad.   DampErr         ....    0.1000
 Fernandez-Rico         CNVRico         .... off

SCF Procedure:
 Maximum # iterations   MaxIter         ....   125
 SCF integral mode      SCFMode         .... Direct
   Integral package                     .... SHARK and LIBINT hybrid scheme
 Reset frequency        DirectResetFreq ....    20
 Integral Threshold     Thresh          ....  2.500e-11 Eh
 Primitive CutOff       TCut            ....  2.500e-12 Eh

Convergence Tolerance:
 Convergence Check Mode ConvCheckMode   .... Total+1el-Energy
 Convergence forced     ConvForced      .... 0
 Energy Change          TolE            ....  1.000e-08 Eh
 1-El. energy change                    ....  1.000e-05 Eh
 DIIS Error             TolErr          ....  5.000e-07


Diagonalization of the overlap matrix:
Smallest eigenvalue                        ... 7.435e-05
Time for diagonalization                   ...    0.030 sec
Threshold for overlap eigenvalues          ... 1.000e-08
Number of eigenvalues below threshold      ... 0
Time for construction of square roots      ...    0.018 sec
Total time needed                          ...    0.049 sec

Time for model grid setup =    0.102 sec

------------------------------
INITIAL GUESS: MODEL POTENTIAL
------------------------------
Loading Hartree-Fock densities                     ... done
Calculating cut-offs                               ... done
Initializing the effective Hamiltonian             ... done
Setting up the integral package (SHARK)            ... done
Starting the Coulomb interaction                   ... done (   0.1 sec)
Reading the grid                                   ... done
Mapping shells                                     ... done
Starting the XC term evaluation                    ... done (   0.1 sec)
  promolecular density results
     # of electrons  =    105.988978397
     EX              =    -90.075386465
     EC              =     -3.550110394
     EX+EC           =    -93.625496859
Transforming the Hamiltonian                       ... done (   0.0 sec)
Diagonalizing the Hamiltonian                      ... done (   0.0 sec)
Back transforming the eigenvectors                 ... done (   0.0 sec)
Now organizing SCF variables                       ... done
                      ------------------
                      INITIAL GUESS DONE (   0.4 sec)
                      ------------------
-------------------
DFT GRID GENERATION
-------------------

General Integration Accuracy     IntAcc      ... 4.388
Radial Grid Type                 RadialGrid  ... OptM3 with GC (2021)
Angular Grid (max. ang.)         AngularGrid ... 4 (Lebedev-302)
Angular grid pruning method      GridPruning ... 4 (adaptive)
Weight generation scheme         WeightScheme... Becke
Basis function cutoff            BFCut       ... 1.0000e-11
Integration weight cutoff        WCut        ... 1.0000e-14
Angular grids for H and He will be reduced by one unit
Partially contracted basis set               ... off
Rotationally invariant grid construction     ... off

Total number of grid points                  ...   122704
Total number of batches                      ...     1930
Average number of points per batch           ...       63
Average number of grid points per atom       ...     4719
Time for grid setup =    0.531 sec

--------------------
COSX GRID GENERATION
--------------------

GRIDX 1
-------
General Integration Accuracy     IntAcc      ... 3.816
Radial Grid Type                 RadialGrid  ... OptM3 with GC (2021)
Angular Grid (max. ang.)         AngularGrid ... 1 (Lebedev-50)
Angular grid pruning method      GridPruning ... 4 (adaptive)
Weight generation scheme         WeightScheme... Becke
Basis function cutoff            BFCut       ... 1.0000e-11
Integration weight cutoff        WCut        ... 1.0000e-14
Angular grids for H and He will be reduced by one unit
Partially contracted basis set               ... on
Rotationally invariant grid construction     ... off

Total number of grid points                  ...    15609
Total number of batches                      ...      259
Average number of points per batch           ...       60
Average number of grid points per atom       ...      600
UseSFitting                                  ... on

GRIDX 2
-------
General Integration Accuracy     IntAcc      ... 4.020
Radial Grid Type                 RadialGrid  ... OptM3 with GC (2021)
Angular Grid (max. ang.)         AngularGrid ... 2 (Lebedev-110)
Angular grid pruning method      GridPruning ... 4 (adaptive)
Weight generation scheme         WeightScheme... Becke
Basis function cutoff            BFCut       ... 1.0000e-11
Integration weight cutoff        WCut        ... 1.0000e-14
Angular grids for H and He will be reduced by one unit
Partially contracted basis set               ... on
Rotationally invariant grid construction     ... off

Total number of grid points                  ...    33990
Total number of batches                      ...      545
Average number of points per batch           ...       62
Average number of grid points per atom       ...     1307
UseSFitting                                  ... on

GRIDX 3
-------
General Integration Accuracy     IntAcc      ... 4.338
Radial Grid Type                 RadialGrid  ... OptM3 with GC (2021)
Angular Grid (max. ang.)         AngularGrid ... 3 (Lebedev-194)
Angular grid pruning method      GridPruning ... 4 (adaptive)
Weight generation scheme         WeightScheme... Becke
Basis function cutoff            BFCut       ... 1.0000e-11
Integration weight cutoff        WCut        ... 1.0000e-14
Angular grids for H and He will be reduced by one unit
Partially contracted basis set               ... on
Rotationally invariant grid construction     ... off

Total number of grid points                  ...    74510
Total number of batches                      ...     1178
Average number of points per batch           ...       63
Average number of grid points per atom       ...     2866
UseSFitting                                  ... on

Time for X-Grid setup             =    0.657 sec

--------------
SCF ITERATIONS
--------------
ITER       Energy         Delta-E        Max-DP      RMS-DP      [F,P]     Damp
               ***  Starting incremental Fock matrix formation  ***
  0   -721.9845143219   0.000000000000 0.12418735  0.00065184  0.1601444 0.7000
  1   -722.2386554401  -0.254141118142 0.13667414  0.00059437  0.0785384 0.7000
                               ***Turning on DIIS***
  2   -722.3482591062  -0.109603666166 0.23656170  0.00107132  0.0291911 0.0000
  3   -722.5260708896  -0.177811783411 0.12458669  0.00047606  0.0401645 0.0000
  4   -722.5581555173  -0.032084627676 0.04631498  0.00016845  0.0056012 0.0000
  5   -722.5596312202  -0.001475702895 0.01839749  0.00006931  0.0030290 0.0000
  6   -722.5599094540  -0.000278233744 0.00829064  0.00003289  0.0022277 0.0000
  7   -722.5600171176  -0.000107663676 0.00462160  0.00002027  0.0012521 0.0000
  8   -722.5600732872  -0.000056169558 0.00317146  0.00001709  0.0008710 0.0000
               *** Restarting incremental Fock matrix formation ***
                                   *** Resetting DIIS ***
  9   -722.5600951808  -0.000021893613 0.00041910  0.00000582  0.0002306 0.0000
 10   -722.5600963406  -0.000001159775 0.00026935  0.00000229  0.0003246 0.0000
 11   -722.5600980360  -0.000001695380 0.00008208  0.00000126  0.0001044 0.0000
 12   -722.5600984507  -0.000000414792 0.00008088  0.00000094  0.0000490 0.0000
 13   -722.5600986355  -0.000000184758 0.00007140  0.00000046  0.0000283 0.0000
 14   -722.5600986648  -0.000000029336 0.00002227  0.00000017  0.0000198 0.0000
 15   -722.5600986608   0.000000004090 0.00001666  0.00000010  0.0000059 0.0000
 16   -722.5600986658  -0.000000005001 0.00000572  0.00000005  0.0000035 0.0000
 17   -722.5600986503   0.000000015472 0.00000365  0.00000004  0.0000028 0.0000
 18   -722.5600986493   0.000000001015 0.00000390  0.00000002  0.0000014 0.0000
                            ***DIIS convergence achieved***

               *****************************************************
               *                     SUCCESS                       *
               *           SCF CONVERGED AFTER  19 CYCLES          *
               *****************************************************

Old exchange energy                            =    -49.710625095 Eh
New exchange energy                            =    -49.710664192 Eh
Exchange energy change after final integration =     -0.000039097 Eh
Total energy after final integration           =   -722.560137765 Eh
Final COS-X integration done in                =     3.912 sec

----------------
TOTAL SCF ENERGY
----------------

Total Energy       :         -722.56013777 Eh          -19661.86094 eV

Components:
Nuclear Repulsion  :          910.00203218 Eh           24762.41419 eV
Electronic Energy  :        -1632.56216994 Eh          -44424.27513 eV
One Electron Energy:        -2807.36744790 Eh          -76392.35197 eV
Two Electron Energy:         1174.80527796 Eh           31968.07684 eV
Max COSX asymmetry :            0.00000077 Eh               0.00002 eV

Virial components:
Potential Energy   :        -1441.35735130 Eh          -39221.32750 eV
Kinetic Energy     :          718.79721354 Eh           19559.46656 eV
Virial Ratio       :            2.00523503


DFT components:
N(Alpha)           :       53.999969526739 electrons
N(Beta)            :       52.999984175590 electrons
N(Total)           :      106.999953702330 electrons
E(XC)              :      -46.357919376817 Eh       
DFET-embed. en.    :        0.000000000000 Eh       

---------------
SCF CONVERGENCE
---------------

  Last Energy change         ...   -1.9056e-08  Tolerance :   1.0000e-08
  Last MAX-Density change    ...    0.0000e+00  Tolerance :   1.0000e-07
  Last RMS-Density change    ...    0.0000e+00  Tolerance :   5.0000e-09
  Last DIIS Error            ...    5.7019e-07  Tolerance :   5.0000e-07

             **** THE GBW FILE WAS UPDATED (freq.gbw) ****
             **** DENSITY freq.scfp WAS UPDATED ****
             **** ENERGY FILE WAS UPDATED (freq.en.tmp) ****
----------------------
UHF SPIN CONTAMINATION
----------------------

Warning: in a DFT calculation there is little theoretical justification to 
         calculate <S**2> as in Hartree-Fock theory. We will do it anyways
         but you should keep in mind that the values have only limited relevance

Expectation value of <S**2>     :     0.759099
Ideal value S*(S+1) for S=0.5   :     0.750000
Deviation                       :     0.009099

             **** THE GBW FILE WAS UPDATED (freq.gbw) ****
             **** DENSITY freq.scfp WAS UPDATED ****
----------------
ORBITAL ENERGIES
----------------
                 SPIN UP ORBITALS
  NO   OCC          E(Eh)            E(eV) 
   0   1.0000     -19.497129      -530.5439 
   1   1.0000     -19.470334      -529.8147 
   2   1.0000     -19.415181      -528.3139 
   3   1.0000     -19.404075      -528.0117 
   4   1.0000     -14.687885      -399.6777 
   5   1.0000     -14.629935      -398.1008 
   6   1.0000     -10.552497      -287.1480 
   7   1.0000     -10.518491      -286.2227 
   8   1.0000     -10.480587      -285.1913 
   9   1.0000     -10.473667      -285.0030 
  10   1.0000     -10.458020      -284.5772 
  11   1.0000     -10.449300      -284.3399 
  12   1.0000     -10.417937      -283.4865 
  13   1.0000     -10.398309      -282.9524 
  14   1.0000      -1.058254       -28.7966 
  15   1.0000      -1.027719       -27.9657 
  16   1.0000      -0.987031       -26.8585 
  17   1.0000      -0.944310       -25.6960 
  18   1.0000      -0.902449       -24.5569 
  19   1.0000      -0.888398       -24.1745 
  20   1.0000      -0.778415       -21.1818 
  21   1.0000      -0.736582       -20.0434 
  22   1.0000      -0.695387       -18.9224 
  23   1.0000      -0.654298       -17.8043 
  24   1.0000      -0.605984       -16.4897 
  25   1.0000      -0.548214       -14.9177 
  26   1.0000      -0.523809       -14.2536 
  27   1.0000      -0.503890       -13.7115 
  28   1.0000      -0.458377       -12.4731 
  29   1.0000      -0.443015       -12.0551 
  30   1.0000      -0.436428       -11.8758 
  31   1.0000      -0.419063       -11.4033 
  32   1.0000      -0.409435       -11.1413 
  33   1.0000      -0.407274       -11.0825 
  34   1.0000      -0.388265       -10.5652 
  35   1.0000      -0.380613       -10.3570 
  36   1.0000      -0.376092       -10.2340 
  37   1.0000      -0.367194        -9.9919 
  38   1.0000      -0.362572        -9.8661 
  39   1.0000      -0.344922        -9.3858 
  40   1.0000      -0.339898        -9.2491 
  41   1.0000      -0.333548        -9.0763 
  42   1.0000      -0.315187        -8.5767 
  43   1.0000      -0.311046        -8.4640 
  44   1.0000      -0.294834        -8.0228 
  45   1.0000      -0.271358        -7.3840 
  46   1.0000      -0.271053        -7.3757 
  47   1.0000      -0.235835        -6.4174 
  48   1.0000      -0.223619        -6.0850 
  49   1.0000      -0.203310        -5.5324 
  50   1.0000      -0.164517        -4.4767 
  51   1.0000      -0.163326        -4.4443 
  52   1.0000      -0.151081        -4.1111 
  53   1.0000      -0.108166        -2.9433 
  54   0.0000       0.150389         4.0923 
  55   0.0000       0.156303         4.2532 
  56   0.0000       0.191366         5.2073 
  57   0.0000       0.203741         5.5441 
  58   0.0000       0.208796         5.6816 
  59   0.0000       0.219455         5.9717 
  60   0.0000       0.227060         6.1786 
  61   0.0000       0.235278         6.4022 
  62   0.0000       0.242739         6.6053 
  63   0.0000       0.246080         6.6962 
  64   0.0000       0.249054         6.7771 
  65   0.0000       0.257766         7.0142 
  66   0.0000       0.269445         7.3320 
  67   0.0000       0.274133         7.4595 
  68   0.0000       0.277414         7.5488 
  69   0.0000       0.289853         7.8873 
  70   0.0000       0.303682         8.2636 
  71   0.0000       0.319040         8.6815 
  72   0.0000       0.322441         8.7741 
  73   0.0000       0.328843         8.9483 
  74   0.0000       0.333778         9.0826 
  75   0.0000       0.346293         9.4231 
  76   0.0000       0.353789         9.6271 
  77   0.0000       0.361979         9.8499 
  78   0.0000       0.372192        10.1279 
  79   0.0000       0.378154        10.2901 
  80   0.0000       0.388000        10.5580 
  81   0.0000       0.393396        10.7049 
  82   0.0000       0.403354        10.9758 
  83   0.0000       0.413909        11.2630 
  84   0.0000       0.415286        11.3005 
  85   0.0000       0.420936        11.4542 
  86   0.0000       0.431099        11.7308 
  87   0.0000       0.443834        12.0773 
  88   0.0000       0.444751        12.1023 
  89   0.0000       0.463020        12.5994 
  90   0.0000       0.476753        12.9731 
  91   0.0000       0.478347        13.0165 
  92   0.0000       0.489540        13.3211 
  93   0.0000       0.497511        13.5380 
  94   0.0000       0.503509        13.7012 
  95   0.0000       0.508894        13.8477 
  96   0.0000       0.514105        13.9895 
  97   0.0000       0.525338        14.2952 
  98   0.0000       0.529336        14.4040 
  99   0.0000       0.534180        14.5358 
 100   0.0000       0.543558        14.7910 
 101   0.0000       0.550935        14.9917 
 102   0.0000       0.560492        15.2518 
 103   0.0000       0.568296        15.4641 
 104   0.0000       0.573303        15.6004 
 105   0.0000       0.583279        15.8718 
 106   0.0000       0.595746        16.2111 
 107   0.0000       0.597281        16.2528 
 108   0.0000       0.604500        16.4493 
 109   0.0000       0.608486        16.5577 
 110   0.0000       0.611622        16.6431 
 111   0.0000       0.619865        16.8674 
 112   0.0000       0.631593        17.1865 
 113   0.0000       0.637401        17.3446 
 114   0.0000       0.638142        17.3647 
 115   0.0000       0.648434        17.6448 
 116   0.0000       0.658478        17.9181 
 117   0.0000       0.664959        18.0945 
 118   0.0000       0.670040        18.2327 
 119   0.0000       0.683994        18.6124 
 120   0.0000       0.690551        18.7908 
 121   0.0000       0.695405        18.9229 
 122   0.0000       0.698740        19.0137 
 123   0.0000       0.707342        19.2478 
 124   0.0000       0.712919        19.3995 
 125   0.0000       0.731155        19.8957 
 126   0.0000       0.735662        20.0184 
 127   0.0000       0.739961        20.1354 
 128   0.0000       0.755341        20.5539 
 129   0.0000       0.760716        20.7001 
 130   0.0000       0.762111        20.7381 
 131   0.0000       0.767406        20.8822 
 132   0.0000       0.786836        21.4109 
 133   0.0000       0.790084        21.4993 
 134   0.0000       0.804110        21.8809 
 135   0.0000       0.808085        21.9891 
 136   0.0000       0.822122        22.3711 
 137   0.0000       0.829617        22.5750 
 138   0.0000       0.838460        22.8157 
 139   0.0000       0.855803        23.2876 
 140   0.0000       0.867374        23.6024 
 141   0.0000       0.870528        23.6883 
 142   0.0000       0.898442        24.4478 
 143   0.0000       0.904721        24.6187 
 144   0.0000       0.924520        25.1575 
 145   0.0000       0.927432        25.2367 
 146   0.0000       0.947932        25.7945 
 147   0.0000       0.956793        26.0357 
 148   0.0000       0.973203        26.4822 
 149   0.0000       0.992017        26.9942 
 150   0.0000       0.999572        27.1997 
 151   0.0000       1.003304        27.3013 
 152   0.0000       1.024340        27.8737 
 153   0.0000       1.033543        28.1241 
 154   0.0000       1.039195        28.2779 
 155   0.0000       1.043464        28.3941 
 156   0.0000       1.057040        28.7635 
 157   0.0000       1.065360        28.9899 
 158   0.0000       1.079120        29.3643 
 159   0.0000       1.083520        29.4841 
 160   0.0000       1.105632        30.0858 
 161   0.0000       1.118356        30.4320 
 162   0.0000       1.125550        30.6278 
 163   0.0000       1.140410        31.0321 
 164   0.0000       1.150223        31.2991 
 165   0.0000       1.162369        31.6297 
 166   0.0000       1.180398        32.1203 
 167   0.0000       1.193046        32.4644 
 168   0.0000       1.205506        32.8035 
 169   0.0000       1.209725        32.9183 
 170   0.0000       1.227122        33.3917 
 171   0.0000       1.234705        33.5980 
 172   0.0000       1.253341        34.1051 
 173   0.0000       1.264219        34.4012 
 174   0.0000       1.277240        34.7555 
 175   0.0000       1.304101        35.4864 
 176   0.0000       1.316613        35.8269 
 177   0.0000       1.332109        36.2485 
 178   0.0000       1.359440        36.9922 
 179   0.0000       1.379966        37.5508 
 180   0.0000       1.391523        37.8653 
 181   0.0000       1.404427        38.2164 
 182   0.0000       1.423124        38.7252 
 183   0.0000       1.428587        38.8738 
 184   0.0000       1.467394        39.9298 
 185   0.0000       1.476924        40.1892 
 186   0.0000       1.494545        40.6686 
 187   0.0000       1.507216        41.0134 
 188   0.0000       1.522102        41.4185 
 189   0.0000       1.545823        42.0640 
 190   0.0000       1.557182        42.3731 
 191   0.0000       1.574757        42.8513 
 192   0.0000       1.599854        43.5342 
 193   0.0000       1.606358        43.7112 
 194   0.0000       1.614209        43.9249 
 195   0.0000       1.617802        44.0226 
 196   0.0000       1.632385        44.4195 
 197   0.0000       1.644907        44.7602 
 198   0.0000       1.654137        45.0113 
 199   0.0000       1.667763        45.3821 
 200   0.0000       1.674670        45.5701 
 201   0.0000       1.682829        45.7921 
 202   0.0000       1.689315        45.9686 
 203   0.0000       1.692407        46.0527 
 204   0.0000       1.705105        46.3983 
 205   0.0000       1.708229        46.4833 
 206   0.0000       1.722402        46.8689 
 207   0.0000       1.735687        47.2304 
 208   0.0000       1.749394        47.6034 
 209   0.0000       1.754666        47.7469 
 210   0.0000       1.758025        47.8383 
 211   0.0000       1.766126        48.0587 
 212   0.0000       1.773011        48.2461 
 213   0.0000       1.784454        48.5575 
 214   0.0000       1.807724        49.1907 
 215   0.0000       1.820034        49.5256 
 216   0.0000       1.825256        49.6678 
 217   0.0000       1.834280        49.9133 
 218   0.0000       1.848605        50.3031 
 219   0.0000       1.853071        50.4246 
 220   0.0000       1.873905        50.9915 
 221   0.0000       1.884024        51.2669 
 222   0.0000       1.901954        51.7548 
 223   0.0000       1.912732        52.0481 
 224   0.0000       1.939897        52.7873 
 225   0.0000       1.952086        53.1190 
 226   0.0000       1.959526        53.3214 
 227   0.0000       1.970075        53.6085 
 228   0.0000       1.975730        53.7624 
 229   0.0000       1.992093        54.2076 
 230   0.0000       2.005147        54.5628 
 231   0.0000       2.018568        54.9280 
 232   0.0000       2.030895        55.2635 
 233   0.0000       2.047189        55.7068 
 234   0.0000       2.070405        56.3386 
 235   0.0000       2.078724        56.5650 
 236   0.0000       2.085663        56.7538 
 237   0.0000       2.096580        57.0508 
 238   0.0000       2.122722        57.7622 
 239   0.0000       2.132546        58.0295 
 240   0.0000       2.139453        58.2175 
 241   0.0000       2.156116        58.6709 
 242   0.0000       2.166299        58.9480 
 243   0.0000       2.182083        59.3775 
 244   0.0000       2.192366        59.6573 
 245   0.0000       2.212792        60.2131 
 246   0.0000       2.216191        60.3056 
 247   0.0000       2.225098        60.5480 
 248   0.0000       2.241485        60.9939 
 249   0.0000       2.247958        61.1700 
 250   0.0000       2.268150        61.7195 
 251   0.0000       2.288012        62.2600 
 252   0.0000       2.298650        62.5494 
 253   0.0000       2.324658        63.2571 
 254   0.0000       2.347537        63.8797 
 255   0.0000       2.348880        63.9163 
 256   0.0000       2.357935        64.1627 
 257   0.0000       2.371592        64.5343 
 258   0.0000       2.374970        64.6262 
 259   0.0000       2.398630        65.2700 
 260   0.0000       2.402161        65.3661 
 261   0.0000       2.411977        65.6332 
 262   0.0000       2.435113        66.2628 
 263   0.0000       2.442760        66.4709 
 264   0.0000       2.447965        66.6125 
 265   0.0000       2.453687        66.7682 
 266   0.0000       2.460520        66.9542 
 267   0.0000       2.475716        67.3676 
 268   0.0000       2.480451        67.4965 
 269   0.0000       2.489421        67.7406 
 270   0.0000       2.499682        68.0198 
 271   0.0000       2.515389        68.4472 
 272   0.0000       2.534964        68.9799 
 273   0.0000       2.540616        69.1337 
 274   0.0000       2.549179        69.3667 
 275   0.0000       2.576480        70.1096 
 276   0.0000       2.592542        70.5467 
 277   0.0000       2.627118        71.4875 
 278   0.0000       2.635272        71.7094 
 279   0.0000       2.651663        72.1554 
 280   0.0000       2.660402        72.3932 
 281   0.0000       2.661352        72.4191 
 282   0.0000       2.671584        72.6975 
 283   0.0000       2.694373        73.3176 
 284   0.0000       2.711511        73.7840 
 285   0.0000       2.725485        74.1642 
 286   0.0000       2.740125        74.5626 
 287   0.0000       2.755156        74.9716 
 288   0.0000       2.765119        75.2427 
 289   0.0000       2.776787        75.5602 
 290   0.0000       2.787484        75.8513 
 291   0.0000       2.809401        76.4477 
 292   0.0000       2.835833        77.1669 
 293   0.0000       2.858874        77.7939 
 294   0.0000       2.860317        77.8332 
 295   0.0000       2.871481        78.1370 
 296   0.0000       2.882358        78.4329 
 297   0.0000       2.893551        78.7375 
 298   0.0000       2.907168        79.1081 
 299   0.0000       2.923078        79.5410 
 300   0.0000       2.925341        79.6026 
 301   0.0000       2.938685        79.9657 
 302   0.0000       2.960305        80.5540 
 303   0.0000       2.978856        81.0588 
 304   0.0000       2.993397        81.4545 
 305   0.0000       2.996096        81.5279 
 306   0.0000       3.000559        81.6494 
 307   0.0000       3.031497        82.4912 
 308   0.0000       3.041101        82.7526 
 309   0.0000       3.047997        82.9402 
 310   0.0000       3.071816        83.5884 
 311   0.0000       3.087569        84.0170 
 312   0.0000       3.091389        84.1210 
 313   0.0000       3.108509        84.5868 
 314   0.0000       3.128377        85.1275 
 315   0.0000       3.134291        85.2884 
 316   0.0000       3.148900        85.6859 
 317   0.0000       3.155304        85.8602 
 318   0.0000       3.167790        86.2000 
 319   0.0000       3.169816        86.2551 
 320   0.0000       3.181728        86.5792 
 321   0.0000       3.193576        86.9016 
 322   0.0000       3.208819        87.3164 
 323   0.0000       3.223460        87.7148 
 324   0.0000       3.230817        87.9150 
 325   0.0000       3.233762        87.9951 
 326   0.0000       3.237936        88.1087 
 327   0.0000       3.247002        88.3554 
 328   0.0000       3.263125        88.7941 
 329   0.0000       3.279081        89.2283 
 330   0.0000       3.283369        89.3450 
 331   0.0000       3.290528        89.5398 
 332   0.0000       3.298512        89.7571 
 333   0.0000       3.307263        89.9952 
 334   0.0000       3.308856        90.0385 
 335   0.0000       3.325005        90.4780 
 336   0.0000       3.339916        90.8837 
 337   0.0000       3.350200        91.1636 
 338   0.0000       3.363426        91.5235 
 339   0.0000       3.380483        91.9876 
 340   0.0000       3.390902        92.2711 
 341   0.0000       3.395683        92.4012 
 342   0.0000       3.407168        92.7137 
 343   0.0000       3.418722        93.0281 
 344   0.0000       3.421616        93.1069 
 345   0.0000       3.427968        93.2798 
 346   0.0000       3.438761        93.5734 
 347   0.0000       3.446187        93.7755 
 348   0.0000       3.463105        94.2359 
 349   0.0000       3.467849        94.3650 
 350   0.0000       3.477078        94.6161 
 351   0.0000       3.492553        95.0372 
 352   0.0000       3.509571        95.5003 
 353   0.0000       3.517087        95.7048 
 354   0.0000       3.544268        96.4444 
 355   0.0000       3.548721        96.5656 
 356   0.0000       3.565551        97.0236 
 357   0.0000       3.577033        97.3360 
 358   0.0000       3.580167        97.4213 
 359   0.0000       3.596924        97.8773 
 360   0.0000       3.604782        98.0911 
 361   0.0000       3.624626        98.6311 
 362   0.0000       3.633388        98.8695 
 363   0.0000       3.643491        99.1444 
 364   0.0000       3.644952        99.1842 
 365   0.0000       3.655695        99.4765 
 366   0.0000       3.681004       100.1652 
 367   0.0000       3.697134       100.6041 
 368   0.0000       3.716935       101.1430 
 369   0.0000       3.738190       101.7213 
 370   0.0000       3.742537       101.8396 
 371   0.0000       3.750501       102.0563 
 372   0.0000       3.771424       102.6257 
 373   0.0000       3.792276       103.1931 
 374   0.0000       3.831721       104.2664 
 375   0.0000       3.832906       104.2987 
 376   0.0000       3.858047       104.9828 
 377   0.0000       3.872368       105.3725 
 378   0.0000       3.877572       105.5141 
 379   0.0000       3.906876       106.3115 
 380   0.0000       3.929434       106.9253 
 381   0.0000       3.935997       107.1039 
 382   0.0000       3.950425       107.4965 
 383   0.0000       3.962691       107.8303 
 384   0.0000       3.998001       108.7911 
 385   0.0000       4.001521       108.8869 
 386   0.0000       4.033798       109.7652 
 387   0.0000       4.048410       110.1628 
 388   0.0000       4.089290       111.2752 
 389   0.0000       4.108798       111.8061 
 390   0.0000       4.134355       112.5015 
 391   0.0000       4.156341       113.0998 
 392   0.0000       4.167384       113.4003 
 393   0.0000       4.191635       114.0602 
 394   0.0000       4.213162       114.6460 
 395   0.0000       4.231602       115.1477 
 396   0.0000       4.262659       115.9929 
 397   0.0000       4.290950       116.7627 
 398   0.0000       4.332158       117.8840 
 399   0.0000       4.339453       118.0825 
 400   0.0000       4.366284       118.8126 
 401   0.0000       4.372727       118.9879 
 402   0.0000       4.412696       120.0756 
 403   0.0000       4.444052       120.9288 
 404   0.0000       4.480366       121.9170 
 405   0.0000       4.490856       122.2024 
 406   0.0000       4.514749       122.8526 
 407   0.0000       4.528218       123.2191 
 408   0.0000       4.535743       123.4238 
 409   0.0000       4.569742       124.3490 
 410   0.0000       4.593221       124.9879 
 411   0.0000       4.631261       126.0230 
 412   0.0000       4.643138       126.3462 
 413   0.0000       4.704815       128.0245 
 414   0.0000       4.724038       128.5476 
 415   0.0000       4.761332       129.5624 
 416   0.0000       4.772445       129.8648 
 417   0.0000       4.823521       131.2547 
 418   0.0000       4.839567       131.6913 
 419   0.0000       4.844081       131.8142 
 420   0.0000       4.886682       132.9734 
 421   0.0000       4.909730       133.6005 
 422   0.0000       4.938541       134.3845 
 423   0.0000       4.980405       135.5237 
 424   0.0000       5.008262       136.2818 
 425   0.0000       5.060504       137.7033 
 426   0.0000       5.109545       139.0378 
 427   0.0000       5.161049       140.4393 
 428   0.0000       5.190545       141.2419 
 429   0.0000       5.193122       141.3120 
 430   0.0000       5.219586       142.0322 
 431   0.0000       5.222513       142.1118 
 432   0.0000       5.257048       143.0515 
 433   0.0000       5.267376       143.3326 
 434   0.0000       5.292266       144.0099 
 435   0.0000       5.337778       145.2483 
 436   0.0000       5.371602       146.1687 
 437   0.0000       5.375536       146.2758 
 438   0.0000       5.389829       146.6647 
 439   0.0000       5.401837       146.9915 
 440   0.0000       5.406738       147.1248 
 441   0.0000       5.413611       147.3119 
 442   0.0000       5.429239       147.7371 
 443   0.0000       5.467544       148.7794 
 444   0.0000       5.526902       150.3947 
 445   0.0000       5.557204       151.2192 
 446   0.0000       5.579113       151.8154 
 447   0.0000       5.600509       152.3976 
 448   0.0000       5.667958       154.2330 
 449   0.0000       5.680526       154.5750 
 450   0.0000       5.730038       155.9223 
 451   0.0000       5.731329       155.9574 
 452   0.0000       5.737932       156.1371 
 453   0.0000       5.777559       157.2154 
 454   0.0000       5.794165       157.6673 
 455   0.0000       5.833031       158.7248 
 456   0.0000       5.933145       161.4491 
 457   0.0000       5.941976       161.6894 
 458   0.0000       5.992192       163.0558 
 459   0.0000       6.020205       163.8181 
 460   0.0000       6.090919       165.7423 
 461   0.0000       6.155912       167.5109 
 462   0.0000       6.176831       168.0801 
 463   0.0000       6.225441       169.4029 
 464   0.0000       6.237997       169.7445 
 465   0.0000       6.304348       171.5500 
 466   0.0000       6.370306       173.3448 
 467   0.0000       6.407741       174.3635 
 468   0.0000       6.505204       177.0156 
 469   0.0000       6.517527       177.3509 
 470   0.0000       6.538411       177.9192 
 471   0.0000       6.568071       178.7263 
 472   0.0000       6.621864       180.1901 
 473   0.0000       6.634641       180.5378 
 474   0.0000       6.693937       182.1513 
 475   0.0000       6.703123       182.4013 
 476   0.0000       6.750526       183.6912 
 477   0.0000       6.773563       184.3180 
 478   0.0000       6.825276       185.7252 
 479   0.0000       6.879670       187.2053 
 480   0.0000       6.914560       188.1548 
 481   0.0000       6.937649       188.7830 
 482   0.0000       6.989696       190.1993 
 483   0.0000       7.054226       191.9552 
 484   0.0000       7.140986       194.3161 
 485   0.0000       7.147285       194.4875 
 486   0.0000       7.162295       194.8960 
 487   0.0000       7.171431       195.1445 
 488   0.0000       7.267303       197.7534 
 489   0.0000       7.291832       198.4208 
 490   0.0000       7.306065       198.8081 
 491   0.0000       7.373162       200.6339 
 492   0.0000      22.484803       611.8426 
 493   0.0000      22.605754       615.1338 
 494   0.0000      22.705946       617.8602 
 495   0.0000      22.762605       619.4020 
 496   0.0000      23.102559       628.6526 
 497   0.0000      23.468455       638.6091 
 498   0.0000      23.494913       639.3291 
 499   0.0000      23.613761       642.5631 
 500   0.0000      32.737981       890.8458 
 501   0.0000      32.870064       894.4399 
 502   0.0000      44.148834      1201.3508 
 503   0.0000      44.185823      1202.3574 
 504   0.0000      44.228344      1203.5144 
 505   0.0000      44.272475      1204.7153 

                 SPIN DOWN ORBITALS
  NO   OCC          E(Eh)            E(eV) 
   0   1.0000     -19.495051      -530.4873 
   1   1.0000     -19.468903      -529.7758 
   2   1.0000     -19.415200      -528.3144 
   3   1.0000     -19.403993      -528.0095 
   4   1.0000     -14.687757      -399.6742 
   5   1.0000     -14.628648      -398.0657 
   6   1.0000     -10.552335      -287.1436 
   7   1.0000     -10.518991      -286.2363 
   8   1.0000     -10.475521      -285.0534 
   9   1.0000     -10.473684      -285.0034 
  10   1.0000     -10.458105      -284.5795 
  11   1.0000     -10.449376      -284.3420 
  12   1.0000     -10.418396      -283.4990 
  13   1.0000     -10.397604      -282.9332 
  14   1.0000      -1.052880       -28.6503 
  15   1.0000      -1.023465       -27.8499 
  16   1.0000      -0.986898       -26.8549 
  17   1.0000      -0.937787       -25.5185 
  18   1.0000      -0.900844       -24.5132 
  19   1.0000      -0.885415       -24.0934 
  20   1.0000      -0.769185       -20.9306 
  21   1.0000      -0.734541       -19.9879 
  22   1.0000      -0.690835       -18.7986 
  23   1.0000      -0.647599       -17.6221 
  24   1.0000      -0.602780       -16.4025 
  25   1.0000      -0.544185       -14.8080 
  26   1.0000      -0.519411       -14.1339 
  27   1.0000      -0.500325       -13.6145 
  28   1.0000      -0.455700       -12.4002 
  29   1.0000      -0.437601       -11.9077 
  30   1.0000      -0.430166       -11.7054 
  31   1.0000      -0.413987       -11.2652 
  32   1.0000      -0.405557       -11.0358 
  33   1.0000      -0.401455       -10.9241 
  34   1.0000      -0.385589       -10.4924 
  35   1.0000      -0.376320       -10.2402 
  36   1.0000      -0.374782       -10.1983 
  37   1.0000      -0.359804        -9.7908 
  38   1.0000      -0.358240        -9.7482 
  39   1.0000      -0.341704        -9.2982 
  40   1.0000      -0.335780        -9.1370 
  41   1.0000      -0.324054        -8.8180 
  42   1.0000      -0.313429        -8.5288 
  43   1.0000      -0.308130        -8.3846 
  44   1.0000      -0.287545        -7.8245 
  45   1.0000      -0.269505        -7.3336 
  46   1.0000      -0.253556        -6.8996 
  47   1.0000      -0.232390        -6.3237 
  48   1.0000      -0.219305        -5.9676 
  49   1.0000      -0.187594        -5.1047 
  50   1.0000      -0.164305        -4.4710 
  51   1.0000      -0.162112        -4.4113 
  52   1.0000      -0.148739        -4.0474 
  53   0.0000       0.065116         1.7719 
  54   0.0000       0.154880         4.2145 
  55   0.0000       0.167944         4.5700 
  56   0.0000       0.190680         5.1887 
  57   0.0000       0.203929         5.5492 
  58   0.0000       0.208368         5.6700 
  59   0.0000       0.226358         6.1595 
  60   0.0000       0.229465         6.2441 
  61   0.0000       0.236787         6.4433 
  62   0.0000       0.242194         6.5904 
  63   0.0000       0.248314         6.7570 
  64   0.0000       0.250714         6.8223 
  65   0.0000       0.256960         6.9922 
  66   0.0000       0.270754         7.3676 
  67   0.0000       0.273136         7.4324 
  68   0.0000       0.284592         7.7441 
  69   0.0000       0.289724         7.8838 
  70   0.0000       0.303395         8.2558 
  71   0.0000       0.316684         8.6174 
  72   0.0000       0.320345         8.7170 
  73   0.0000       0.327963         8.9243 
  74   0.0000       0.334043         9.0898 
  75   0.0000       0.346097         9.4178 
  76   0.0000       0.353274         9.6131 
  77   0.0000       0.361786         9.8447 
  78   0.0000       0.372105        10.1255 
  79   0.0000       0.380922        10.3654 
  80   0.0000       0.385114        10.4795 
  81   0.0000       0.395525        10.7628 
  82   0.0000       0.404634        11.0106 
  83   0.0000       0.415111        11.2957 
  84   0.0000       0.415643        11.3102 
  85   0.0000       0.422477        11.4962 
  86   0.0000       0.432029        11.7561 
  87   0.0000       0.446047        12.1376 
  88   0.0000       0.448909        12.2154 
  89   0.0000       0.464506        12.6398 
  90   0.0000       0.476105        12.9555 
  91   0.0000       0.480759        13.0821 
  92   0.0000       0.489648        13.3240 
  93   0.0000       0.497349        13.5336 
  94   0.0000       0.502221        13.6661 
  95   0.0000       0.510946        13.9035 
  96   0.0000       0.514413        13.9979 
  97   0.0000       0.525816        14.3082 
  98   0.0000       0.530505        14.4358 
  99   0.0000       0.534259        14.5379 
 100   0.0000       0.542288        14.7564 
 101   0.0000       0.551347        15.0029 
 102   0.0000       0.561483        15.2787 
 103   0.0000       0.568251        15.4629 
 104   0.0000       0.574436        15.6312 
 105   0.0000       0.582444        15.8491 
 106   0.0000       0.596235        16.2244 
 107   0.0000       0.597916        16.2701 
 108   0.0000       0.604992        16.4627 
 109   0.0000       0.610372        16.6091 
 110   0.0000       0.611769        16.6471 
 111   0.0000       0.619421        16.8553 
 112   0.0000       0.630686        17.1618 
 113   0.0000       0.637019        17.3342 
 114   0.0000       0.638444        17.3729 
 115   0.0000       0.649709        17.6795 
 116   0.0000       0.656266        17.8579 
 117   0.0000       0.666056        18.1243 
 118   0.0000       0.669545        18.2193 
 119   0.0000       0.684360        18.6224 
 120   0.0000       0.689876        18.7725 
 121   0.0000       0.695494        18.9254 
 122   0.0000       0.698751        19.0140 
 123   0.0000       0.707003        19.2385 
 124   0.0000       0.715300        19.4643 
 125   0.0000       0.729065        19.8389 
 126   0.0000       0.735620        20.0172 
 127   0.0000       0.741768        20.1845 
 128   0.0000       0.755841        20.5675 
 129   0.0000       0.760092        20.6832 
 130   0.0000       0.762224        20.7412 
 131   0.0000       0.768058        20.8999 
 132   0.0000       0.787811        21.4374 
 133   0.0000       0.792614        21.5681 
 134   0.0000       0.804414        21.8892 
 135   0.0000       0.808991        22.0138 
 136   0.0000       0.824510        22.4361 
 137   0.0000       0.830598        22.6017 
 138   0.0000       0.839476        22.8433 
 139   0.0000       0.858282        23.3550 
 140   0.0000       0.868868        23.6431 
 141   0.0000       0.870485        23.6871 
 142   0.0000       0.897041        24.4097 
 143   0.0000       0.907414        24.6920 
 144   0.0000       0.925755        25.1911 
 145   0.0000       0.928556        25.2673 
 146   0.0000       0.945503        25.7285 
 147   0.0000       0.956463        26.0267 
 148   0.0000       0.973815        26.4989 
 149   0.0000       0.992134        26.9973 
 150   0.0000       1.001273        27.2460 
 151   0.0000       1.003120        27.2963 
 152   0.0000       1.026180        27.9238 
 153   0.0000       1.033915        28.1343 
 154   0.0000       1.040292        28.3078 
 155   0.0000       1.044591        28.4248 
 156   0.0000       1.058406        28.8007 
 157   0.0000       1.066050        29.0087 
 158   0.0000       1.079555        29.3762 
 159   0.0000       1.084319        29.5058 
 160   0.0000       1.105760        30.0892 
 161   0.0000       1.119106        30.4524 
 162   0.0000       1.127191        30.6724 
 163   0.0000       1.141638        31.0655 
 164   0.0000       1.150001        31.2931 
 165   0.0000       1.164158        31.6784 
 166   0.0000       1.181730        32.1565 
 167   0.0000       1.194693        32.5092 
 168   0.0000       1.206989        32.8438 
 169   0.0000       1.210547        32.9407 
 170   0.0000       1.229382        33.4532 
 171   0.0000       1.235692        33.6249 
 172   0.0000       1.254159        34.1274 
[...]
     16       0.020499  -0.191601   0.000257   0.000469  -0.001293  -0.000094
     17      -0.003346   0.016577  -0.000010  -0.000059   0.000407   0.000667
     18       0.071294   0.320596  -0.000125  -0.000323   0.002924  -0.000102
     19       0.055447   0.253717  -0.000177  -0.000228   0.002603  -0.000328
     20       0.143919   0.651059  -0.000396  -0.000802   0.006515  -0.002303
     21       0.062265  -0.010300   0.000096  -0.000015  -0.000144   0.000014
     22      -0.009896   0.005095  -0.000045  -0.000019   0.000138   0.000038
     23      -0.065162   0.001372  -0.000073   0.000064  -0.000039  -0.000068
     24      -0.046842  -0.003366  -0.000038   0.000081  -0.000228  -0.000000
     25      -0.175213  -0.004821  -0.000123   0.000241  -0.000479   0.000025
     26       0.539089   0.021315   0.000416  -0.000532   0.001288   0.000158
     27      -0.699151   0.114880  -0.001134   0.000459   0.002067  -0.000374
     28       0.293282  -0.049513   0.000491  -0.000162  -0.000945   0.000531
     29       0.246510  -0.044107   0.000393  -0.000102  -0.000980   0.000330
     30       0.000639  -0.000264  -0.000014  -0.000037  -0.000007   0.000160
     31      -0.000611   0.000998  -0.000004   0.000063   0.000018  -0.000005
     32      -0.000813  -0.000104   0.000009  -0.000042  -0.000011   0.000117
     33      -0.000087   0.000034  -0.000021   0.000048   0.000008  -0.000063
     34       0.000150  -0.000451   0.000018   0.000057  -0.000016   0.000082
     35      -0.000099   0.000000   0.000011   0.000001   0.000033  -0.000109
     36      -0.000225   0.000096  -0.000035   0.000015   0.000015  -0.000036
     37       0.000161  -0.000309   0.000008  -0.000015  -0.000004  -0.000007
     38       0.000171  -0.000000   0.000008   0.000027   0.000010  -0.000023
     39      -0.000163  -0.000316  -0.000226   0.000766   0.005600  -0.312665
     40      -0.000029  -0.000498  -0.001371   0.000433   0.004744  -0.486167
     41      -0.000250   0.001629   0.000869  -0.000519  -0.006646   0.812700
     42      -0.000021   0.000225   0.000520   0.000027  -0.001945   0.000313
     43      -0.000107   0.000142  -0.000729  -0.000020   0.000528   0.000087
     44      -0.000028  -0.000370  -0.000486   0.000049  -0.002119   0.000231
     45      -0.000168   0.000098   0.000002   0.000413  -0.000117   0.000623
     46      -0.000186   0.000047   0.000016  -0.000119  -0.000085   0.000649
     47       0.000144  -0.000094  -0.000004   0.000956   0.000053  -0.000474
     48       0.001898   0.001322  -0.000086  -0.001753   0.000522  -0.001477
     49       0.002371  -0.000065  -0.000157  -0.002119   0.001002  -0.004887
     50      -0.002033   0.000804   0.000122  -0.003975  -0.000802   0.004706
     51      -0.000083  -0.000669  -0.000030   0.000001   0.000205   0.000370
     52       0.000141  -0.000002   0.000084   0.000023  -0.000238  -0.000835
     53       0.000045   0.000130   0.000071  -0.000028   0.000555   0.001629
     54      -0.000048   0.000261   0.021083  -0.000127  -0.027151  -0.000096
     55       0.000087  -0.000476  -0.079928   0.000169   0.034627   0.000371
     56       0.000024   0.000680  -0.040172  -0.000426  -0.082553  -0.000499
     57       0.000939  -0.002246  -0.471554   0.000888   0.205948   0.002097
     58      -0.001042   0.003047   0.544926  -0.001074  -0.245678  -0.001532
     59      -0.000163   0.000489   0.053560  -0.000203  -0.044165  -0.000187
     60      -0.000136  -0.001040   0.211711   0.000671   0.133786   0.001337
     61      -0.000205  -0.002164   0.378176   0.001402   0.275969   0.001123
     62      -0.000347  -0.002658   0.521494   0.001745   0.345687   0.001232
     63       0.000059  -0.000063   0.003381   0.000018  -0.000692   0.002825
     64       0.000120   0.003801   0.039645  -0.002287  -0.442043  -0.004389
     65      -0.000168  -0.005959  -0.089398   0.003581   0.690902   0.008971
     66       0.000119  -0.000125   0.000015  -0.076584   0.000355  -0.000116
     67      -0.000361  -0.000030  -0.000017  -0.049613   0.000224  -0.000019
     68      -0.000018   0.000180  -0.000007   0.014372  -0.000042  -0.000081
     69      -0.000130  -0.000163  -0.000000  -0.022672   0.000044  -0.000317
     70       0.004211   0.001170   0.000203   0.347031  -0.001301  -0.000185
     71      -0.000868  -0.000292  -0.000025  -0.058353   0.000186   0.000180
     72      -0.000535   0.000783  -0.000190   0.850350  -0.004569   0.000838
     73      -0.000255   0.000363  -0.000060   0.338176  -0.001800   0.000399
     74      -0.000068  -0.000014   0.000018  -0.003521   0.000045  -0.000194
     75      -0.000784   0.001405  -0.000182   0.080030  -0.000372  -0.000344
     76       0.000541  -0.001166   0.000126  -0.090811   0.000392  -0.000191
     77       0.000997  -0.002215   0.000217  -0.122231   0.000458   0.000296


-----------
IR SPECTRUM
-----------

 Mode   freq       eps      Int      T**2         TX        TY        TZ
       cm**-1   L/(mol*cm) km/mol    a.u.
----------------------------------------------------------------------------
  6:     30.61   0.000428    2.16  0.004359  (-0.057772 -0.027217  0.016743)
  7:     43.92   0.000330    1.67  0.002343  ( 0.013254 -0.045073  0.011653)
  8:     55.71   0.001157    5.85  0.006481  ( 0.031780 -0.047035 -0.057088)
  9:     81.12   0.000928    4.69  0.003572  (-0.031640  0.043689  0.025723)
 10:    109.04   0.000805    4.07  0.002303  ( 0.038170  0.027807  0.008540)
 11:    121.41   0.000106    0.53  0.000272  ( 0.008332  0.014188 -0.000890)
 12:    132.48   0.000929    4.70  0.002189  ( 0.023582  0.006064 -0.039950)
 13:    147.65   0.000339    1.71  0.000716  (-0.005802  0.001083 -0.026102)
 14:    156.91   0.003449   17.43  0.006859  (-0.012736  0.054500 -0.061044)
 15:    176.54   0.001156    5.84  0.002044  (-0.028160  0.034463  0.007950)
 16:    225.50   0.008814   44.54  0.012197  ( 0.056017  0.088690 -0.034537)
 17:    237.97   0.002041   10.32  0.002677  ( 0.046261  0.021748  0.007990)
 18:    278.88   0.002540   12.84  0.002843  ( 0.029931 -0.026999  0.034898)
 19:    312.91   0.000271    1.37  0.000270  ( 0.013344 -0.005224  0.008049)
 20:    368.40   0.002688   13.58  0.002277  (-0.009537  0.035264 -0.030694)
 21:    377.67   0.000755    3.81  0.000624  ( 0.021218 -0.008797  0.009800)
 22:    404.48   0.001386    7.01  0.001070  (-0.018161 -0.009375 -0.025532)
 23:    522.73   0.004651   23.51  0.002777  (-0.045800 -0.019464  0.017326)
 24:    530.82   0.003286   16.61  0.001932  (-0.026167 -0.034258 -0.008590)
 25:    547.73   0.001058    5.35  0.000603  ( 0.014741 -0.008763  0.017572)
 26:    608.86   0.001314    6.64  0.000673  (-0.005468 -0.024562 -0.006334)
 27:    619.86   0.000917    4.63  0.000461  ( 0.016840  0.001506 -0.013252)
 28:    647.79   0.001620    8.19  0.000781  ( 0.022182  0.016799 -0.002525)
 29:    710.43   0.001918    9.69  0.000842  ( 0.014313 -0.012321  0.022038)
 30:    760.52   0.002564   12.96  0.001052  (-0.010421  0.029899  0.007034)
 31:    820.30   0.004905   24.79  0.001866  (-0.020548 -0.037870 -0.003081)
 32:    823.39   0.010697   54.06  0.004054  ( 0.011712 -0.059132 -0.020499)
 33:    872.90   0.010529   53.21  0.003764  (-0.048851 -0.033662 -0.015641)
 34:    920.99   0.000963    4.87  0.000326  ( 0.012468 -0.013049 -0.000720)
 35:    965.37   0.004007   20.25  0.001295  ( 0.031976 -0.016517  0.000100)
 36:    977.52   0.002599   13.14  0.000830  ( 0.004513  0.020746 -0.019468)
 37:   1005.99   0.019076   96.40  0.005917  (-0.050817  0.057742  0.000936)
 38:   1024.57   0.001574    7.95  0.000479  (-0.020790 -0.002482 -0.006403)
 39:   1043.78   0.001231    6.22  0.000368  (-0.015973 -0.002945 -0.010216)
 40:   1050.74   0.001104    5.58  0.000328  (-0.005585  0.015021  0.008422)
 41:   1088.74   0.002786   14.08  0.000799  (-0.024129 -0.014567  0.002038)
 42:   1149.54   0.001900    9.60  0.000516  ( 0.016659  0.015390 -0.001154)
 43:   1173.83   0.000149    0.75  0.000040  (-0.003483  0.004687 -0.002337)
 44:   1185.26   0.004239   21.42  0.001116  ( 0.013567  0.023651 -0.019301)
 45:   1204.27   0.002611   13.20  0.000677  (-0.014385 -0.019799  0.008815)
 46:   1250.41   0.000248    1.26  0.000062  (-0.006213 -0.002746 -0.003981)
 47:   1295.92   0.000823    4.16  0.000198  ( 0.009894 -0.008049 -0.005949)
 48:   1316.71   0.002448   12.37  0.000580  ( 0.013236  0.011996 -0.016156)
 49:   1337.33   0.001732    8.75  0.000404  ( 0.005040 -0.014484  0.013000)
 50:   1387.91   0.015324   77.44  0.003445  (-0.040015 -0.001830 -0.042906)
 51:   1401.73   0.004060   20.52  0.000904  ( 0.028462  0.006959  0.006738)
 52:   1403.03   0.011055   55.87  0.002459  ( 0.013763 -0.023263  0.041574)
 53:   1411.62   0.112256  567.30  0.024816  ( 0.129189  0.003985  0.090058)
 54:   1448.98   0.002360   11.93  0.000508  ( 0.008287 -0.009421  0.018731)
 55:   1458.05   0.002349   11.87  0.000503  ( 0.014247  0.003478  0.016960)
 56:   1475.26   0.001213    6.13  0.000257  (-0.004084  0.011357  0.010534)
 57:   1484.25   0.009469   47.85  0.001991  (-0.008465 -0.003544 -0.043664)
 58:   1486.83   0.001672    8.45  0.000351  ( 0.014379 -0.011669 -0.002835)
 59:   1494.32   0.002566   12.97  0.000536  ( 0.006920  0.015040 -0.016179)
 60:   1508.05   0.000754    3.81  0.000156  ( 0.003097  0.012064 -0.000976)
 61:   1574.88   0.067729  342.27  0.013420  (-0.107850 -0.024335 -0.034592)
 62:   1679.93   0.100666  508.72  0.018700  ( 0.037680  0.104705 -0.079478)
 63:   1684.51   0.041315  208.79  0.007654  (-0.069410 -0.003429 -0.053145)
 64:   1721.77   0.119222  602.50  0.021609  ( 0.019357 -0.144556  0.018366)
 65:   1770.23   0.070365  355.60  0.012404  (-0.045631  0.043918 -0.091615)
 66:   2658.63   0.331099  1673.24  0.038864  ( 0.075695  0.155599 -0.094461)
 67:   3047.82   0.013599   68.72  0.001392  ( 0.018326  0.003176  0.032349)
 68:   3080.50   0.002835   14.32  0.000287  ( 0.015790  0.006024 -0.001234)
 69:   3082.65   0.004141   20.93  0.000419  (-0.005417  0.016481 -0.010873)
 70:   3092.28   0.001987   10.04  0.000201  (-0.004085  0.008958  0.010180)
 71:   3107.64   0.005993   30.29  0.000602  (-0.015594  0.018811  0.002185)
 72:   3131.92   0.003379   17.07  0.000337  ( 0.011893 -0.001534 -0.013888)
 73:   3146.22   0.000499    2.52  0.000050  (-0.005311 -0.001166 -0.004466)
 74:   3159.21   0.000995    5.03  0.000098  ( 0.001639 -0.008930 -0.003978)
 75:   3167.60   0.002602   13.15  0.000256  (-0.013875 -0.007850  0.001476)
 76:   3173.91   0.002521   12.74  0.000248  (-0.003358  0.006178 -0.014088)
 77:   3505.12   0.024215  122.37  0.002156  ( 0.011926 -0.017780  0.041201)

* The epsilon (eps) is given for a Dirac delta lineshape.
** The dipole moment derivative (T) already includes vibrational overlap.

The first frequency considered to be a vibration is 6
The total number of vibrations considered is 72


--------------------------
THERMOCHEMISTRY AT 298.15K
--------------------------

Temperature         ... 298.15 K
Pressure            ... 1.00 atm
Total Mass          ... 200.19 AMU

Throughout the following assumptions are being made:
  (1) The electronic state is orbitally nondegenerate
      but the spin degeneracy is treated
  (2) There are no thermally accessible electronically excited states
  (3) Hindered rotations indicated by low frequency modes are not
      treated as such but are treated as vibrations and this may
      cause some error
  (4) All equations used are the standard statistical mechanics
      equations for an ideal gas
  (5) All vibrations are strictly harmonic

freq.      30.61  E(vib)   ...       0.55 
freq.      43.92  E(vib)   ...       0.53 
freq.      55.71  E(vib)   ...       0.52 
freq.      81.12  E(vib)   ...       0.48 
freq.     109.04  E(vib)   ...       0.45 
freq.     121.41  E(vib)   ...       0.44 
freq.     132.48  E(vib)   ...       0.42 
freq.     147.65  E(vib)   ...       0.41 
freq.     156.91  E(vib)   ...       0.40 
freq.     176.54  E(vib)   ...       0.38 
freq.     225.50  E(vib)   ...       0.33 
freq.     237.97  E(vib)   ...       0.32 
freq.     278.88  E(vib)   ...       0.28 
freq.     312.91  E(vib)   ...       0.25 
freq.     368.40  E(vib)   ...       0.21 
freq.     377.67  E(vib)   ...       0.21 
freq.     404.48  E(vib)   ...       0.19 
freq.     522.73  E(vib)   ...       0.13 
freq.     530.82  E(vib)   ...       0.13 
freq.     547.73  E(vib)   ...       0.12 
freq.     608.86  E(vib)   ...       0.10 
freq.     619.86  E(vib)   ...       0.09 
freq.     647.79  E(vib)   ...       0.09 
freq.     710.43  E(vib)   ...       0.07 
freq.     760.52  E(vib)   ...       0.06 
freq.     820.30  E(vib)   ...       0.05 
freq.     823.39  E(vib)   ...       0.05 
freq.     872.90  E(vib)   ...       0.04 
freq.     920.99  E(vib)   ...       0.03 
freq.     965.37  E(vib)   ...       0.03 
freq.     977.52  E(vib)   ...       0.03 
freq.    1005.99  E(vib)   ...       0.02 
freq.    1024.57  E(vib)   ...       0.02 
freq.    1043.78  E(vib)   ...       0.02 
freq.    1050.74  E(vib)   ...       0.02 
freq.    1088.74  E(vib)   ...       0.02 
freq.    1149.54  E(vib)   ...       0.01 
freq.    1173.83  E(vib)   ...       0.01 
freq.    1185.26  E(vib)   ...       0.01 
freq.    1204.27  E(vib)   ...       0.01 
freq.    1250.41  E(vib)   ...       0.01 
freq.    1295.92  E(vib)   ...       0.01 
freq.    1316.71  E(vib)   ...       0.01 
freq.    1337.33  E(vib)   ...       0.01 
freq.    1387.91  E(vib)   ...       0.00 
freq.    1401.73  E(vib)   ...       0.00 
freq.    1403.03  E(vib)   ...       0.00 
freq.    1411.62  E(vib)   ...       0.00 
freq.    1448.98  E(vib)   ...       0.00 
freq.    1458.05  E(vib)   ...       0.00 
freq.    1475.26  E(vib)   ...       0.00 
freq.    1484.25  E(vib)   ...       0.00 
freq.    1486.83  E(vib)   ...       0.00 
freq.    1494.32  E(vib)   ...       0.00 
freq.    1508.05  E(vib)   ...       0.00 
freq.    1574.88  E(vib)   ...       0.00 
freq.    1679.93  E(vib)   ...       0.00 
freq.    1684.51  E(vib)   ...       0.00 
freq.    1721.77  E(vib)   ...       0.00 
freq.    1770.23  E(vib)   ...       0.00 
freq.    2658.63  E(vib)   ...       0.00 
freq.    3047.82  E(vib)   ...       0.00 
freq.    3080.50  E(vib)   ...       0.00 
freq.    3082.65  E(vib)   ...       0.00 
freq.    3092.28  E(vib)   ...       0.00 
freq.    3107.64  E(vib)   ...       0.00 
freq.    3131.92  E(vib)   ...       0.00 
freq.    3146.22  E(vib)   ...       0.00 
freq.    3159.21  E(vib)   ...       0.00 
freq.    3167.60  E(vib)   ...       0.00 
freq.    3173.91  E(vib)   ...       0.00 
freq.    3505.12  E(vib)   ...       0.00 

------------
INNER ENERGY
------------

The inner energy is: U= E(el) + E(ZPE) + E(vib) + E(rot) + E(trans)
    E(el)   - is the total energy from the electronic structure calculation
              = E(kin-el) + E(nuc-el) + E(el-el) + E(nuc-nuc)
    E(ZPE)  - the the zero temperature vibrational energy from the frequency calculation
    E(vib)  - the the finite temperature correction to E(ZPE) due to population
              of excited vibrational states
    E(rot)  - is the rotational thermal energy
    E(trans)- is the translational thermal energy

Summary of contributions to the inner energy U:
Electronic energy                ...   -722.56361163 Eh
Zero point energy                ...      0.20608840 Eh     129.32 kcal/mol
Thermal vibrational correction   ...      0.01206857 Eh       7.57 kcal/mol
Thermal rotational correction    ...      0.00141627 Eh       0.89 kcal/mol
Thermal translational correction ...      0.00141627 Eh       0.89 kcal/mol
-----------------------------------------------------------------------
Total thermal energy                   -722.34262212 Eh


Summary of corrections to the electronic energy:
(perhaps to be used in another calculation)
Total thermal correction                  0.01490112 Eh       9.35 kcal/mol
Non-thermal (ZPE) correction              0.20608840 Eh     129.32 kcal/mol
-----------------------------------------------------------------------
Total correction                          0.22098952 Eh     138.67 kcal/mol


--------
ENTHALPY
--------

The enthalpy is H = U + kB*T
                kB is Boltzmann's constant
Total free energy                 ...   -722.34262212 Eh 
Thermal Enthalpy correction       ...      0.00094421 Eh       0.59 kcal/mol
-----------------------------------------------------------------------
Total Enthalpy                    ...   -722.34167791 Eh


Note: Only C1 symmetry has been detected, increase convergence thresholds 
      if your molecule has a higher symmetry. Symmetry factor of 1.0 is   
      used for the rotational entropy correction. 
 

Note: Rotational entropy computed according to Herzberg 
Infrared and Raman Spectra, Chapter V,1, Van Nostrand Reinhold, 1945 
Point Group:  C1, Symmetry Number:   1  
Rotational constants in cm-1:     0.027251     0.016780     0.011118 

Vibrational entropy computed according to the QRRHO of S. Grimme
Chem.Eur.J. 2012 18 9955


-------
ENTROPY
-------

The entropy contributions are T*S = T*(S(el)+S(vib)+S(rot)+S(trans))
     S(el)   - electronic entropy
     S(vib)  - vibrational entropy
     S(rot)  - rotational entropy
     S(trans)- translational entropy
The entropies will be listed as multiplied by the temperature to get
units of energy

Electronic entropy                ...      0.00065446 Eh      0.41 kcal/mol
Vibrational entropy               ...      0.02186778 Eh     13.72 kcal/mol
Rotational entropy                ...      0.01526533 Eh      9.58 kcal/mol
Translational entropy             ...      0.01985430 Eh     12.46 kcal/mol
-----------------------------------------------------------------------
Final entropy term                ...      0.05764186 Eh     36.17 kcal/mol

In case the symmetry of your molecule has not been determined correctly
or in case you have a reason to use a different symmetry number we print 
out the resulting rotational entropy values for sn=1,12 :
 --------------------------------------------------------
|  sn= 1 | S(rot)=       0.01526533 Eh      9.58 kcal/mol|
|  sn= 2 | S(rot)=       0.01461087 Eh      9.17 kcal/mol|
|  sn= 3 | S(rot)=       0.01422804 Eh      8.93 kcal/mol|
|  sn= 4 | S(rot)=       0.01395641 Eh      8.76 kcal/mol|
|  sn= 5 | S(rot)=       0.01374573 Eh      8.63 kcal/mol|
|  sn= 6 | S(rot)=       0.01357358 Eh      8.52 kcal/mol|
|  sn= 7 | S(rot)=       0.01342804 Eh      8.43 kcal/mol|
|  sn= 8 | S(rot)=       0.01330196 Eh      8.35 kcal/mol|
|  sn= 9 | S(rot)=       0.01319075 Eh      8.28 kcal/mol|
|  sn=10 | S(rot)=       0.01309127 Eh      8.21 kcal/mol|
|  sn=11 | S(rot)=       0.01300128 Eh      8.16 kcal/mol|
|  sn=12 | S(rot)=       0.01291913 Eh      8.11 kcal/mol|
 --------------------------------------------------------


-------------------
GIBBS FREE ENERGY
-------------------

The Gibbs free energy is G = H - T*S

Total enthalpy                    ...   -722.34167791 Eh 
Total entropy correction          ...     -0.05764186 Eh    -36.17 kcal/mol
-----------------------------------------------------------------------
Final Gibbs free energy         ...   -722.39931977 Eh

For completeness - the Gibbs free energy minus the electronic energy
G-E(el)                           ...      0.16429186 Eh    103.09 kcal/mol


Timings for individual modules:

Sum of individual times         ...     1635.579 sec (=  27.260 min)
GTO integral calculation        ...       50.045 sec (=   0.834 min)   3.1 %
SCF iterations                  ...      766.404 sec (=  12.773 min)  46.9 %
SCF Gradient evaluation         ...      188.523 sec (=   3.142 min)  11.5 %
Geometry relaxation             ...        0.586 sec (=   0.010 min)   0.0 %
Analytical frequency calculation...      630.021 sec (=  10.500 min)  38.5 %
                             ****ORCA TERMINATED NORMALLY****
TOTAL RUN TIME: 0 days 0 hours 27 minutes 58 seconds 623 msec
