
                                 *****************
                                 * O   R   C   A *
                                 *****************

                                            #,                                       
                                            ###                                      
                                            ####                                     
                                            #####                                    
                                            ######                                   
                                           ########,                                 
                                     ,,################,,,,,                         
                               ,,#################################,,                 
                          ,,##########################################,,             
                       ,#########################################, ''#####,          
                    ,#############################################,,   '####,        
                  ,##################################################,,,,####,       
                ,###########''''           ''''###############################       
              ,#####''   ,,,,##########,,,,          '''####'''          '####       
            ,##' ,,,,###########################,,,                        '##       
           ' ,,###''''                  '''############,,,                           
         ,,##''                                '''############,,,,        ,,,,,,###''
      ,#''                                            '''#######################'''  
     '                                                          ''''####''''         
             ,#######,   #######,   ,#######,      ##                                
            ,#'     '#,  ##    ##  ,#'     '#,    #''#        ######   ,####,        
            ##       ##  ##   ,#'  ##            #'  '#       #        #'  '#        
            ##       ##  #######   ##           ,######,      #####,   #    #        
            '#,     ,#'  ##    ##  '#,     ,#' ,#      #,         ##   #,  ,#        
             '#######'   ##     ##  '#######'  #'      '#     #####' # '####'        



                  #######################################################
                  #                        -***-                        #
                  #          Department of theory and spectroscopy      #
                  #    Directorship and core code : Frank Neese         #
                  #        Max Planck Institute fuer Kohlenforschung    #
                  #                Kaiser Wilhelm Platz 1               #
                  #                 D-45470 Muelheim/Ruhr               #
                  #                      Germany                        #
                  #                                                     #
                  #                  All rights reserved                #
                  #                        -***-                        #
                  #######################################################


                         Program Version 5.0.4 -  RELEASE  -


 With contributions from (in alphabetic order):
   Daniel Aravena         : Magnetic Suceptibility
   Michael Atanasov       : Ab Initio Ligand Field Theory (pilot matlab implementation)
   Alexander A. Auer      : GIAO ZORA, VPT2 properties, NMR spectrum
   Ute Becker             : Parallelization
   Giovanni Bistoni       : ED, misc. LED, open-shell LED, HFLD
   Martin Brehm           : Molecular dynamics
   Dmytro Bykov           : SCF Hessian
   Vijay G. Chilkuri      : MRCI spin determinant printing, contributions to CSF-ICE
   Dipayan Datta          : RHF DLPNO-CCSD density
   Achintya Kumar Dutta   : EOM-CC, STEOM-CC
   Dmitry Ganyushin       : Spin-Orbit,Spin-Spin,Magnetic field MRCI
   Miquel Garcia          : C-PCM and meta-GGA Hessian, CC/C-PCM, Gaussian charge scheme
   Yang Guo               : DLPNO-NEVPT2, F12-NEVPT2, CIM, IAO-localization
   Andreas Hansen         : Spin unrestricted coupled pair/coupled cluster methods
   Benjamin Helmich-Paris : MC-RPA, TRAH-SCF, COSX integrals
   Lee Huntington         : MR-EOM, pCC
   Robert Izsak           : Overlap fitted RIJCOSX, COSX-SCS-MP3, EOM
   Marcus Kettner         : VPT2
   Christian Kollmar      : KDIIS, OOCD, Brueckner-CCSD(T), CCSD density, CASPT2, CASPT2-K
   Simone Kossmann        : Meta GGA functionals, TD-DFT gradient, OOMP2, MP2 Hessian
   Martin Krupicka        : Initial AUTO-CI
   Lucas Lang             : DCDCAS
   Marvin Lechner         : AUTO-CI (C++ implementation), FIC-MRCC
   Dagmar Lenk            : GEPOL surface, SMD
   Dimitrios Liakos       : Extrapolation schemes; Compound Job, initial MDCI parallelization
   Dimitrios Manganas     : Further ROCIS development; embedding schemes
   Dimitrios Pantazis     : SARC Basis sets
   Anastasios Papadopoulos: AUTO-CI, single reference methods and gradients
   Taras Petrenko         : DFT Hessian,TD-DFT gradient, ASA, ECA, R-Raman, ABS, FL, XAS/XES, NRVS
   Peter Pinski           : DLPNO-MP2, DLPNO-MP2 Gradient
   Christoph Reimann      : Effective Core Potentials
   Marius Retegan         : Local ZFS, SOC
   Christoph Riplinger    : Optimizer, TS searches, QM/MM, DLPNO-CCSD(T), (RO)-DLPNO pert. Triples
   Tobias Risthaus        : Range-separated hybrids, TD-DFT gradient, RPA, STAB
   Michael Roemelt        : Original ROCIS implementation
   Masaaki Saitow         : Open-shell DLPNO-CCSD energy and density
   Barbara Sandhoefer     : DKH picture change effects
   Avijit Sen             : IP-ROCIS
   Kantharuban Sivalingam : CASSCF convergence, NEVPT2, FIC-MRCI
   Bernardo de Souza      : ESD, SOC TD-DFT
   Georgi Stoychev        : AutoAux, RI-MP2 NMR, DLPNO-MP2 response
   Willem Van den Heuvel  : Paramagnetic NMR
   Boris Wezisla          : Elementary symmetry handling
   Frank Wennmohs         : Technical directorship


 We gratefully acknowledge several colleagues who have allowed us to
 interface, adapt or use parts of their codes:
   Stefan Grimme, W. Hujo, H. Kruse, P. Pracht,  : VdW corrections, initial TS optimization,
                  C. Bannwarth, S. Ehlert          DFT functionals, gCP, sTDA/sTD-DF
   Ed Valeev, F. Pavosevic, A. Kumar             : LibInt (2-el integral package), F12 methods
   Garnet Chan, S. Sharma, J. Yang, R. Olivares  : DMRG
   Ulf Ekstrom                                   : XCFun DFT Library
   Mihaly Kallay                                 : mrcc  (arbitrary order and MRCC methods)
   Jiri Pittner, Ondrej Demel                    : Mk-CCSD
   Frank Weinhold                                : gennbo (NPA and NBO analysis)
   Christopher J. Cramer and Donald G. Truhlar   : smd solvation model
   Lars Goerigk                                  : TD-DFT with DH, B97 family of functionals
   V. Asgeirsson, H. Jonsson                     : NEB implementation
   FAccTs GmbH                                   : IRC, NEB, NEB-TS, DLPNO-Multilevel, CI-OPT
                                                   MM, QMMM, 2- and 3-layer-ONIOM, Crystal-QMMM,
                                                   LR-CPCM, SF, NACMEs, symmetry and pop. for TD-DFT,
                                                   nearIR, NL-DFT gradient (VV10), updates on ESD,
                                                   ML-optimized integration grids
   S Lehtola, MJT Oliveira, MAL Marques          : LibXC Library
   Liviu Ungur et al                             : ANISO software


 Your calculation uses the libint2 library for the computation of 2-el integrals
 For citations please refer to: http://libint.valeyev.net

 Your ORCA version has been built with support for libXC version: 5.1.0
 For citations please refer to: https://tddft.org/programs/libxc/

 This ORCA versions uses:
   CBLAS   interface :  Fast vector & matrix operations
   LAPACKE interface :  Fast linear algebra routines
   SCALAPACK package :  Parallel linear algebra routines
   Shared memory     :  Shared parallel matrices
   BLAS/LAPACK       :  OpenBLAS 0.3.15  USE64BITINT DYNAMIC_ARCH NO_AFFINITY Zen SINGLE_THREADED
        Core in use  :  Zen
   Copyright (c) 2011-2014, The OpenBLAS Project




***************************************
The coordinates will be read from file: model.xyz
***************************************


================================================================================

----- Orbital basis set information -----
Your calculation utilizes the basis: EPR-II
   V. Barone, in Recent Advances in Density Functional Methods, Part 1 (ed. D. P. Chong), World Scientific, Singapore, 1995, p. 287.

----- AuxJ basis set information -----
Your calculation utilizes the auxiliary basis: def2/J
   F. Weigend, Phys. Chem. Chem. Phys. 8, 1057 (2006).

================================================================================
                                        WARNINGS
                       Please study these warnings very carefully!
================================================================================


WARNING: your system is open-shell and RHF/RKS was chosen
  ===> : WILL SWITCH to UHF/UKS


WARNING: Geometry Optimization
  ===> : Switching off AutoStart
         For restart on a previous wavefunction, please use MOREAD

INFO   : the flag for use of the SHARK integral package has been found!

================================================================================
                                       INPUT FILE
================================================================================
NAME = opt.inp
|  1> ! B3LYP EPR-II OPT
|  2> %pal nprocs 16 end
|  3> *XYZFile -1 2 model.xyz
|  4> 
|  5>                          ****END OF INPUT****
================================================================================

                       *****************************
                       * Geometry Optimization Run *
                       *****************************

Geometry optimization settings:
Update method            Update   .... BFGS
Choice of coordinates    CoordSys .... Z-matrix Internals
Initial Hessian          InHess   .... Almoef's Model

Convergence Tolerances:
Energy Change            TolE     ....  5.0000e-06 Eh
Max. Gradient            TolMAXG  ....  3.0000e-04 Eh/bohr
RMS Gradient             TolRMSG  ....  1.0000e-04 Eh/bohr
Max. Displacement        TolMAXD  ....  4.0000e-03 bohr
RMS Displacement         TolRMSD  ....  2.0000e-03 bohr
Strict Convergence                ....  False
------------------------------------------------------------------------------
                        ORCA OPTIMIZATION COORDINATE SETUP
------------------------------------------------------------------------------

The optimization will be done in new redundant internal coordinates
Making redundant internal coordinates   ...  (new redundants) done
Evaluating the initial hessian          ...  (Almloef) done
Evaluating the coordinates              ...  done
Calculating the B-matrix                .... done
Calculating the G-matrix                .... done
Diagonalizing the G-matrix              .... done
Small eigenvalue found = 6.857e-03
Small eigenvalue found = 1.032e-02
Small eigenvalue found = 2.451e-02
Small eigenvalue found = 2.746e-02
The first mode is                       ....   44
The number of degrees of freedom        ....   72

    -----------------------------------------------------------------
                    Redundant Internal Coordinates


    -----------------------------------------------------------------
         Definition                    Initial Value    Approx d2E/dq
    -----------------------------------------------------------------
      1. B(C   1,N   0)                  1.3780         0.584727   
      2. B(C   2,C   1)                  1.4807         0.447718   
      3. B(O   3,C   2)                  1.2427         0.961410   
      4. B(C   4,C   1)                  1.4994         0.418072   
      5. B(H   5,C   4)                  1.0960         0.352283   
      6. B(H   6,C   4)                  1.0943         0.354409   
      7. B(C   7,C   4)                  1.5539         0.342169   
      8. B(H   8,C   7)                  1.0986         0.348856   
      9. B(H   9,C   7)                  1.0967         0.351330   
     10. B(C  10,C   7)                  1.5646         0.329004   
     11. B(O  11,C  10)                  1.2608         0.899536   
     12. B(O  12,C  10)                  1.2349         0.989124   
     13. B(H  13,N   0)                  1.0198         0.417365   
     14. B(C  14,N   0)                  1.3648         0.613867   
     15. B(N  15,C   2)                  1.3458         0.658345   
     16. B(H  16,N  15)                  1.0447         0.380924   
     17. B(O  17,C  14)                  1.2175         1.054782   
     18. B(C  18,C  14)                  1.5291         0.374776   
     19. B(H  19,C  18)                  1.0955         0.352875   
     20. B(H  20,C  18)                  1.0977         0.350120   
     21. B(H  21,C  18)                  1.0952         0.353250   
     22. B(C  22,N  15)                  1.4441         0.458761   
     23. B(H  23,C  22)                  1.0980         0.349692   
     24. B(H  24,C  22)                  1.0946         0.354011   
     25. B(H  25,C  22)                  1.1009         0.345957   
     26. A(C   1,N   0,H  13)          109.4560         0.352951   
     27. A(C   1,N   0,C  14)          131.9967         0.423188   
     28. A(H  13,N   0,C  14)          118.4883         0.355873   
     29. A(N   0,C   1,C   2)          110.1072         0.402729   
     30. A(C   2,C   1,C   4)          126.1616         0.382201   
     31. A(N   0,C   1,C   4)          123.7036         0.397902   
     32. A(C   1,C   2,N  15)          116.6639         0.411264   
     33. A(C   1,C   2,O   3)          119.9212         0.440102   
     34. A(O   3,C   2,N  15)          123.4128         0.468966   
     35. A(C   1,C   4,C   7)          115.3305         0.364891   
     36. A(H   5,C   4,H   6)          108.9219         0.289116   
     37. A(H   6,C   4,C   7)          108.7671         0.318858   
     38. A(C   1,C   4,H   5)          108.1777         0.329193   
     39. A(C   1,C   4,H   6)          107.9828         0.329521   
     40. A(H   5,C   4,C   7)          107.5235         0.318545   
     41. A(H   8,C   7,C  10)          105.9989         0.316013   
     42. A(C   4,C   7,C  10)          116.2950         0.350329   
     43. A(H   8,C   7,H   9)          105.9441         0.288280   
     44. A(C   4,C   7,H   9)          110.9794         0.318404   
     45. A(C   4,C   7,H   8)          108.4851         0.318038   
     46. A(H   9,C   7,C  10)          108.5387         0.316376   
     47. A(O  11,C  10,O  12)          127.6158         0.499414   
     48. A(C   7,C  10,O  12)          115.0533         0.418566   
     49. A(C   7,C  10,O  11)          117.3060         0.411560   
     50. A(O  17,C  14,C  18)          120.6731         0.433401   
     51. A(N   0,C  14,C  18)          114.2137         0.393688   
     52. A(N   0,C  14,O  17)          125.1089         0.470927   
     53. A(C   2,N  15,H  16)          117.9625         0.354583   
     54. A(H  16,N  15,C  22)          118.0661         0.333734   
     55. A(C   2,N  15,C  22)          119.4013         0.410379   
     56. A(H  19,C  18,H  20)          107.7619         0.288642   
     57. A(C  14,C  18,H  20)          108.4374         0.322997   
     58. A(C  14,C  18,H  19)          108.1497         0.323412   
     59. A(H  20,C  18,H  21)          109.1080         0.288689   
     60. A(H  19,C  18,H  21)          109.6372         0.289044   
     61. A(C  14,C  18,H  21)          113.5813         0.323468   
     62. A(H  24,C  22,H  25)          109.1083         0.288247   
     63. A(H  23,C  22,H  25)          107.4859         0.287694   
     64. A(N  15,C  22,H  25)          111.8780         0.331282   
     65. A(H  23,C  22,H  24)          109.4519         0.288732   
     66. A(N  15,C  22,H  24)          108.2578         0.332547   
     67. A(N  15,C  22,H  23)          110.6307         0.331872   
     68. D(C   4,C   1,N   0,H  13)    177.6167         0.027452   
     69. D(C   2,C   1,N   0,C  14)   -177.6633         0.027452   
     70. D(C   4,C   1,N   0,C  14)      0.5284         0.027452   
     71. D(C   2,C   1,N   0,H  13)     -0.5750         0.027452   
     72. D(N  15,C   2,C   1,N   0)   -173.1869         0.013667   
     73. D(O   3,C   2,C   1,C   4)   -170.8171         0.013667   
     74. D(N  15,C   2,C   1,C   4)      8.6763         0.013667   
     75. D(O   3,C   2,C   1,N   0)      7.3196         0.013667   
     76. D(H   6,C   4,C   1,C   2)    144.0126         0.012928   
     77. D(C   7,C   4,C   1,C   2)    -94.1258         0.012928   
     78. D(H   5,C   4,C   1,C   2)     26.2752         0.012928   
     79. D(C   7,C   4,C   1,N   0)     87.9775         0.012928   
     80. D(H   6,C   4,C   1,N   0)    -33.8841         0.012928   
     81. D(H   5,C   4,C   1,N   0)   -151.6215         0.012928   
     82. D(H   8,C   7,C   4,C   1)   -155.0692         0.009469   
     83. D(C  10,C   7,C   4,H   5)    -35.1242         0.009469   
     84. D(C  10,C   7,C   4,C   1)     85.6334         0.009469   
     85. D(H   9,C   7,C   4,H   6)     82.3713         0.009469   
     86. D(H   9,C   7,C   4,H   5)   -159.8251         0.009469   
     87. D(H   9,C   7,C   4,C   1)    -39.0675         0.009469   
     88. D(H   8,C   7,C   4,H   6)    -33.6303         0.009469   
     89. D(C  10,C   7,C   4,H   6)   -152.9277         0.009469   
     90. D(H   8,C   7,C   4,H   5)     84.1732         0.009469   
     91. D(O  12,C  10,C   7,H   9)    -51.9110         0.008284   
     92. D(O  12,C  10,C   7,H   8)     61.5148         0.008284   
     93. D(O  12,C  10,C   7,C   4)   -177.8494         0.008284   
     94. D(O  11,C  10,C   7,H   9)    129.7619         0.008284   
     95. D(O  11,C  10,C   7,H   8)   -116.8123         0.008284   
     96. D(O  11,C  10,C   7,C   4)      3.8235         0.008284   
     97. D(O  17,C  14,N   0,H  13)   -177.6078         0.030467   
     98. D(O  17,C  14,N   0,C   1)     -0.7317         0.030467   
     99. D(C  18,C  14,N   0,H  13)      1.6411         0.030467   
    100. D(C  18,C  14,N   0,C   1)    178.5172         0.030467   
    101. D(C  22,N  15,C   2,O   3)     -4.1057         0.035451   
    102. D(C  22,N  15,C   2,C   1)    176.4203         0.035451   
    103. D(H  16,N  15,C   2,O   3)   -159.6904         0.035451   
    104. D(H  16,N  15,C   2,C   1)     20.8356         0.035451   
    105. D(H  21,C  18,C  14,N   0)     11.2172         0.010500   
    106. D(H  20,C  18,C  14,O  17)     69.0347         0.010500   
    107. D(H  20,C  18,C  14,N   0)   -110.2509         0.010500   
    108. D(H  19,C  18,C  14,O  17)    -47.5611         0.010500   
    109. D(H  21,C  18,C  14,O  17)   -169.4972         0.010500   
    110. D(H  19,C  18,C  14,N   0)    133.1534         0.010500   
    111. D(H  25,C  22,N  15,H  16)     95.6312         0.017964   
    112. D(H  25,C  22,N  15,C   2)    -59.9284         0.017964   
    113. D(H  24,C  22,N  15,H  16)    -24.6293         0.017964   
    114. D(H  24,C  22,N  15,C   2)    179.8111         0.017964   
    115. D(H  23,C  22,N  15,H  16)   -144.5567         0.017964   
    116. D(H  23,C  22,N  15,C   2)     59.8837         0.017964   
    -----------------------------------------------------------------

Number of atoms                         .... 26
Number of degrees of freedom            .... 116

         *************************************************************
         *                GEOMETRY OPTIMIZATION CYCLE   1            *
         *************************************************************
---------------------------------
CARTESIAN COORDINATES (ANGSTROEM)
---------------------------------
  N     -3.763979   -0.062109    0.128676
  C     -2.419802    0.240419    0.154470
  C     -1.827862   -0.180947    1.444657
  O     -2.504642   -0.841477    2.250841
  C     -1.685563    0.865768   -0.993542
  H     -0.638554    0.545508   -0.944903
  H     -2.128334    0.491682   -1.921758
  C     -1.698705    2.419318   -1.023984
  H     -1.553954    2.748611   -2.062065
  H     -2.676695    2.809795   -0.717651
  C     -0.590987    3.138385   -0.185041
  O      0.265518    2.410733    0.386377
  O     -0.647916    4.372001   -0.191939
  H     -4.027318   -0.514004    1.004171
  C     -4.715595    0.088886   -0.837925
  N     -0.550663    0.178766    1.669259
  H     -0.163533    0.979264    1.120875
  O     -4.524578    0.571322   -1.939270
  C     -6.099874   -0.425325   -0.440955
  H     -6.837682    0.338577   -0.709751
  H     -6.318613   -1.324515   -1.031250
  H     -6.189456   -0.664976    0.623971
  C      0.060797   -0.133289    2.939739
  H      0.062683   -1.217638    3.112225
  H      1.091463    0.235115    2.923990
  H     -0.476260    0.334282    3.779348

----------------------------
CARTESIAN COORDINATES (A.U.)
----------------------------
  NO LB      ZA    FRAG     MASS         X           Y           Z
   0 N     7.0000    0    14.007   -7.112889   -0.117369    0.243162
   1 C     6.0000    0    12.011   -4.572763    0.454326    0.291906
   2 C     6.0000    0    12.011   -3.454159   -0.341940    2.730006
   3 O     8.0000    0    15.999   -4.733087   -1.590161    4.253473
   4 C     6.0000    0    12.011   -3.185252    1.636064   -1.877522
   5 H     1.0000    0     1.008   -1.206692    1.030861   -1.785608
   6 H     1.0000    0     1.008   -4.021968    0.929144   -3.631596
   7 C     6.0000    0    12.011   -3.210087    4.571848   -1.935049
   8 H     1.0000    0     1.008   -2.936547    5.194122   -3.896738
   9 H     1.0000    0     1.008   -5.058220    5.309743   -1.356164
  10 C     6.0000    0    12.011   -1.116804    5.930688   -0.349677
  11 O     8.0000    0    15.999    0.501756    4.555625    0.730147
  12 O     8.0000    0    15.999   -1.224384    8.261885   -0.362712
  13 H     1.0000    0     1.008   -7.610528   -0.971327    1.897608
  14 C     6.0000    0    12.011   -8.911183    0.167970   -1.583449
  15 N     7.0000    0    14.007   -1.040602    0.337819    3.154442
  16 H     1.0000    0     1.008   -0.309033    1.850541    2.118147
  17 O     8.0000    0    15.999   -8.550213    1.079642   -3.664689
  18 C     6.0000    0    12.011  -11.527091   -0.803748   -0.833284
  19 H     1.0000    0     1.008  -12.921346    0.639818   -1.341235
  20 H     1.0000    0     1.008  -11.940448   -2.502971   -1.948780
  21 H     1.0000    0     1.008  -11.696377   -1.256623    1.179134
  22 C     6.0000    0    12.011    0.114890   -0.251880    5.555302
  23 H     1.0000    0     1.008    0.118454   -2.301002    5.881253
  24 H     1.0000    0     1.008    2.062566    0.444303    5.525540
  25 H     1.0000    0     1.008   -0.900001    0.631701    7.141933

--------------------------------
INTERNAL COORDINATES (ANGSTROEM)
--------------------------------
 N      0   0   0     0.000000000000     0.00000000     0.00000000
 C      1   0   0     1.378042208551     0.00000000     0.00000000
 C      2   1   0     1.480717651858   110.10722247     0.00000000
 O      3   2   1     1.242684067314   119.92120824     7.31961911
 C      2   1   3     1.499366477238   123.70355878   178.19178053
 H      5   2   1     1.095974482368   108.17770886   208.37849194
 H      5   2   1     1.094336071092   107.98276759   326.11593932
 C      5   2   1     1.553903803338   115.33048356    87.97746574
 H      8   5   2     1.098635014193   108.48506940   204.93078668
 H      8   5   2     1.096711737203   110.97939429   320.93247633
 C      8   5   2     1.564583610825   116.29499545    85.63339279
 O     11   8   5     1.260792123569   117.30600613     3.82348635
 O     11   8   5     1.234948148264   115.05333862   182.15056631
 H      1   2   3     1.019827443723   109.45597892   359.42495441
 C      1   2   3     1.364804013286   131.99672879   182.33665692
 N      3   2   1     1.345762529711   116.66387857   186.81308387
 H     16   3   2     1.044696939959   117.96247248    20.83559541
 O     15   1   2     1.217453406669   125.10891447   359.26831442
 C     15   1   2     1.529126052117   114.21370371   178.51720111
 H     19  15   1     1.095517320759   108.14970549   133.15335206
 H     19  15   1     1.097650943263   108.43740831   249.74905923
 H     19  15   1     1.095228251097   113.58133330    11.21720860
 C     16   3   2     1.444084860742   119.40129150   176.42026263
 H     23  16   3     1.097983483935   110.63073974    59.88367082
 H     23  16   3     1.094642380768   108.25779408   179.81108671
 H     23  16   3     1.100906959816   111.87796155   300.07162604

---------------------------
INTERNAL COORDINATES (A.U.)
---------------------------
 N      0   0   0     0.000000000000     0.00000000     0.00000000
 C      1   0   0     2.604122375146     0.00000000     0.00000000
 C      2   1   0     2.798150843675   110.10722247     0.00000000
 O      3   2   1     2.348332558211   119.92120824     7.31961911
 C      2   1   3     2.833392016363   123.70355878   178.19178053
 H      5   2   1     2.071091621442   108.17770886   208.37849194
 H      5   2   1     2.067995472835   107.98276759   326.11593932
 C      5   2   1     2.936452626767   115.33048356    87.97746574
 H      8   5   2     2.076119297962   108.48506940   204.93078668
 H      8   5   2     2.072484831170   110.97939429   320.93247633
 C      8   5   2     2.956634538081   116.29499545    85.63339279
 O     11   8   5     2.382551825350   117.30600613     3.82348635
 O     11   8   5     2.333713789812   115.05333862   182.15056631
 H      1   2   3     1.927194572494   109.45597892   359.42495441
 C      1   2   3     2.579105811587   131.99672879   182.33665692
 N      3   2   1     2.543122622447   116.66387857   186.81308387
 H     16   3   2     1.974191109468   117.96247248    20.83559541
 O     15   1   2     2.300653519414   125.10891447   359.26831442
 C     15   1   2     2.889629462745   114.21370371   178.51720111
 H     19  15   1     2.070227711203   108.14970549   133.15335206
 H     19  15   1     2.074259673407   108.43740831   249.74905923
 H     19  15   1     2.069681448707   113.58133330    11.21720860
 C     16   3   2     2.728924900945   119.40129150   176.42026263
 H     23  16   3     2.074888084205   110.63073974    59.88367082
 H     23  16   3     2.068574314235   108.25779408   179.81108671
 H     23  16   3     2.080412652980   111.87796155   300.07162604

---------------------
BASIS SET INFORMATION
---------------------
There are 4 groups of distinct atoms

 Group   1 Type N   : 10s5p1d contracted to 6s2p1d pattern {511111/41/1}
 Group   2 Type C   : 10s5p1d contracted to 6s2p1d pattern {511111/41/1}
 Group   3 Type O   : 10s5p1d contracted to 6s2p1d pattern {511111/41/1}
 Group   4 Type H   : 6s1p contracted to 4s1p pattern {3111/1}

Atom   0N    basis set group =>   1
Atom   1C    basis set group =>   2
Atom   2C    basis set group =>   2
Atom   3O    basis set group =>   3
Atom   4C    basis set group =>   2
Atom   5H    basis set group =>   4
Atom   6H    basis set group =>   4
Atom   7C    basis set group =>   2
Atom   8H    basis set group =>   4
Atom   9H    basis set group =>   4
Atom  10C    basis set group =>   2
Atom  11O    basis set group =>   3
Atom  12O    basis set group =>   3
Atom  13H    basis set group =>   4
Atom  14C    basis set group =>   2
Atom  15N    basis set group =>   1
Atom  16H    basis set group =>   4
Atom  17O    basis set group =>   3
Atom  18C    basis set group =>   2
Atom  19H    basis set group =>   4
Atom  20H    basis set group =>   4
Atom  21H    basis set group =>   4
Atom  22C    basis set group =>   2
Atom  23H    basis set group =>   4
Atom  24H    basis set group =>   4
Atom  25H    basis set group =>   4
---------------------------------
AUXILIARY/J BASIS SET INFORMATION
---------------------------------
There are 4 groups of distinct atoms

 Group   1 Type N   : 12s5p4d2f1g contracted to 6s4p3d1f1g pattern {711111/2111/211/2/1}
 Group   2 Type C   : 12s5p4d2f1g contracted to 6s4p3d1f1g pattern {711111/2111/211/2/1}
 Group   3 Type O   : 12s5p4d2f1g contracted to 6s4p3d1f1g pattern {711111/2111/211/2/1}
 Group   4 Type H   : 5s2p1d contracted to 3s1p1d pattern {311/2/1}

Atom   0N    basis set group =>   1
Atom   1C    basis set group =>   2
Atom   2C    basis set group =>   2
Atom   3O    basis set group =>   3
Atom   4C    basis set group =>   2
Atom   5H    basis set group =>   4
Atom   6H    basis set group =>   4
Atom   7C    basis set group =>   2
Atom   8H    basis set group =>   4
Atom   9H    basis set group =>   4
Atom  10C    basis set group =>   2
Atom  11O    basis set group =>   3
Atom  12O    basis set group =>   3
Atom  13H    basis set group =>   4
Atom  14C    basis set group =>   2
Atom  15N    basis set group =>   1
Atom  16H    basis set group =>   4
Atom  17O    basis set group =>   3
Atom  18C    basis set group =>   2
Atom  19H    basis set group =>   4
Atom  20H    basis set group =>   4
Atom  21H    basis set group =>   4
Atom  22C    basis set group =>   2
Atom  23H    basis set group =>   4
Atom  24H    basis set group =>   4
Atom  25H    basis set group =>   4


           ************************************************************
           *        Program running with 16 parallel MPI-processes    *
           *              working on a common directory               *
           ************************************************************
------------------------------------------------------------------------------
                           ORCA GTO INTEGRAL CALCULATION
                           -- RI-GTO INTEGRALS CHOSEN --
------------------------------------------------------------------------------
------------------------------------------------------------------------------
                   ___                                                        
                  /   \      - P O W E R E D   B Y -                         
                 /     \                                                     
                 |  |  |   _    _      __       _____    __    __             
                 |  |  |  | |  | |    /  \     |  _  \  |  |  /  |          
                  \  \/   | |  | |   /    \    | | | |  |  | /  /          
                 / \  \   | |__| |  /  /\  \   | |_| |  |  |/  /          
                |  |  |   |  __  | /  /__\  \  |    /   |      \           
                |  |  |   | |  | | |   __   |  |    \   |  |\   \          
                \     /   | |  | | |  |  |  |  | |\  \  |  | \   \       
                 \___/    |_|  |_| |__|  |__|  |_| \__\ |__|  \__/        
                                                                              
                      - O R C A' S   B I G   F R I E N D -                    
                                      &                                       
                       - I N T E G R A L  F E E D E R -                       
                                                                              
 v1 FN, 2020, v2 2021                                                         
------------------------------------------------------------------------------


Reading SHARK input file opt.SHARKINP.tmp ... ok
----------------------
SHARK INTEGRAL PACKAGE
----------------------

Number of atoms                             ...     26
Number of basis functions                   ...    322
Number of shells                            ...    186
Maximum angular momentum                    ...      2
Integral batch strategy                     ... SHARK/LIBINT Hybrid
RI-J (if used) integral strategy            ... SPLIT-RIJ (Revised 2003 algorithm where possible)
Printlevel                                  ...      1
Contraction scheme used                     ... SEGMENTED contraction
Coulomb Range Separation                    ... NOT USED
Exchange Range Separation                   ... NOT USED
Finite Nucleus Model                        ... NOT USED
Auxiliary Coulomb fitting basis             ... AVAILABLE
   # of basis functions in Aux-J            ...    818
   # of shells in Aux-J                     ...    270
   Maximum angular momentum in Aux-J        ...      4
Auxiliary J/K fitting basis                 ... NOT available
Auxiliary Correlation fitting basis         ... NOT available
Auxiliary 'external' fitting basis          ... NOT available
Integral threshold                          ...     2.500000e-11
Primitive cut-off                           ...     2.500000e-12
Primitive pair pre-selection threshold      ...     2.500000e-12

Calculating pre-screening integrals         ... done (  0.0 sec) Dimension = 186
Organizing shell pair data                  ... done (  0.0 sec)
Shell pair information
Total number of shell pairs                 ...     17391
Shell pairs after pre-screening             ...     12359
Total number of primitive shell pairs       ...     47846
Primitive shell pairs kept                  ...     24729
          la=0 lb=0:   5574 shell pairs
          la=1 lb=0:   4199 shell pairs
          la=1 lb=1:    733 shell pairs
          la=2 lb=0:   1293 shell pairs
          la=2 lb=1:    477 shell pairs
          la=2 lb=2:     83 shell pairs

Calculating one electron integrals          ... done (  0.0 sec)
Calculating RI/J V-Matrix + Cholesky decomp.... done (  0.0 sec)
Calculating Nuclear repulsion               ... done (  0.0 sec) ENN=    915.955443984548 Eh

SHARK setup successfully completed in   0.3 seconds

Maximum memory used throughout the entire GTOINT-calculation: 19.3 MB


           ************************************************************
           *        Program running with 16 parallel MPI-processes    *
           *              working on a common directory               *
           ************************************************************
-------------------------------------------------------------------------------
                                 ORCA SCF
-------------------------------------------------------------------------------

------------
SCF SETTINGS
------------
Hamiltonian:
 Density Functional     Method          .... DFT(GTOs)
 Exchange Functional    Exchange        .... B88
   X-Alpha parameter    XAlpha          ....  0.666667
   Becke's b parameter  XBeta           ....  0.004200
 Correlation Functional Correlation     .... LYP
 LDA part of GGA corr.  LDAOpt          .... VWN-5
 Gradients option       PostSCFGGA      .... off
 Hybrid DFT is turned on
   Fraction HF Exchange ScalHFX         ....  0.200000
   Scaling of DF-GGA-X  ScalDFX         ....  0.720000
   Scaling of DF-GGA-C  ScalDFC         ....  0.810000
   Scaling of DF-LDA-C  ScalLDAC        ....  1.000000
   Perturbative correction              ....  0.000000
   Density functional embedding theory  .... OFF
   NL short-range parameter             ....  4.800000
 RI-approximation to the Coulomb term is turned on
   Number of AuxJ basis functions       .... 818
   RIJ-COSX (HFX calculated with COS-X)).... on


General Settings:
 Integral files         IntName         .... opt
 Hartree-Fock type      HFTyp           .... UHF
 Total Charge           Charge          ....   -1
 Multiplicity           Mult            ....    2
 Number of Electrons    NEL             ....  107
 Basis Dimension        Dim             ....  322
 Nuclear Repulsion      ENuc            ....    915.9554439845 Eh

Convergence Acceleration:
 DIIS                   CNVDIIS         .... on
   Start iteration      DIISMaxIt       ....    12
   Startup error        DIISStart       ....  0.200000
   # of expansion vecs  DIISMaxEq       ....     5
   Bias factor          DIISBfac        ....   1.050
   Max. coefficient     DIISMaxC        ....  10.000
 Trust-Rad. Augm. Hess. CNVTRAH         .... auto
   Auto Start mean grad. ratio tolernc. ....  1.125000
   Auto Start start iteration           ....    20
   Auto Start num. interpolation iter.  ....    10
   Max. Number of Micro iterations      ....    16
   Max. Number of Macro iterations      .... Maxiter - #DIIS iter
   Number of Davidson start vectors     ....     2
   Converg. threshold I  (grad. norm)   ....   1.000e-05
   Converg. threshold II (energy diff.) ....   1.000e-08
   Grad. Scal. Fac. for Micro threshold ....   0.100
   Minimum threshold for Micro iter.    ....   0.010
   NR start threshold (gradient norm)   ....   0.001
   Initial trust radius                 ....   0.400
   Minimum AH scaling param. (alpha)    ....   1.000
   Maximum AH scaling param. (alpha)    .... 1000.000
   Orbital update algorithm             .... Taylor
   White noise on init. David. guess    .... on
   Maximum white noise                  ....   0.010
   Quad. conv. algorithm                .... NR
 SOSCF                  CNVSOSCF        .... off
 Level Shifting         CNVShift        .... on
   Level shift para.    LevelShift      ....    0.2500
   Turn off err/grad.   ShiftErr        ....    0.0010
 Zerner damping         CNVZerner       .... off
 Static damping         CNVDamp         .... on
   Fraction old density DampFac         ....    0.7000
   Max. Damping (<1)    DampMax         ....    0.9800
   Min. Damping (>=0)   DampMin         ....    0.0000
   Turn off err/grad.   DampErr         ....    0.1000
 Fernandez-Rico         CNVRico         .... off

SCF Procedure:
 Maximum # iterations   MaxIter         ....   125
 SCF integral mode      SCFMode         .... Direct
   Integral package                     .... SHARK and LIBINT hybrid scheme
 Reset frequency        DirectResetFreq ....    20
 Integral Threshold     Thresh          ....  2.500e-11 Eh
 Primitive CutOff       TCut            ....  2.500e-12 Eh

Convergence Tolerance:
 Convergence Check Mode ConvCheckMode   .... Total+1el-Energy
 Convergence forced     ConvForced      .... 0
 Energy Change          TolE            ....  1.000e-08 Eh
 1-El. energy change                    ....  1.000e-05 Eh
 DIIS Error             TolErr          ....  5.000e-07


Diagonalization of the overlap matrix:
Smallest eigenvalue                        ... 6.065e-04
Time for diagonalization                   ...    0.011 sec
Threshold for overlap eigenvalues          ... 1.000e-08
Number of eigenvalues below threshold      ... 0
Time for construction of square roots      ...    0.010 sec
Total time needed                          ...    0.022 sec

Time for model grid setup =    0.104 sec

------------------------------
INITIAL GUESS: MODEL POTENTIAL
------------------------------
Loading Hartree-Fock densities                     ... done
Calculating cut-offs                               ... done
Initializing the effective Hamiltonian             ... done
Setting up the integral package (SHARK)            ... done
Starting the Coulomb interaction                   ... done (   0.1 sec)
Reading the grid                                   ... done
Mapping shells                                     ... done
Starting the XC term evaluation                    ... done (   0.0 sec)
  promolecular density results
     # of electrons  =    105.986965444
     EX              =    -90.613970462
     EC              =     -3.652895297
     EX+EC           =    -94.266865759
Transforming the Hamiltonian                       ... done (   0.0 sec)
Diagonalizing the Hamiltonian                      ... done (   0.0 sec)
Back transforming the eigenvectors                 ... done (   0.0 sec)
Now organizing SCF variables                       ... done
                      ------------------
                      INITIAL GUESS DONE (   0.3 sec)
                      ------------------
-------------------
DFT GRID GENERATION
-------------------

General Integration Accuracy     IntAcc      ... 4.388
Radial Grid Type                 RadialGrid  ... OptM3 with GC (2021)
Angular Grid (max. ang.)         AngularGrid ... 4 (Lebedev-302)
Angular grid pruning method      GridPruning ... 4 (adaptive)
Weight generation scheme         WeightScheme... Becke
Basis function cutoff            BFCut       ... 1.0000e-11
Integration weight cutoff        WCut        ... 1.0000e-14
Angular grids for H and He will be reduced by one unit
Partially contracted basis set               ... off
Rotationally invariant grid construction     ... off

Total number of grid points                  ...   122673
Total number of batches                      ...     1927
Average number of points per batch           ...       63
Average number of grid points per atom       ...     4718
Time for grid setup =    0.514 sec

--------------------
COSX GRID GENERATION
--------------------

GRIDX 1
-------
General Integration Accuracy     IntAcc      ... 3.816
Radial Grid Type                 RadialGrid  ... OptM3 with GC (2021)
Angular Grid (max. ang.)         AngularGrid ... 1 (Lebedev-50)
Angular grid pruning method      GridPruning ... 4 (adaptive)
Weight generation scheme         WeightScheme... Becke
Basis function cutoff            BFCut       ... 1.0000e-11
Integration weight cutoff        WCut        ... 1.0000e-14
Angular grids for H and He will be reduced by one unit
Partially contracted basis set               ... on
Rotationally invariant grid construction     ... off

Total number of grid points                  ...    15598
Total number of batches                      ...      258
Average number of points per batch           ...       60
Average number of grid points per atom       ...      600
UseSFitting                                  ... on

GRIDX 2
-------
General Integration Accuracy     IntAcc      ... 4.020
Radial Grid Type                 RadialGrid  ... OptM3 with GC (2021)
Angular Grid (max. ang.)         AngularGrid ... 2 (Lebedev-110)
Angular grid pruning method      GridPruning ... 4 (adaptive)
Weight generation scheme         WeightScheme... Becke
Basis function cutoff            BFCut       ... 1.0000e-11
Integration weight cutoff        WCut        ... 1.0000e-14
Angular grids for H and He will be reduced by one unit
Partially contracted basis set               ... on
Rotationally invariant grid construction     ... off

Total number of grid points                  ...    33967
Total number of batches                      ...      543
Average number of points per batch           ...       62
Average number of grid points per atom       ...     1306
UseSFitting                                  ... on

GRIDX 3
-------
General Integration Accuracy     IntAcc      ... 4.338
Radial Grid Type                 RadialGrid  ... OptM3 with GC (2021)
Angular Grid (max. ang.)         AngularGrid ... 3 (Lebedev-194)
Angular grid pruning method      GridPruning ... 4 (adaptive)
Weight generation scheme         WeightScheme... Becke
Basis function cutoff            BFCut       ... 1.0000e-11
Integration weight cutoff        WCut        ... 1.0000e-14
Angular grids for H and He will be reduced by one unit
Partially contracted basis set               ... on
Rotationally invariant grid construction     ... off

Total number of grid points                  ...    74470
Total number of batches                      ...     1177
Average number of points per batch           ...       63
Average number of grid points per atom       ...     2864
UseSFitting                                  ... on

Time for X-Grid setup             =    0.612 sec

--------------
SCF ITERATIONS
--------------
ITER       Energy         Delta-E        Max-DP      RMS-DP      [F,P]     Damp
               ***  Starting incremental Fock matrix formation  ***
  0   -721.7468285070   0.000000000000 0.06317215  0.00123938  0.1386003 0.7000
  1   -722.0274056795  -0.280577172499 0.04578259  0.00092015  0.0570714 0.7000
                               ***Turning on DIIS***
  2   -722.1252104800  -0.097804800484 0.08910318  0.00152133  0.0191615 0.0000
  3   -722.2923839424  -0.167173462400 0.03879205  0.00065094  0.0326174 0.0000
  4   -722.3254535388  -0.033069596418 0.01902905  0.00024648  0.0071222 0.0000
  5   -722.3280960198  -0.002642480970 0.00923184  0.00010122  0.0036072 0.0000
  6   -722.3283642226  -0.000268202815 0.00440259  0.00004710  0.0016192 0.0000
  7   -722.3284158480  -0.000051625324 0.00465654  0.00004901  0.0006592 0.0000
               *** Restarting incremental Fock matrix formation ***
                                   *** Resetting DIIS ***
  8   -722.3284700328  -0.000054184825 0.00118724  0.00001654  0.0003379 0.0000
  9   -722.3284688263   0.000001206525 0.00066923  0.00000868  0.0006984 0.0000
 10   -722.3284759852  -0.000007158931 0.00033652  0.00000363  0.0001294 0.0000
 11   -722.3284764982  -0.000000513061 0.00018345  0.00000242  0.0001165 0.0000
 12   -722.3284768653  -0.000000367096 0.00006806  0.00000100  0.0000566 0.0000
 13   -722.3284768996  -0.000000034310 0.00003756  0.00000044  0.0000294 0.0000
 14   -722.3284769192  -0.000000019546 0.00002187  0.00000017  0.0000114 0.0000
 15   -722.3284769109   0.000000008333 0.00001289  0.00000010  0.0000088 0.0000
                 **** Energy Check signals convergence ****

               *****************************************************
               *                     SUCCESS                       *
               *           SCF CONVERGED AFTER  16 CYCLES          *
               *****************************************************

Old exchange energy                            =    -18.416322212 Eh
New exchange energy                            =    -18.416372165 Eh
Exchange energy change after final integration =     -0.000049953 Eh
Total energy after final integration           =   -722.328526868 Eh
Final COS-X integration done in                =     1.744 sec

----------------
TOTAL SCF ENERGY
----------------

Total Energy       :         -722.32852687 Eh          -19655.55849 eV

Components:
Nuclear Repulsion  :          915.95544398 Eh           24924.41476 eV
Electronic Energy  :        -1638.28397085 Eh          -44579.97325 eV
One Electron Energy:        -2819.67639565 Eh          -76727.29547 eV
Two Electron Energy:         1181.39242480 Eh           32147.32222 eV
Max COSX asymmetry :            0.00000150 Eh               0.00004 eV

Virial components:
Potential Energy   :        -1440.22017209 Eh          -39190.38328 eV
Kinetic Energy     :          717.89164522 Eh           19534.82480 eV
Virial Ratio       :            2.00618043


DFT components:
N(Alpha)           :       54.000069984675 electrons
N(Beta)            :       53.000070681541 electrons
N(Total)           :      107.000140666216 electrons
E(X)               :      -73.257943354791 Eh       
E(C)               :       -4.335239243488 Eh       
E(XC)              :      -77.593182598279 Eh       
DFET-embed. en.    :        0.000000000000 Eh       

---------------
SCF CONVERGENCE
---------------

  Last Energy change         ...   -3.8376e-09  Tolerance :   1.0000e-08
  Last MAX-Density change    ...    0.0000e+00  Tolerance :   1.0000e-07
  Last RMS-Density change    ...    0.0000e+00  Tolerance :   5.0000e-09
  Last DIIS Error            ...    3.4173e-06  Tolerance :   5.0000e-07

             **** THE GBW FILE WAS UPDATED (opt.gbw) ****
             **** DENSITY opt.scfp WAS UPDATED ****
             **** ENERGY FILE WAS UPDATED (opt.en.tmp) ****
----------------------
UHF SPIN CONTAMINATION
----------------------

Warning: in a DFT calculation there is little theoretical justification to 
         calculate <S**2> as in Hartree-Fock theory. We will do it anyways
         but you should keep in mind that the values have only limited relevance

Expectation value of <S**2>     :     0.755822
Ideal value S*(S+1) for S=0.5   :     0.750000
Deviation                       :     0.005822

             **** THE GBW FILE WAS UPDATED (opt.gbw) ****
             **** DENSITY opt.scfp WAS UPDATED ****
----------------
ORBITAL ENERGIES
----------------
                 SPIN UP ORBITALS
  NO   OCC          E(Eh)            E(eV) 
   0   1.0000     -19.007206      -517.2124 
   1   1.0000     -18.983538      -516.5683 
   2   1.0000     -18.921963      -514.8928 
   3   1.0000     -18.913202      -514.6544 
   4   1.0000     -14.265134      -388.1740 
   5   1.0000     -14.211137      -386.7047 
   6   1.0000     -10.190448      -277.2962 
   7   1.0000     -10.159866      -276.4640 
   8   1.0000     -10.119458      -275.3644 
   9   1.0000     -10.111618      -275.1511 
  10   1.0000     -10.100835      -274.8577 
  11   1.0000     -10.095538      -274.7135 
  12   1.0000     -10.059758      -273.7399 
  13   1.0000     -10.037709      -273.1399 
  14   1.0000      -0.938283       -25.5320 
  15   1.0000      -0.910559       -24.7776 
  16   1.0000      -0.860687       -23.4205 
  17   1.0000      -0.832834       -22.6626 
  18   1.0000      -0.788455       -21.4549 
  19   1.0000      -0.771402       -20.9909 
  20   1.0000      -0.673976       -18.3398 
  21   1.0000      -0.633809       -17.2468 
  22   1.0000      -0.597205       -16.2508 
  23   1.0000      -0.561724       -15.2853 
  24   1.0000      -0.509479       -13.8636 
  25   1.0000      -0.459507       -12.5038 
  26   1.0000      -0.441762       -12.0210 
  27   1.0000      -0.420444       -11.4409 
  28   1.0000      -0.375778       -10.2254 
  29   1.0000      -0.360689        -9.8148 
  30   1.0000      -0.345760        -9.4086 
  31   1.0000      -0.339008        -9.2249 
  32   1.0000      -0.332347        -9.0436 
  33   1.0000      -0.327812        -8.9202 
  34   1.0000      -0.309867        -8.4319 
  35   1.0000      -0.306768        -8.3476 
  36   1.0000      -0.295393        -8.0380 
  37   1.0000      -0.291512        -7.9324 
  38   1.0000      -0.286990        -7.8094 
  39   1.0000      -0.268344        -7.3020 
  40   1.0000      -0.265730        -7.2309 
  41   1.0000      -0.255485        -6.9521 
  42   1.0000      -0.238383        -6.4867 
  43   1.0000      -0.232478        -6.3261 
  44   1.0000      -0.218858        -5.9554 
  45   1.0000      -0.199852        -5.4383 
  46   1.0000      -0.193861        -5.2752 
  47   1.0000      -0.152150        -4.1402 
  48   1.0000      -0.144613        -3.9351 
  49   1.0000      -0.132117        -3.5951 
  50   1.0000      -0.085769        -2.3339 
  51   1.0000      -0.078972        -2.1489 
  52   1.0000      -0.066945        -1.8217 
  53   1.0000      -0.049109        -1.3363 
  54   0.0000       0.101411         2.7595 
  55   0.0000       0.125093         3.4040 
  56   0.0000       0.126389         3.4392 
  57   0.0000       0.146677         3.9913 
  58   0.0000       0.169224         4.6048 
  59   0.0000       0.176270         4.7965 
  60   0.0000       0.181234         4.9316 
  61   0.0000       0.194738         5.2991 
  62   0.0000       0.206894         5.6299 
  63   0.0000       0.217195         5.9102 
  64   0.0000       0.224627         6.1124 
  65   0.0000       0.226513         6.1637 
  66   0.0000       0.248332         6.7575 
  67   0.0000       0.259497         7.0613 
  68   0.0000       0.275479         7.4962 
  69   0.0000       0.277531         7.5520 
  70   0.0000       0.293344         7.9823 
  71   0.0000       0.302593         8.2340 
  72   0.0000       0.305509         8.3133 
  73   0.0000       0.319504         8.6942 
  74   0.0000       0.326671         8.8892 
  75   0.0000       0.329681         8.9711 
  76   0.0000       0.335344         9.1252 
  77   0.0000       0.352641         9.5959 
  78   0.0000       0.355749         9.6804 
  79   0.0000       0.360736         9.8161 
  80   0.0000       0.365851         9.9553 
  81   0.0000       0.371341        10.1047 
  82   0.0000       0.377021        10.2593 
  83   0.0000       0.383585        10.4379 
  84   0.0000       0.392890        10.6911 
  85   0.0000       0.403541        10.9809 
  86   0.0000       0.413386        11.2488 
  87   0.0000       0.417249        11.3539 
  88   0.0000       0.421632        11.4732 
  89   0.0000       0.425117        11.5680 
  90   0.0000       0.429918        11.6987 
  91   0.0000       0.445304        12.1173 
  92   0.0000       0.450084        12.2474 
  93   0.0000       0.460080        12.5194 
  94   0.0000       0.463775        12.6199 
  95   0.0000       0.473375        12.8812 
  96   0.0000       0.486019        13.2252 
  97   0.0000       0.508828        13.8459 
  98   0.0000       0.510734        13.8978 
  99   0.0000       0.525469        14.2987 
 100   0.0000       0.531756        14.4698 
 101   0.0000       0.533724        14.5234 
 102   0.0000       0.550981        14.9930 
 103   0.0000       0.559336        15.2203 
 104   0.0000       0.568043        15.4572 
 105   0.0000       0.579809        15.7774 
 106   0.0000       0.587861        15.9965 
 107   0.0000       0.600390        16.3374 
 108   0.0000       0.614051        16.7092 
 109   0.0000       0.631337        17.1795 
 110   0.0000       0.634877        17.2759 
 111   0.0000       0.647725        17.6255 
 112   0.0000       0.663920        18.0662 
 113   0.0000       0.669469        18.2172 
 114   0.0000       0.676026        18.3956 
 115   0.0000       0.696239        18.9456 
 116   0.0000       0.715623        19.4731 
 117   0.0000       0.733418        19.9573 
 118   0.0000       0.753018        20.4907 
 119   0.0000       0.773180        21.0393 
 120   0.0000       0.780481        21.2380 
 121   0.0000       0.802889        21.8477 
 122   0.0000       0.833805        22.6890 
 123   0.0000       0.845314        23.0022 
 124   0.0000       0.867421        23.6037 
 125   0.0000       0.882254        24.0074 
 126   0.0000       0.901914        24.5423 
 127   0.0000       0.909383        24.7456 
 128   0.0000       0.913856        24.8673 
 129   0.0000       0.928993        25.2792 
 130   0.0000       0.940660        25.5967 
 131   0.0000       0.950879        25.8747 
 132   0.0000       0.957069        26.0432 
 133   0.0000       0.964182        26.2367 
 134   0.0000       0.976699        26.5773 
 135   0.0000       0.984699        26.7950 
 136   0.0000       0.998870        27.1806 
 137   0.0000       1.006612        27.3913 
 138   0.0000       1.012261        27.5450 
 139   0.0000       1.018807        27.7232 
 140   0.0000       1.025300        27.8998 
 141   0.0000       1.040772        28.3209 
 142   0.0000       1.045189        28.4410 
 143   0.0000       1.053414        28.6649 
 144   0.0000       1.062609        28.9150 
 145   0.0000       1.076878        29.3033 
 146   0.0000       1.084844        29.5201 
 147   0.0000       1.099798        29.9270 
 148   0.0000       1.101127        29.9632 
 149   0.0000       1.114239        30.3200 
 150   0.0000       1.122108        30.5341 
 151   0.0000       1.134669        30.8759 
 152   0.0000       1.149305        31.2742 
 153   0.0000       1.160520        31.5794 
 154   0.0000       1.170602        31.8537 
 155   0.0000       1.188409        32.3382 
 156   0.0000       1.196221        32.5508 
 157   0.0000       1.204260        32.7696 
 158   0.0000       1.216363        33.0989 
 159   0.0000       1.240354        33.7518 
 160   0.0000       1.262789        34.3622 
 161   0.0000       1.277156        34.7532 
 162   0.0000       1.305495        35.5243 
 163   0.0000       1.323155        36.0049 
 164   0.0000       1.328719        36.1563 
 165   0.0000       1.356639        36.9160 
 166   0.0000       1.362490        37.0752 
 167   0.0000       1.394586        37.9486 
 168   0.0000       1.426430        38.8151 
 169   0.0000       1.440972        39.2108 
 170   0.0000       1.447258        39.3819 
 171   0.0000       1.487906        40.4880 
 172   0.0000       1.489091        40.5202 
 173   0.0000       1.497154        40.7396 
 174   0.0000       1.512085        41.1459 
 175   0.0000       1.525953        41.5233 
 176   0.0000       1.555176        42.3185 
 177   0.0000       1.573486        42.8167 
 178   0.0000       1.581367        43.0312 
 179   0.0000       1.595330        43.4111 
 180   0.0000       1.606241        43.7080 
 181   0.0000       1.614871        43.9429 
 182   0.0000       1.638091        44.5747 
 183   0.0000       1.644794        44.7571 
 184   0.0000       1.652581        44.9690 
 185   0.0000       1.661300        45.2063 
 186   0.0000       1.676255        45.6132 
 187   0.0000       1.684526        45.8383 
 188   0.0000       1.702147        46.3178 
 189   0.0000       1.720206        46.8092 
 190   0.0000       1.728933        47.0466 
 191   0.0000       1.733233        47.1637 
 192   0.0000       1.755896        47.7804 
 193   0.0000       1.765939        48.0536 
 194   0.0000       1.788847        48.6770 
 195   0.0000       1.816250        49.4227 
 196   0.0000       1.827199        49.7206 
 197   0.0000       1.831060        49.8257 
 198   0.0000       1.848261        50.2937 
 199   0.0000       1.866451        50.7887 
 200   0.0000       1.875766        51.0422 
 201   0.0000       1.892418        51.4953 
 202   0.0000       1.902530        51.7705 
 203   0.0000       1.918805        52.2133 
 204   0.0000       1.931849        52.5683 
 205   0.0000       1.949445        53.0471 
 206   0.0000       1.970158        53.6107 
 207   0.0000       1.975157        53.7467 
 208   0.0000       1.997340        54.3504 
 209   0.0000       2.011797        54.7438 
 210   0.0000       2.028935        55.2101 
 211   0.0000       2.060249        56.0622 
 212   0.0000       2.094128        56.9841 
 213   0.0000       2.105984        57.3067 
 214   0.0000       2.128771        57.9268 
 215   0.0000       2.136642        58.1410 
 216   0.0000       2.156150        58.6718 
 217   0.0000       2.157933        58.7203 
 218   0.0000       2.192334        59.6564 
 219   0.0000       2.203748        59.9670 
 220   0.0000       2.236395        60.8554 
 221   0.0000       2.257506        61.4299 
 222   0.0000       2.264084        61.6088 
 223   0.0000       2.276823        61.9555 
 224   0.0000       2.327607        63.3374 
 225   0.0000       2.339800        63.6692 
 226   0.0000       2.378833        64.7313 
 227   0.0000       2.384886        64.8960 
 228   0.0000       2.391927        65.0876 
 229   0.0000       2.403425        65.4005 
 230   0.0000       2.424365        65.9703 
 231   0.0000       2.466295        67.1113 
 232   0.0000       2.480387        67.4948 
 233   0.0000       2.486390        67.6581 
 234   0.0000       2.500430        68.0402 
 235   0.0000       2.526465        68.7486 
 236   0.0000       2.577908        70.1484 
 237   0.0000       2.586166        70.3732 
 238   0.0000       2.609766        71.0153 
 239   0.0000       2.622411        71.3594 
 240   0.0000       2.630752        71.5864 
 241   0.0000       2.661257        72.4165 
 242   0.0000       2.674227        72.7694 
 243   0.0000       2.689430        73.1831 
 244   0.0000       2.742032        74.6145 
 245   0.0000       2.796640        76.1005 
 246   0.0000       2.830714        77.0277 
 247   0.0000       2.835768        77.1652 
 248   0.0000       2.851595        77.5958 
 249   0.0000       2.861188        77.8569 
 250   0.0000       2.869638        78.0868 
 251   0.0000       2.879023        78.3422 
 252   0.0000       2.909008        79.1581 
 253   0.0000       2.935369        79.8755 
 254   0.0000       2.984596        81.2150 
 255   0.0000       3.024269        82.2946 
 256   0.0000       3.140620        85.4606 
 257   0.0000       3.164562        86.1121 
 258   0.0000       3.195863        86.9638 
 259   0.0000       3.220759        87.6413 
 260   0.0000       3.279205        89.2317 
 261   0.0000       3.369487        91.6884 
 262   0.0000       3.390138        92.2504 
 263   0.0000       3.490686        94.9864 
 264   0.0000       3.517199        95.7078 
 265   0.0000       3.546114        96.4947 
 266   0.0000       3.573218        97.2322 
 267   0.0000       3.595904        97.8495 
 268   0.0000       3.602951        98.0413 
 269   0.0000       3.703701       100.7828 
 270   0.0000       5.069809       137.9565 
 271   0.0000       5.088206       138.4571 
 272   0.0000       5.101278       138.8128 
 273   0.0000       5.109695       139.0419 
 274   0.0000       5.132853       139.6720 
 275   0.0000       5.178810       140.9226 
 276   0.0000       5.184251       141.0706 
 277   0.0000       5.265216       143.2738 
 278   0.0000       5.319612       144.7540 
 279   0.0000       5.347191       145.5045 
 280   0.0000       5.378739       146.3629 
 281   0.0000       5.409578       147.2021 
 282   0.0000       5.440416       148.0412 
 283   0.0000       5.454170       148.4155 
 284   0.0000       5.476333       149.0186 
 285   0.0000       5.683679       154.6608 
 286   0.0000       5.763876       156.8430 
 287   0.0000       5.793418       157.6469 
 288   0.0000       5.847046       159.1062 
 289   0.0000       5.955306       162.0521 
 290   0.0000       7.464736       203.1258 
 291   0.0000       7.509955       204.3563 
 292   0.0000       9.169831       249.5238 
 293   0.0000       9.184773       249.9304 
 294   0.0000       9.254408       251.8252 
 295   0.0000       9.334021       253.9916 
 296   0.0000      29.696985       808.0960 
 297   0.0000      29.745990       809.4295 
 298   0.0000      29.773530       810.1790 
 299   0.0000      30.006452       816.5171 
 300   0.0000      30.142347       820.2150 
 301   0.0000      30.159574       820.6837 
 302   0.0000      30.259840       823.4121 
 303   0.0000      30.352813       825.9420 
 304   0.0000      36.691201       998.4183 
 305   0.0000      36.720298       999.2101 
 306   0.0000      36.731587       999.5173 
 307   0.0000      36.747197       999.9421 
 308   0.0000      36.796359      1001.2798 
 309   0.0000      36.804980      1001.5144 
 310   0.0000      36.868474      1003.2422 
 311   0.0000      36.915269      1004.5155 
 312   0.0000      36.984939      1006.4114 
 313   0.0000      37.013050      1007.1763 
 314   0.0000      37.016623      1007.2735 
 315   0.0000      37.066001      1008.6172 
 316   0.0000      41.401602      1126.5949 
 317   0.0000      41.451981      1127.9658 
 318   0.0000      53.711227      1461.5568 
 319   0.0000      53.725207      1461.9372 
 320   0.0000      53.788733      1463.6658 
 321   0.0000      53.870585      1465.8932 

                 SPIN DOWN ORBITALS
  NO   OCC          E(Eh)            E(eV) 
   0   1.0000     -19.004374      -517.1353 
   1   1.0000     -18.981631      -516.5165 
   2   1.0000     -18.921968      -514.8929 
   3   1.0000     -18.912985      -514.6485 
   4   1.0000     -14.264592      -388.1593 
   5   1.0000     -14.209352      -386.6561 
   6   1.0000     -10.189509      -277.2706 
   7   1.0000     -10.160339      -276.4769 
   8   1.0000     -10.111640      -275.1517 
   9   1.0000     -10.109368      -275.0899 
  10   1.0000     -10.100967      -274.8613 
  11   1.0000     -10.095649      -274.7166 
  12   1.0000     -10.060335      -273.7556 
  13   1.0000     -10.036692      -273.1123 
  14   1.0000      -0.933240       -25.3947 
  15   1.0000      -0.906813       -24.6756 
  16   1.0000      -0.860469       -23.4145 
  17   1.0000      -0.826905       -22.5012 
  18   1.0000      -0.785251       -21.3678 
  19   1.0000      -0.770689       -20.9715 
  20   1.0000      -0.665524       -18.1098 
  21   1.0000      -0.631821       -17.1927 
  22   1.0000      -0.593858       -16.1597 
  23   1.0000      -0.555586       -15.1183 
  24   1.0000      -0.506997       -13.7961 
  25   1.0000      -0.455924       -12.4063 
  26   1.0000      -0.439218       -11.9517 
  27   1.0000      -0.417135       -11.3508 
  28   1.0000      -0.374067       -10.1789 
  29   1.0000      -0.353122        -9.6089 
  30   1.0000      -0.343800        -9.3553 
  31   1.0000      -0.335335        -9.1249 
  32   1.0000      -0.328883        -8.9494 
  33   1.0000      -0.324432        -8.8282 
  34   1.0000      -0.308103        -8.3839 
  35   1.0000      -0.301420        -8.2021 
  36   1.0000      -0.292617        -7.9625 
  37   1.0000      -0.287063        -7.8114 
  38   1.0000      -0.282887        -7.6977 
  39   1.0000      -0.267171        -7.2701 
  40   1.0000      -0.258228        -7.0267 
  41   1.0000      -0.249760        -6.7963 
  42   1.0000      -0.235886        -6.4188 
  43   1.0000      -0.231544        -6.3006 
  44   1.0000      -0.214173        -5.8279 
  45   1.0000      -0.193038        -5.2528 
  46   1.0000      -0.185135        -5.0378 
  47   1.0000      -0.149471        -4.0673 
  48   1.0000      -0.140263        -3.8168 
  49   1.0000      -0.120943        -3.2910 
  50   1.0000      -0.085248        -2.3197 
  51   1.0000      -0.078462        -2.1351 
  52   1.0000      -0.062569        -1.7026 
  53   0.0000       0.039698         1.0802 
  54   0.0000       0.101682         2.7669 
  55   0.0000       0.125508         3.4152 
  56   0.0000       0.140339         3.8188 
  57   0.0000       0.147517         4.0141 
  58   0.0000       0.169985         4.6255 
  59   0.0000       0.177293         4.8244 
  60   0.0000       0.182146         4.9564 
  61   0.0000       0.206725         5.6253 
  62   0.0000       0.211481         5.7547 
  63   0.0000       0.222729         6.0608 
  64   0.0000       0.226752         6.1702 
  65   0.0000       0.228327         6.2131 
  66   0.0000       0.248857         6.7717 
  67   0.0000       0.260436         7.0868 
  68   0.0000       0.276626         7.5274 
  69   0.0000       0.279373         7.6021 
  70   0.0000       0.295189         8.0325 
  71   0.0000       0.304291         8.2802 
  72   0.0000       0.306442         8.3387 
  73   0.0000       0.322673         8.7804 
  74   0.0000       0.328019         8.9259 
  75   0.0000       0.332195         9.0395 
  76   0.0000       0.336295         9.1511 
  77   0.0000       0.353856         9.6289 
  78   0.0000       0.357232         9.7208 
  79   0.0000       0.362654         9.8683 
  80   0.0000       0.367069         9.9885 
  81   0.0000       0.372339        10.1319 
  82   0.0000       0.378432        10.2977 
  83   0.0000       0.385359        10.4862 
  84   0.0000       0.395748        10.7689 
  85   0.0000       0.405004        11.0207 
  86   0.0000       0.415272        11.3001 
  87   0.0000       0.421473        11.4689 
  88   0.0000       0.423560        11.5257 
  89   0.0000       0.426557        11.6072 
  90   0.0000       0.432832        11.7780 
  91   0.0000       0.450563        12.2605 
  92   0.0000       0.454298        12.3621 
  93   0.0000       0.461144        12.5484 
  94   0.0000       0.467903        12.7323 
  95   0.0000       0.476655        12.9704 
  96   0.0000       0.488563        13.2945 
  97   0.0000       0.510508        13.8916 
  98   0.0000       0.513094        13.9620 
  99   0.0000       0.526398        14.3240 
 100   0.0000       0.533326        14.5125 
 101   0.0000       0.535042        14.5592 
 102   0.0000       0.552559        15.0359 
 103   0.0000       0.562116        15.2959 
 104   0.0000       0.570990        15.5374 
 105   0.0000       0.581795        15.8314 
 106   0.0000       0.589604        16.0439 
 107   0.0000       0.602809        16.4033 
 108   0.0000       0.615007        16.7352 
 109   0.0000       0.633953        17.2507 
 110   0.0000       0.641452        17.4548 
 111   0.0000       0.651320        17.7233 
 112   0.0000       0.666308        18.1312 
 113   0.0000       0.670587        18.2476 
 114   0.0000       0.678452        18.4616 
 115   0.0000       0.698627        19.0106 
 116   0.0000       0.717760        19.5312 
 117   0.0000       0.736125        20.0310 
 118   0.0000       0.757685        20.6177 
 119   0.0000       0.776928        21.1413 
 120   0.0000       0.784293        21.3417 
 121   0.0000       0.805691        21.9240 
 122   0.0000       0.837818        22.7982 
 123   0.0000       0.847045        23.0493 
 124   0.0000       0.870311        23.6824 
 125   0.0000       0.885167        24.0866 
 126   0.0000       0.904499        24.6127 
 127   0.0000       0.911279        24.7972 
 128   0.0000       0.916700        24.9447 
 129   0.0000       0.931171        25.3385 
 130   0.0000       0.942310        25.6416 
 131   0.0000       0.951902        25.9026 
 132   0.0000       0.960182        26.1279 
 133   0.0000       0.965083        26.2612 
 134   0.0000       0.977229        26.5918 
 135   0.0000       0.986849        26.8535 
 136   0.0000       1.000116        27.2145 
 137   0.0000       1.009068        27.4581 
 138   0.0000       1.015182        27.6245 
 139   0.0000       1.020613        27.7723 
 140   0.0000       1.026795        27.9405 
 141   0.0000       1.041840        28.3499 
 142   0.0000       1.046718        28.4827 
 143   0.0000       1.055470        28.7208 
 144   0.0000       1.064112        28.9560 
 145   0.0000       1.080418        29.3997 
 146   0.0000       1.087371        29.5889 
 147   0.0000       1.102181        29.9919 
 148   0.0000       1.102552        30.0020 
 149   0.0000       1.118528        30.4367 
 150   0.0000       1.123666        30.5765 
 151   0.0000       1.136417        30.9235 
 152   0.0000       1.155872        31.4529 
 153   0.0000       1.163332        31.6559 
 154   0.0000       1.173841        31.9418 
 155   0.0000       1.189452        32.3666 
 156   0.0000       1.198917        32.6242 
 157   0.0000       1.205312        32.7982 
 158   0.0000       1.218697        33.1624 
 159   0.0000       1.244435        33.8628 
 160   0.0000       1.264648        34.4128 
 161   0.0000       1.279975        34.8299 
 162   0.0000       1.307482        35.5784 
 163   0.0000       1.325043        36.0562 
 164   0.0000       1.330287        36.1990 
 165   0.0000       1.358946        36.9788 
 166   0.0000       1.365853        37.1668 
 167   0.0000       1.397225        38.0204 
 168   0.0000       1.428341        38.8671 
 169   0.0000       1.443833        39.2887 
 170   0.0000       1.449141        39.4331 
 171   0.0000       1.489585        40.5337 
 172   0.0000       1.492014        40.5998 
 173   0.0000       1.497881        40.7594 
 174   0.0000       1.515632        41.2425 
 175   0.0000       1.526500        41.5382 
 176   0.0000       1.556458        42.3534 
 177   0.0000       1.575870        42.8816 
 178   0.0000       1.583062        43.0773 
 179   0.0000       1.598448        43.4960 
 180   0.0000       1.610428        43.8220 
 181   0.0000       1.616373        43.9837 
 182   0.0000       1.640719        44.6462 
 183   0.0000       1.647366        44.8271 
 184   0.0000       1.655923        45.0600 
 185   0.0000       1.664673        45.2981 
 186   0.0000       1.680755        45.7357 
 187   0.0000       1.686532        45.8929 
 188   0.0000       1.704305        46.3765 
 189   0.0000       1.722908        46.8827 
 190   0.0000       1.732167        47.1347 
 191   0.0000       1.736733        47.2589 
 192   0.0000       1.759355        47.8745 
 193   0.0000       1.768273        48.1172 
 194   0.0000       1.793824        48.8124 
 195   0.0000       1.818702        49.4894 
 196   0.0000       1.829342        49.7789 
 197   0.0000       1.833461        49.8910 
 198   0.0000       1.852497        50.4090 
 199   0.0000       1.870031        50.8861 
 200   0.0000       1.876989        51.0755 
 201   0.0000       1.895200        51.5710 
 202   0.0000       1.904988        51.8373 
 203   0.0000       1.920625        52.2629 
 204   0.0000       1.933374        52.6098 
 205   0.0000       1.952394        53.1273 
 206   0.0000       1.974270        53.7226 
 207   0.0000       1.976520        53.7838 
 208   0.0000       1.999450        54.4078 
 209   0.0000       2.013212        54.7823 
 210   0.0000       2.030077        55.2412 
 211   0.0000       2.064862        56.1878 
 212   0.0000       2.095492        57.0212 
 213   0.0000       2.108160        57.3660 
 214   0.0000       2.129765        57.9539 
 215   0.0000       2.137923        58.1758 
 216   0.0000       2.158250        58.7290 
 217   0.0000       2.159652        58.7671 
 218   0.0000       2.197618        59.8002 
 219   0.0000       2.204881        59.9979 
 220   0.0000       2.239034        60.9272 
 221   0.0000       2.258983        61.4701 
 222   0.0000       2.266471        61.6738 
 223   0.0000       2.278716        62.0070 
 224   0.0000       2.329385        63.3858 
 225   0.0000       2.342355        63.7387 
 226   0.0000       2.381360        64.8001 
 227   0.0000       2.388932        65.0062 
 228   0.0000       2.394380        65.1544 
 229   0.0000       2.406376        65.4808 
 230   0.0000       2.430140        66.1275 
 231   0.0000       2.468362        67.1675 
 232   0.0000       2.480907        67.5089 
 233   0.0000       2.488882        67.7259 
 234   0.0000       2.504177        68.1421 
 235   0.0000       2.528562        68.8057 
 236   0.0000       2.578876        70.1748 
 237   0.0000       2.588469        70.4358 
 238   0.0000       2.610854        71.0449 
 239   0.0000       2.624327        71.4116 
 240   0.0000       2.632481        71.6335 
 241   0.0000       2.662688        72.4554 
 242   0.0000       2.676305        72.8259 
 243   0.0000       2.691571        73.2414 
 244   0.0000       2.745283        74.7030 
 245   0.0000       2.801184        76.2241 
 246   0.0000       2.835301        77.1525 
 247   0.0000       2.838469        77.2387 
 248   0.0000       2.857844        77.7659 
 249   0.0000       2.863874        77.9300 
 250   0.0000       2.873164        78.1828 
 251   0.0000       2.882499        78.4368 
 252   0.0000       2.910629        79.2022 
 253   0.0000       2.935802        79.8872 
 254   0.0000       2.986766        81.2740 
 255   0.0000       3.026233        82.3480 
 256   0.0000       3.143527        85.5397 
 257   0.0000       3.166525        86.1655 
 258   0.0000       3.202482        87.1440 
 259   0.0000       3.228073        87.8403 
 260   0.0000       3.280357        89.2631 
 261   0.0000       3.370141        91.7062 
 262   0.0000       3.390373        92.2567 
 263   0.0000       3.492030        95.0230 
 264   0.0000       3.518115        95.7328 
 265   0.0000       3.549158        96.5775 
 266   0.0000       3.575312        97.2892 
 267   0.0000       3.596860        97.8755 
 268   0.0000       3.603769        98.0636 
 269   0.0000       3.704002       100.7910 
 270   0.0000       5.071141       137.9928 
 271   0.0000       5.092682       138.5789 
 272   0.0000       5.102203       138.8380 
 273   0.0000       5.111080       139.0796 
 274   0.0000       5.134006       139.7034 
 275   0.0000       5.179891       140.9520 
 276   0.0000       5.186167       141.1228 
 277   0.0000       5.269410       143.3879 
 278   0.0000       5.321068       144.7936 
 279   0.0000       5.347825       145.5217 
 280   0.0000       5.379406       146.3811 
 281   0.0000       5.410289       147.2214 
 282   0.0000       5.441744       148.0774 
 283   0.0000       5.456591       148.4814 
 284   0.0000       5.476807       149.0315 
 285   0.0000       5.685125       154.7001 
 286   0.0000       5.764285       156.8542 
 287   0.0000       5.794564       157.6781 
 288   0.0000       5.854701       159.3145 
 289   0.0000       5.959402       162.1636 
 290   0.0000       7.467063       203.1891 
 291   0.0000       7.513909       204.4639 
 292   0.0000       9.170599       249.5447 
 293   0.0000       9.190575       250.0883 
 294   0.0000       9.258450       251.9352 
 295   0.0000       9.334387       254.0016 
 296   0.0000      29.699477       808.1639 
 297   0.0000      29.748226       809.4904 
 298   0.0000      29.775809       810.2410 
 299   0.0000      30.007174       816.5367 
 300   0.0000      30.142972       820.2320 
 301   0.0000      30.159747       820.6884 
 302   0.0000      30.266475       823.5926 
 303   0.0000      30.353595       825.9633 
 304   0.0000      36.693041       998.4684 
 305   0.0000      36.720971       999.2284 
 306   0.0000      36.733744       999.5760 
 307   0.0000      36.748135       999.9676 
 308   0.0000      36.799273      1001.3591 
 309   0.0000      36.806551      1001.5572 
 310   0.0000      36.868093      1003.2318 
 311   0.0000      36.915004      1004.5083 
 312   0.0000      36.986233      1006.4466 
 313   0.0000      37.014664      1007.2202 
 314   0.0000      37.018189      1007.3161 
 315   0.0000      37.068627      1008.6886 
 316   0.0000      41.402384      1126.6161 
 317   0.0000      41.454221      1128.0267 
 318   0.0000      53.711604      1461.5670 
 319   0.0000      53.728309      1462.0216 
 320   0.0000      53.790877      1463.7242 
 321   0.0000      53.870796      1465.8989 

                    ********************************
                    * MULLIKEN POPULATION ANALYSIS *
                    ********************************

--------------------------------------------
MULLIKEN ATOMIC CHARGES AND SPIN POPULATIONS
--------------------------------------------
   0 N :    0.025032    0.016185
   1 C :    0.104524    0.661809
   2 C :    0.013745   -0.018452
   3 O :   -0.438152    0.069380
   4 C :   -0.339982   -0.038202
   5 H :    0.155293    0.006443
   6 H :    0.132243    0.013267
   7 C :   -0.296761    0.036443
   8 H :    0.129800    0.003476
   9 H :    0.157681   -0.001580
  10 C :    0.072374    0.001278
  11 O :   -0.422006   -0.000428
  12 O :   -0.414328    0.007028
  13 H :    0.231298   -0.002207
  14 C :    0.084769    0.058380
  15 N :   -0.059022    0.078144
  16 H :    0.260059   -0.002021
  17 O :   -0.302975    0.101141
  18 C :   -0.572051   -0.005003
  19 H :    0.175696    0.005275
  20 H :    0.171358    0.006351
  21 H :    0.146408   -0.000032
  22 C :   -0.469870   -0.007324
  23 H :    0.153730    0.004129
  24 H :    0.144891    0.000250
  25 H :    0.156245    0.006269
Sum of atomic charges         :   -1.0000000
Sum of atomic spin populations:    1.0000000

-----------------------------------------------------
MULLIKEN REDUCED ORBITAL CHARGES AND SPIN POPULATIONS
-----------------------------------------------------
CHARGE
  0 N s       :     3.339441  s :     3.339441
      pz      :     1.145673  p :     3.595912
      px      :     0.990846
      py      :     1.459393
      dz2     :     0.007665  d :     0.039615
      dxz     :     0.011813
      dyz     :     0.004966
      dx2y2   :     0.006986
      dxy     :     0.008185
  1 C s       :     3.094292  s :     3.094292
      pz      :     0.902891  p :     2.708366
      px      :     0.811848
      py      :     0.993627
      dz2     :     0.022577  d :     0.092818
      dxz     :     0.022614
      dyz     :     0.009660
      dx2y2   :     0.019219
      dxy     :     0.018748
  2 C s       :     3.066446  s :     3.066446
      pz      :     0.943987  p :     2.720380
      px      :     0.896869
      py      :     0.879524
      dz2     :     0.051452  d :     0.199429
      dxz     :     0.042699
      dyz     :     0.025834
      dx2y2   :     0.042486
      dxy     :     0.036957
  3 O s       :     3.925640  s :     3.925640
      pz      :     1.501145  p :     4.495391
[...]
  16 H :    0.076888    0.001439
  17 O :   -0.199565    0.097929
  18 C :   -0.057341    0.000280
  19 H :    0.047712    0.004851
  20 H :    0.045771    0.004602
  21 H :    0.030695   -0.000220
  22 C :   -0.016489    0.000075
  23 H :    0.029174    0.003146
  24 H :    0.032209    0.000067
  25 H :    0.029767    0.004809

----------------------------------------------------
LOEWDIN REDUCED ORBITAL CHARGES AND SPIN POPULATIONS
----------------------------------------------------
CHARGE
  0 N s       :     3.044135  s :     3.044135
      pz      :     1.180036  p :     3.739753
      px      :     1.182835
      py      :     1.376882
      dz2     :     0.017697  d :     0.093242
      dxz     :     0.029727
      dyz     :     0.008655
      dx2y2   :     0.018491
      dxy     :     0.018670
  1 C s       :     2.869458  s :     2.869458
      pz      :     1.028260  p :     2.914883
      px      :     0.917283
      py      :     0.969339
      dz2     :     0.062830  d :     0.253110
      dxz     :     0.062693
      dyz     :     0.028162
      dx2y2   :     0.050383
      dxy     :     0.049043
  2 C s       :     2.822550  s :     2.822550
      pz      :     0.973515  p :     2.808292
      px      :     0.957554
      py      :     0.877223
      dz2     :     0.124458  d :     0.488347
      dxz     :     0.107392
      dyz     :     0.065553
      dx2y2   :     0.098114
      dxy     :     0.092831
  3 O s       :     3.597258  s :     3.597258
      pz      :     1.563948  p :     4.655596
      px      :     1.597678
      py      :     1.493971
      dz2     :     0.004888  d :     0.028904
      dxz     :     0.008177
      dyz     :     0.007278
      dx2y2   :     0.003266
      dxy     :     0.005295
  4 C s       :     2.858228  s :     2.858228
      pz      :     1.004753  p :     3.035953
      px      :     1.014924
      py      :     1.016276
      dz2     :     0.034244  d :     0.170650
      dxz     :     0.027691
      dyz     :     0.037421
      dx2y2   :     0.039846
      dxy     :     0.031447
  5 H s       :     0.858034  s :     0.858034
      pz      :     0.016992  p :     0.084854
      px      :     0.047463
      py      :     0.020399
  6 H s       :     0.857336  s :     0.857336
      pz      :     0.039769  p :     0.086936
      px      :     0.027254
      py      :     0.019913
  7 C s       :     2.892296  s :     2.892296
      pz      :     1.030379  p :     3.024457
      px      :     1.027099
      py      :     0.966979
      dz2     :     0.027426  d :     0.151322
      dxz     :     0.022083
      dyz     :     0.027280
      dx2y2   :     0.040978
      dxy     :     0.033555
  8 H s       :     0.869483  s :     0.869483
      pz      :     0.042039  p :     0.081527
      px      :     0.019106
      py      :     0.020382
  9 H s       :     0.867463  s :     0.867463
      pz      :     0.022665  p :     0.081812
      px      :     0.038761
      py      :     0.020386
 10 C s       :     2.855429  s :     2.855429
      pz      :     0.844708  p :     2.766371
      px      :     0.938309
      py      :     0.983354
      dz2     :     0.050862  d :     0.571886
      dxz     :     0.050005
      dyz     :     0.132516
      dx2y2   :     0.155616
      dxy     :     0.182887
 11 O s       :     3.609074  s :     3.609074
      pz      :     1.554949  p :     4.682941
      px      :     1.556865
      py      :     1.571128
      dz2     :     0.002978  d :     0.025962
      dxz     :     0.005007
      dyz     :     0.004280
      dx2y2   :     0.004502
      dxy     :     0.009195
 12 O s       :     3.605572  s :     3.605572
      pz      :     1.549250  p :     4.649746
      px      :     1.671846
      py      :     1.428651
      dz2     :     0.004319  d :     0.028972
      dxz     :     0.000052
      dyz     :     0.005740
      dx2y2   :     0.013046
      dxy     :     0.005815
 13 H s       :     0.744933  s :     0.744933
      pz      :     0.086724  p :     0.158553
      px      :     0.023895
      py      :     0.047933
 14 C s       :     2.839081  s :     2.839081
      pz      :     0.957695  p :     2.796701
      px      :     0.974846
      py      :     0.864160
      dz2     :     0.124496  d :     0.482012
      dxz     :     0.175311
      dyz     :     0.090158
      dx2y2   :     0.036715
      dxy     :     0.055331
 15 N s       :     3.093512  s :     3.093512
      pz      :     1.222204  p :     3.791660
      px      :     1.217222
      py      :     1.352234
      dz2     :     0.019720  d :     0.080538
      dxz     :     0.020219
      dyz     :     0.010585
      dx2y2   :     0.017478
      dxy     :     0.012535
 16 H s       :     0.698968  s :     0.698968
      pz      :     0.067539  p :     0.224144
      px      :     0.042545
      py      :     0.114060
 17 O s       :     3.589783  s :     3.589783
      pz      :     1.435201  p :     4.578049
      px      :     1.707362
      py      :     1.435487
      dz2     :     0.013511  d :     0.031732
      dxz     :     0.006072
      dyz     :     0.009903
      dx2y2   :     0.001170
      dxy     :     0.001076
 18 C s       :     2.877533  s :     2.877533
      pz      :     1.024503  p :     3.071727
      px      :     1.012858
      py      :     1.034366
      dz2     :     0.022933  d :     0.108081
      dxz     :     0.014925
      dyz     :     0.020223
      dx2y2   :     0.018968
      dxy     :     0.031032
 19 H s       :     0.871150  s :     0.871150
      pz      :     0.016471  p :     0.081139
      px      :     0.029842
      py      :     0.034825
 20 H s       :     0.873294  s :     0.873294
      pz      :     0.029998  p :     0.080935
      px      :     0.020255
      py      :     0.030682
 21 H s       :     0.887816  s :     0.887816
      pz      :     0.042691  p :     0.081490
      px      :     0.016822
      py      :     0.021976
 22 C s       :     2.862413  s :     2.862413
      pz      :     0.928102  p :     2.986893
      px      :     1.015709
      py      :     1.043082
      dz2     :     0.053656  d :     0.167183
      dxz     :     0.036656
      dyz     :     0.038535
      dx2y2   :     0.026032
      dxy     :     0.012305
 23 H s       :     0.892399  s :     0.892399
      pz      :     0.015365  p :     0.078426
      px      :     0.016145
      py      :     0.046917
 24 H s       :     0.889985  s :     0.889985
      pz      :     0.013565  p :     0.077806
      px      :     0.043738
      py      :     0.020503
 25 H s       :     0.891678  s :     0.891678
      pz      :     0.031138  p :     0.078555
      px      :     0.023779
      py      :     0.023638

SPIN
  0 N s       :    -0.000876  s :    -0.000876
      pz      :     0.002616  p :     0.022178
      px      :    -0.003480
      py      :     0.023043
      dz2     :     0.000251  d :     0.013913
      dxz     :     0.001466
      dyz     :     0.000770
      dx2y2   :     0.002280
      dxy     :     0.009146
  1 C s       :     0.017751  s :     0.017751
      pz      :     0.078968  p :     0.523087
      px      :     0.037584
      py      :     0.406535
      dz2     :    -0.000198  d :    -0.000980
      dxz     :    -0.000635
      dyz     :    -0.000183
      dx2y2   :    -0.000844
      dxy     :     0.000879
  2 C s       :    -0.003366  s :    -0.003366
      pz      :    -0.006124  p :    -0.003254
      px      :    -0.001725
      py      :     0.004595
      dz2     :     0.010021  d :     0.028514
      dxz     :     0.000534
      dyz     :     0.013715
      dx2y2   :     0.000205
      dxy     :     0.004039
  3 O s       :     0.000671  s :     0.000671
      pz      :     0.011955  p :     0.065848
      px      :     0.007180
      py      :     0.046713
      dz2     :    -0.000056  d :    -0.000167
      dxz     :    -0.000042
      dyz     :    -0.000005
      dx2y2   :    -0.000034
      dxy     :    -0.000030
  4 C s       :    -0.001480  s :    -0.001480
      pz      :    -0.008186  p :    -0.014543
      px      :    -0.004385
      py      :    -0.001973
      dz2     :     0.006175  d :     0.024486
      dxz     :     0.001585
      dyz     :     0.003672
      dx2y2   :     0.011292
      dxy     :     0.001763
  5 H s       :     0.008494  s :     0.008494
      pz      :    -0.000016  p :    -0.000564
      px      :    -0.000341
      py      :    -0.000207
  6 H s       :     0.006218  s :     0.006218
      pz      :    -0.000301  p :    -0.000557
      px      :    -0.000041
      py      :    -0.000216
  7 C s       :     0.008781  s :     0.008781
      pz      :     0.000662  p :     0.029360
      px      :     0.002926
      py      :     0.025772
      dz2     :     0.000306  d :    -0.000216
      dxz     :    -0.000012
      dyz     :    -0.000121
      dx2y2   :    -0.000158
      dxy     :    -0.000231
  8 H s       :     0.001886  s :     0.001886
      pz      :    -0.000017  p :     0.000929
      px      :     0.000103
      py      :     0.000843
  9 H s       :    -0.000958  s :    -0.000958
      pz      :     0.000105  p :     0.000757
      px      :     0.000081
      py      :     0.000571
 10 C s       :     0.000516  s :     0.000516
      pz      :    -0.000392  p :    -0.000791
      px      :    -0.000199
      py      :    -0.000200
      dz2     :     0.000303  d :     0.000658
      dxz     :     0.000105
      dyz     :    -0.000053
      dx2y2   :     0.000303
      dxy     :    -0.000000
 11 O s       :    -0.000097  s :    -0.000097
      pz      :     0.000745  p :     0.000356
      px      :    -0.000150
      py      :    -0.000239
      dz2     :    -0.000001  d :    -0.000006
      dxz     :    -0.000002
      dyz     :     0.000000
      dx2y2   :    -0.000002
      dxy     :    -0.000000
 12 O s       :     0.000231  s :     0.000231
      pz      :     0.000866  p :     0.006346
      px      :     0.005057
      py      :     0.000423
      dz2     :    -0.000001  d :    -0.000006
      dxz     :     0.000000
      dyz     :    -0.000003
      dx2y2   :    -0.000001
      dxy     :    -0.000002
 13 H s       :    -0.000944  s :    -0.000944
      pz      :     0.000431  p :     0.002070
      px      :    -0.000028
      py      :     0.001667
 14 C s       :     0.001248  s :     0.001248
      pz      :     0.005326  p :     0.055148
      px      :     0.003506
      py      :     0.046316
      dz2     :     0.004300  d :     0.014472
      dxz     :     0.000472
      dyz     :     0.008404
      dx2y2   :     0.000220
      dxy     :     0.001077
 15 N s       :     0.002614  s :     0.002614
      pz      :     0.013545  p :     0.075839
      px      :     0.013047
      py      :     0.049247
      dz2     :    -0.000148  d :    -0.000546
      dxz     :    -0.000225
      dyz     :    -0.000057
      dx2y2   :    -0.000126
      dxy     :     0.000011
 16 H s       :    -0.000854  s :    -0.000854
      pz      :     0.001297  p :     0.002294
      px      :     0.000528
      py      :     0.000469
 17 O s       :     0.001255  s :     0.001255
      pz      :     0.009951  p :     0.096342
      px      :     0.009347
      py      :     0.077043
      dz2     :     0.000084  d :     0.000332
      dxz     :     0.000006
      dyz     :     0.000209
      dx2y2   :     0.000032
      dxy     :     0.000002
 18 C s       :    -0.000906  s :    -0.000906
      pz      :    -0.000225  p :    -0.002721
      px      :    -0.002222
      py      :    -0.000274
      dz2     :     0.000134  d :     0.003908
      dxz     :     0.000312
      dyz     :     0.000210
      dx2y2   :     0.000523
      dxy     :     0.002730
 19 H s       :     0.004953  s :     0.004953
      pz      :    -0.000022  p :    -0.000103
      px      :    -0.000030
      py      :    -0.000051
 20 H s       :     0.004741  s :     0.004741
      pz      :    -0.000031  p :    -0.000139
      px      :    -0.000087
      py      :    -0.000021
 21 H s       :    -0.000051  s :    -0.000051
      pz      :    -0.000033  p :    -0.000168
      px      :    -0.000065
      py      :    -0.000070
 22 C s       :    -0.000639  s :    -0.000639
      pz      :    -0.002137  p :    -0.003711
      px      :    -0.000902
      py      :    -0.000672
      dz2     :     0.001424  d :     0.004425
      dxz     :     0.000466
      dyz     :     0.002264
      dx2y2   :     0.000083
      dxy     :     0.000189
 23 H s       :     0.003307  s :     0.003307
      pz      :    -0.000075  p :    -0.000160
      px      :     0.000007
      py      :    -0.000093
 24 H s       :     0.000192  s :     0.000192
      pz      :    -0.000075  p :    -0.000125
      px      :    -0.000024
      py      :    -0.000026
 25 H s       :     0.004984  s :     0.004984
      pz      :    -0.000110  p :    -0.000174
      px      :    -0.000033
      py      :    -0.000032


                      *****************************
                      * MAYER POPULATION ANALYSIS *
                      *****************************

  NA   - Mulliken gross atomic population
  ZA   - Total nuclear charge
  QA   - Mulliken gross atomic charge
  VA   - Mayer's total valence
  BVA  - Mayer's bonded valence
  FA   - Mayer's free valence

  ATOM       NA         ZA         QA         VA         BVA        FA
  0 N      6.9913     7.0000     0.0087     3.4084     3.4061     0.0023
  1 C      5.8870     6.0000     0.1130     3.8615     3.5082     0.3533
  2 C      5.9754     6.0000     0.0246     4.0325     4.0312     0.0013
  3 O      8.4520     8.0000    -0.4520     1.9710     1.9663     0.0048
  4 C      6.3503     6.0000    -0.3503     3.9869     3.9853     0.0015
  5 H      0.8369     1.0000     0.1631     0.9596     0.9595     0.0001
  6 H      0.8577     1.0000     0.1423     0.9783     0.9782     0.0001
  7 C      6.2988     6.0000    -0.2988     3.9753     3.9737     0.0017
  8 H      0.8645     1.0000     0.1355     0.9741     0.9741     0.0000
  9 H      0.8432     1.0000     0.1568     0.9705     0.9704     0.0000
 10 C      5.9126     6.0000     0.0874     4.0851     4.0851     0.0000
 11 O      8.4316     8.0000    -0.4316     1.8437     1.8437     0.0000
 12 O      8.4152     8.0000    -0.4152     1.9146     1.9146     0.0000
 13 H      0.7660     1.0000     0.2340     0.9929     0.9929     0.0000
 14 C      5.9076     6.0000     0.0924     3.9918     3.9870     0.0048
 15 N      7.0708     7.0000    -0.0708     3.0908     3.0843     0.0065
 16 H      0.7393     1.0000     0.2607     1.0007     1.0007     0.0000
 17 O      8.3217     8.0000    -0.3217     2.0998     2.0892     0.0106
 18 C      6.5663     6.0000    -0.5663     3.8729     3.8729     0.0001
 19 H      0.8236     1.0000     0.1764     0.9595     0.9595     0.0000
 20 H      0.8278     1.0000     0.1722     0.9607     0.9606     0.0000
 21 H      0.8524     1.0000     0.1476     0.9725     0.9725    -0.0000
 22 C      6.4694     6.0000    -0.4694     3.9955     3.9954     0.0000
 23 H      0.8450     1.0000     0.1550     0.9555     0.9555     0.0000
 24 H      0.8507     1.0000     0.1493     0.9656     0.9656     0.0000
 25 H      0.8429     1.0000     0.1571     0.9580     0.9580     0.0000

  Mayer bond orders larger than 0.100000
B(  0-N ,  1-C ) :   1.2110 B(  0-N , 13-H ) :   0.8635 B(  0-N , 14-C ) :   1.1911 
B(  1-C ,  2-C ) :   1.0819 B(  1-C ,  4-C ) :   0.9955 B(  2-C ,  3-O ) :   1.6354 
B(  2-C , 15-N ) :   1.2538 B(  3-O , 13-H ) :   0.1015 B(  4-C ,  5-H ) :   0.9711 
B(  4-C ,  6-H ) :   0.9642 B(  4-C ,  7-C ) :   0.9060 B(  7-C ,  8-H ) :   0.9835 
B(  7-C ,  9-H ) :   0.9814 B(  7-C , 10-C ) :   0.9103 B( 10-C , 11-O ) :   1.4434 
B( 10-C , 12-O ) :   1.7076 B( 11-O , 16-H ) :   0.2085 B( 14-C , 17-O ) :   1.8537 
B( 14-C , 18-C ) :   0.8841 B( 15-N , 16-H ) :   0.7622 B( 15-N , 22-C ) :   0.9699 
B( 18-C , 19-H ) :   0.9638 B( 18-C , 20-H ) :   0.9670 B( 18-C , 21-H ) :   0.9771 
B( 22-C , 23-H ) :   0.9625 B( 22-C , 24-H ) :   0.9717 B( 22-C , 25-H ) :   0.9546 


-------
TIMINGS
-------

Total SCF time: 0 days 0 hours 0 min 14 sec 

Total time                  ....      14.488 sec
Sum of individual times     ....      13.790 sec  ( 95.2%)

Fock matrix formation       ....      11.978 sec  ( 82.7%)
  Split-RI-J                ....       0.960 sec  (  8.0% of F)
  Chain of spheres X        ....       8.320 sec  ( 69.5% of F)
  XC integration            ....       2.410 sec  ( 20.1% of F)
    Basis function eval.    ....       0.237 sec  (  9.8% of XC)
    Density eval.           ....       0.332 sec  ( 13.8% of XC)
    XC-Functional eval.     ....       0.056 sec  (  2.3% of XC)
    XC-Potential eval.      ....       0.208 sec  (  8.6% of XC)
Diagonalization             ....       0.369 sec  (  2.5%)
Density matrix formation    ....       0.024 sec  (  0.2%)
Population analysis         ....       0.059 sec  (  0.4%)
Initial guess               ....       0.044 sec  (  0.3%)
Orbital Transformation      ....       0.000 sec  (  0.0%)
Orbital Orthonormalization  ....       0.028 sec  (  0.2%)
DIIS solution               ....       0.191 sec  (  1.3%)
Grid generation             ....       1.125 sec  (  7.8%)

Maximum memory used throughout the entire SCF-calculation: 76.5 MB

-------------------------   --------------------
FINAL SINGLE POINT ENERGY      -722.331107864344
-------------------------   --------------------

                                *** OPTIMIZATION RUN DONE ***

                            ***************************************
                            *     ORCA property calculations      *
                            ***************************************

                                    ---------------------
                                    Active property flags
                                    ---------------------
   (+) Dipole Moment


------------------------------------------------------------------------------
                       ORCA ELECTRIC PROPERTIES CALCULATION
------------------------------------------------------------------------------

Dipole Moment Calculation                       ... on
Quadrupole Moment Calculation                   ... off
Polarizability Calculation                      ... off
GBWName                                         ... opt.gbw
Electron density                                ... opt.scfp
The origin for moment calculation is the CENTER OF MASS  = (-4.083340,  1.678591  0.459272)

-------------
DIPOLE MOMENT
-------------
                                X             Y             Z
Electronic contribution:      1.76489       2.46397      -1.87787
Nuclear contribution   :     -3.94160      -5.17142       2.29074
                        -----------------------------------------
Total Dipole Moment    :     -2.17671      -2.70745       0.41287
                        -----------------------------------------
Magnitude (a.u.)       :      3.49840
Magnitude (Debye)      :      8.89223



--------------------
Rotational spectrum 
--------------------
 
Rotational constants in cm-1:     0.027874     0.015600     0.010730 
Rotational constants in MHz :   835.636366   467.681417   321.684726 

 Dipole components along the rotational axes: 
x,y,z [a.u.] :    -2.981184    -1.800182    -0.332740 
x,y,z [Debye]:    -7.577567    -4.575698    -0.845757 

 

Timings for individual modules:

Sum of individual times         ...      496.921 sec (=   8.282 min)
GTO integral calculation        ...       45.337 sec (=   0.756 min)   9.1 %
SCF iterations                  ...      338.803 sec (=   5.647 min)  68.2 %
SCF Gradient evaluation         ...      112.158 sec (=   1.869 min)  22.6 %
Geometry relaxation             ...        0.623 sec (=   0.010 min)   0.1 %
                             ****ORCA TERMINATED NORMALLY****
TOTAL RUN TIME: 0 days 0 hours 8 minutes 57 seconds 101 msec
