
                                 *****************
                                 * O   R   C   A *
                                 *****************

                                            #,                                       
                                            ###                                      
                                            ####                                     
                                            #####                                    
                                            ######                                   
                                           ########,                                 
                                     ,,################,,,,,                         
                               ,,#################################,,                 
                          ,,##########################################,,             
                       ,#########################################, ''#####,          
                    ,#############################################,,   '####,        
                  ,##################################################,,,,####,       
                ,###########''''           ''''###############################       
              ,#####''   ,,,,##########,,,,          '''####'''          '####       
            ,##' ,,,,###########################,,,                        '##       
           ' ,,###''''                  '''############,,,                           
         ,,##''                                '''############,,,,        ,,,,,,###''
      ,#''                                            '''#######################'''  
     '                                                          ''''####''''         
             ,#######,   #######,   ,#######,      ##                                
            ,#'     '#,  ##    ##  ,#'     '#,    #''#        ######   ,####,        
            ##       ##  ##   ,#'  ##            #'  '#       #        #'  '#        
            ##       ##  #######   ##           ,######,      #####,   #    #        
            '#,     ,#'  ##    ##  '#,     ,#' ,#      #,         ##   #,  ,#        
             '#######'   ##     ##  '#######'  #'      '#     #####' # '####'        



                  #######################################################
                  #                        -***-                        #
                  #          Department of theory and spectroscopy      #
                  #    Directorship and core code : Frank Neese         #
                  #        Max Planck Institute fuer Kohlenforschung    #
                  #                Kaiser Wilhelm Platz 1               #
                  #                 D-45470 Muelheim/Ruhr               #
                  #                      Germany                        #
                  #                                                     #
                  #                  All rights reserved                #
                  #                        -***-                        #
                  #######################################################


                         Program Version 5.0.4 -  RELEASE  -


 With contributions from (in alphabetic order):
   Daniel Aravena         : Magnetic Suceptibility
   Michael Atanasov       : Ab Initio Ligand Field Theory (pilot matlab implementation)
   Alexander A. Auer      : GIAO ZORA, VPT2 properties, NMR spectrum
   Ute Becker             : Parallelization
   Giovanni Bistoni       : ED, misc. LED, open-shell LED, HFLD
   Martin Brehm           : Molecular dynamics
   Dmytro Bykov           : SCF Hessian
   Vijay G. Chilkuri      : MRCI spin determinant printing, contributions to CSF-ICE
   Dipayan Datta          : RHF DLPNO-CCSD density
   Achintya Kumar Dutta   : EOM-CC, STEOM-CC
   Dmitry Ganyushin       : Spin-Orbit,Spin-Spin,Magnetic field MRCI
   Miquel Garcia          : C-PCM and meta-GGA Hessian, CC/C-PCM, Gaussian charge scheme
   Yang Guo               : DLPNO-NEVPT2, F12-NEVPT2, CIM, IAO-localization
   Andreas Hansen         : Spin unrestricted coupled pair/coupled cluster methods
   Benjamin Helmich-Paris : MC-RPA, TRAH-SCF, COSX integrals
   Lee Huntington         : MR-EOM, pCC
   Robert Izsak           : Overlap fitted RIJCOSX, COSX-SCS-MP3, EOM
   Marcus Kettner         : VPT2
   Christian Kollmar      : KDIIS, OOCD, Brueckner-CCSD(T), CCSD density, CASPT2, CASPT2-K
   Simone Kossmann        : Meta GGA functionals, TD-DFT gradient, OOMP2, MP2 Hessian
   Martin Krupicka        : Initial AUTO-CI
   Lucas Lang             : DCDCAS
   Marvin Lechner         : AUTO-CI (C++ implementation), FIC-MRCC
   Dagmar Lenk            : GEPOL surface, SMD
   Dimitrios Liakos       : Extrapolation schemes; Compound Job, initial MDCI parallelization
   Dimitrios Manganas     : Further ROCIS development; embedding schemes
   Dimitrios Pantazis     : SARC Basis sets
   Anastasios Papadopoulos: AUTO-CI, single reference methods and gradients
   Taras Petrenko         : DFT Hessian,TD-DFT gradient, ASA, ECA, R-Raman, ABS, FL, XAS/XES, NRVS
   Peter Pinski           : DLPNO-MP2, DLPNO-MP2 Gradient
   Christoph Reimann      : Effective Core Potentials
   Marius Retegan         : Local ZFS, SOC
   Christoph Riplinger    : Optimizer, TS searches, QM/MM, DLPNO-CCSD(T), (RO)-DLPNO pert. Triples
   Tobias Risthaus        : Range-separated hybrids, TD-DFT gradient, RPA, STAB
   Michael Roemelt        : Original ROCIS implementation
   Masaaki Saitow         : Open-shell DLPNO-CCSD energy and density
   Barbara Sandhoefer     : DKH picture change effects
   Avijit Sen             : IP-ROCIS
   Kantharuban Sivalingam : CASSCF convergence, NEVPT2, FIC-MRCI
   Bernardo de Souza      : ESD, SOC TD-DFT
   Georgi Stoychev        : AutoAux, RI-MP2 NMR, DLPNO-MP2 response
   Willem Van den Heuvel  : Paramagnetic NMR
   Boris Wezisla          : Elementary symmetry handling
   Frank Wennmohs         : Technical directorship


 We gratefully acknowledge several colleagues who have allowed us to
 interface, adapt or use parts of their codes:
   Stefan Grimme, W. Hujo, H. Kruse, P. Pracht,  : VdW corrections, initial TS optimization,
                  C. Bannwarth, S. Ehlert          DFT functionals, gCP, sTDA/sTD-DF
   Ed Valeev, F. Pavosevic, A. Kumar             : LibInt (2-el integral package), F12 methods
   Garnet Chan, S. Sharma, J. Yang, R. Olivares  : DMRG
   Ulf Ekstrom                                   : XCFun DFT Library
   Mihaly Kallay                                 : mrcc  (arbitrary order and MRCC methods)
   Jiri Pittner, Ondrej Demel                    : Mk-CCSD
   Frank Weinhold                                : gennbo (NPA and NBO analysis)
   Christopher J. Cramer and Donald G. Truhlar   : smd solvation model
   Lars Goerigk                                  : TD-DFT with DH, B97 family of functionals
   V. Asgeirsson, H. Jonsson                     : NEB implementation
   FAccTs GmbH                                   : IRC, NEB, NEB-TS, DLPNO-Multilevel, CI-OPT
                                                   MM, QMMM, 2- and 3-layer-ONIOM, Crystal-QMMM,
                                                   LR-CPCM, SF, NACMEs, symmetry and pop. for TD-DFT,
                                                   nearIR, NL-DFT gradient (VV10), updates on ESD,
                                                   ML-optimized integration grids
   S Lehtola, MJT Oliveira, MAL Marques          : LibXC Library
   Liviu Ungur et al                             : ANISO software


 Your calculation uses the libint2 library for the computation of 2-el integrals
 For citations please refer to: http://libint.valeyev.net

 Your ORCA version has been built with support for libXC version: 5.1.0
 For citations please refer to: https://tddft.org/programs/libxc/

 This ORCA versions uses:
   CBLAS   interface :  Fast vector & matrix operations
   LAPACKE interface :  Fast linear algebra routines
   SCALAPACK package :  Parallel linear algebra routines
   Shared memory     :  Shared parallel matrices
   BLAS/LAPACK       :  OpenBLAS 0.3.15  USE64BITINT DYNAMIC_ARCH NO_AFFINITY Zen SINGLE_THREADED
        Core in use  :  Zen
   Copyright (c) 2011-2014, The OpenBLAS Project




***************************************
The coordinates will be read from file: opt.xyz
***************************************


================================================================================

----- Orbital basis set information -----
Your calculation utilizes the basis: EPR-II
   V. Barone, in Recent Advances in Density Functional Methods, Part 1 (ed. D. P. Chong), World Scientific, Singapore, 1995, p. 287.

----- AuxJ basis set information -----
Your calculation utilizes the AutoAux generation procedure.
  G. L. Stoychev, A. A. Auer, F. Neese, J. Chem. Theory Comput. 13, 554 (2017)

----- AuxC basis set information -----
Your calculation utilizes the AutoAux generation procedure.
  G. L. Stoychev, A. A. Auer, F. Neese, J. Chem. Theory Comput. 13, 554 (2017)

----- AuxJK basis set information -----
Your calculation utilizes the AutoAux generation procedure.
  G. L. Stoychev, A. A. Auer, F. Neese, J. Chem. Theory Comput. 13, 554 (2017)

================================================================================
                                        WARNINGS
                       Please study these warnings very carefully!
================================================================================


WARNING: your system is open-shell and RHF/RKS was chosen
  ===> : WILL SWITCH to UHF/UKS


INFO   : the flag for use of the SHARK integral package has been found!

================================================================================
                                       INPUT FILE
================================================================================
NAME = epr_info.inp
|  1> ! B3LYP EPR-II AUTOAUX
|  2> %pal nprocs 16 end
|  3> *XYZFile 0 2 opt.xyz
|  4> %EPRNMR
|  5>         GTENSOR   TRUE
|  6>         NUCLEI    = 9,10,11,28,29,30,31,32 {SHIFT, AISO, ADIP, AORB}
|  7>         ORI       GIAO
|  8> END
|  9> 
| 10>                          ****END OF INPUT****
================================================================================

                       ****************************
                       * Single Point Calculation *
                       ****************************

---------------------------------
CARTESIAN COORDINATES (ANGSTROEM)
---------------------------------
  N     -1.814178    0.779892    0.764814
  C     -1.500883   -0.115836   -0.336227
  C     -1.668918   -1.555964    0.192371
  O     -1.753689   -1.798625    1.398016
  C     -0.082956    0.125341   -0.923496
  C      1.071465   -0.134274    0.057709
  C      2.446848    0.191739   -0.555313
  C      3.587283   -0.089823    0.385637
  N      4.869971    0.371794    0.011668
  H      5.565694    0.260896    0.739680
  H      4.869326    1.331196   -0.317738
  H     -1.862727    0.343021    1.676465
  C     -2.251078    2.058821    0.561943
  N     -1.689268   -2.521826   -0.771209
  H     -1.647817   -2.230715   -1.736025
  O     -2.328752    2.560687   -0.560927
  C     -2.626121    2.837477    1.819736
  H     -1.988544    3.723704    1.882128
  H     -3.659515    3.180114    1.719659
  H     -2.524251    2.255383    2.739497
  C     -1.804349   -3.945220   -0.473501
  H     -2.743000   -4.355139   -0.861708
  H     -0.965806   -4.502123   -0.904231
  H     -1.790485   -4.059403    0.610472
  H     -2.227707    0.061792   -1.138815
  H      0.040574   -0.503114   -1.815708
  H     -0.059638    1.164715   -1.268158
  H      1.062385   -1.184299    0.378597
  H      0.928158    0.468462    0.961021
  H      2.569312   -0.382850   -1.492663
  H      2.467820    1.251645   -0.852548
  H      3.591392   -1.040391    0.917453

----------------------------
CARTESIAN COORDINATES (A.U.)
----------------------------
  NO LB      ZA    FRAG     MASS         X           Y           Z
   0 N     7.0000    0    14.007   -3.428299    1.473783    1.445290
   1 C     6.0000    0    12.011   -2.836259   -0.218898   -0.635376
   2 C     6.0000    0    12.011   -3.153797   -2.940345    0.363528
   3 O     8.0000    0    15.999   -3.313992   -3.398908    2.641867
   4 C     6.0000    0    12.011   -0.156765    0.236861   -1.745155
   5 C     6.0000    0    12.011    2.024775   -0.253741    0.109055
   6 C     6.0000    0    12.011    4.623873    0.362335   -1.049389
   7 C     6.0000    0    12.011    6.778983   -0.169740    0.728748
   8 N     7.0000    0    14.007    9.202912    0.702588    0.022049
   9 H     1.0000    0     1.008   10.517638    0.493022    1.397793
  10 H     1.0000    0     1.008    9.201692    2.515595   -0.600437
  11 H     1.0000    0     1.008   -3.520044    0.648217    3.168059
  12 C     6.0000    0    12.011   -4.253922    3.890608    1.061918
  13 N     7.0000    0    14.007   -3.192255   -4.765560   -1.457374
  14 H     1.0000    0     1.008   -3.113922   -4.215441   -3.280612
  15 O     8.0000    0    15.999   -4.400704    4.838996   -1.059998
  16 C     6.0000    0    12.011   -4.962650    5.362055    3.438802
  17 H     1.0000    0     1.008   -3.757804    7.036781    3.556706
  18 H     1.0000    0     1.008   -6.915481    6.009545    3.249684
  19 H     1.0000    0     1.008   -4.770144    4.262057    5.176900
  20 C     6.0000    0    12.011   -3.409725   -7.455386   -0.894786
  21 H     1.0000    0     1.008   -5.183518   -8.230020   -1.628392
  22 H     1.0000    0     1.008   -1.825109   -8.507779   -1.708750
  23 H     1.0000    0     1.008   -3.383526   -7.671159    1.153626
  24 H     1.0000    0     1.008   -4.209756    0.116771   -2.152049
  25 H     1.0000    0     1.008    0.076673   -0.950747   -3.431190
  26 H     1.0000    0     1.008   -0.112699    2.200992   -2.396472
  27 H     1.0000    0     1.008    2.007616   -2.238001    0.715444
  28 H     1.0000    0     1.008    1.753964    0.885264    1.816066
  29 H     1.0000    0     1.008    4.855296   -0.723482   -2.820724
  30 H     1.0000    0     1.008    4.663504    2.365265   -1.611081
  31 H     1.0000    0     1.008    6.786748   -1.966055    1.733735

--------------------------------
INTERNAL COORDINATES (ANGSTROEM)
--------------------------------
 N      0   0   0     0.000000000000     0.00000000     0.00000000
 C      1   0   0     1.453538365452     0.00000000     0.00000000
 C      2   1   0     1.543249397798   106.98588638     0.00000000
 O      3   2   1     1.232741056505   121.74733899   345.69723373
 C      2   1   3     1.553566670486   112.79260837   236.48016527
 C      5   2   1     1.537157300549   114.70373173    63.05821968
 C      6   5   2     1.540701155578   112.37759393   183.01324095
 C      7   6   5     1.505076469540   112.83537753   181.36618114
 N      8   7   6     1.413588137212   117.45647363   189.97134093
 H      9   8   7     1.013079687628   113.40884338   172.26927746
 H      9   8   7     1.014376722053   113.21551741    46.41956581
 H      1   2   3     1.012086794658   115.25553863    13.45883134
 C      1   2   3     1.366637325351   122.21854984   204.95524707
 N      3   2   1     1.364474287508   114.85362485   166.87939215
 H     14   3   2     1.008629709841   118.07315424   356.63224065
 O     13   1   2     1.232371214123   122.44603184   355.42727742
 C     13   1   2     1.526107755641   115.70234727   176.01840520
 H     17  13   1     1.093524021507   108.49616875   119.90029750
 H     17  13   1     1.093306271383   108.46609109   236.50401273
 H     17  13   1     1.093239475252   113.50523357   358.29865415
 C     14   3   2     1.458740858577   123.21381332   178.35542079
 H     21  14   3     1.095355855377   111.12715102   115.05873105
 H     21  14   3     1.094907771903   110.83023636   236.49488064
 H     21  14   3     1.090058314286   107.70726941   355.84000424
 H      2   1   3     1.097256944455   108.15167859   117.56124823
 H      5   2   1     1.098297434924   108.71775880   186.29098525
 H      5   2   1     1.095277307446   106.60081392   300.80961550
 H      6   5   2     1.098000150716   109.98973540    61.34911028
 H      6   5   2     1.095353339311   109.58583513   304.58324864
 H      7   6   5     1.106243877737   109.02956162   304.42121985
 H      7   6   5     1.100993762599   109.15501192    59.33244946
 H      8   7   6     1.089231960386   118.12283300    46.59847024

---------------------------
INTERNAL COORDINATES (A.U.)
---------------------------
 N      0   0   0     0.000000000000     0.00000000     0.00000000
 C      1   0   0     2.746789435852     0.00000000     0.00000000
 C      2   1   0     2.916318718176   106.98588638     0.00000000
 O      3   2   1     2.329542990836   121.74733899   345.69723373
 C      2   1   3     2.935815538007   112.79260837   236.48016527
 C      5   2   1     2.904806322795   114.70373173    63.05821968
 C      6   5   2     2.911503238259   112.37759393   183.01324095
 C      7   6   5     2.844182338041   112.83537753   181.36618114
 N      8   7   6     2.671294445491   117.45647363   189.97134093
 H      9   8   7     1.914443161456   113.40884338   172.26927746
 H      9   8   7     1.916894201304   113.21551741    46.41956581
 H      1   2   3     1.912566865662   115.25553863    13.45883134
 C      1   2   3     2.582570269308   122.21854984   204.95524707
 N      3   2   1     2.578482720168   114.85362485   166.87939215
 H     14   3   2     1.906033922137   118.07315424   356.63224065
 O     13   1   2     2.328844090020   122.44603184   355.42727742
 C     13   1   2     2.883925709015   115.70234727   176.01840520
 H     17  13   1     2.066460921512   108.49616875   119.90029750
 H     17  13   1     2.066049433413   108.46609109   236.50401273
 H     17  13   1     2.065923207018   113.50523357   358.29865415
 C     14   3   2     2.756620723071   123.21381332   178.35542079
 H     21  14   3     2.069922585849   111.12715102   115.05873105
 H     21  14   3     2.069075830798   110.83023636   236.49488064
 H     21  14   3     2.059911684005   107.70726941   355.84000424
 H      2   1   3     2.073515123564   108.15167859   117.56124823
 H      5   2   1     2.075481365594   108.71775880   186.29098525
 H      5   2   1     2.069774151772   106.60081392   300.80961550
 H      6   5   2     2.074919579858   109.98973540    61.34911028
 H      6   5   2     2.069917831174   109.58583513   304.58324864
 H      7   6   5     2.090497966249   109.02956162   304.42121985
 H      7   6   5     2.080576686468   109.15501192    59.33244946
 H      8   7   6     2.058350101444   118.12283300    46.59847024

---------------------
BASIS SET INFORMATION
---------------------
There are 4 groups of distinct atoms

 Group   1 Type N   : 10s5p1d contracted to 6s2p1d pattern {511111/41/1}
 Group   2 Type C   : 10s5p1d contracted to 6s2p1d pattern {511111/41/1}
 Group   3 Type O   : 10s5p1d contracted to 6s2p1d pattern {511111/41/1}
 Group   4 Type H   : 6s1p contracted to 4s1p pattern {3111/1}

Atom   0N    basis set group =>   1
Atom   1C    basis set group =>   2
Atom   2C    basis set group =>   2
Atom   3O    basis set group =>   3
Atom   4C    basis set group =>   2
Atom   5C    basis set group =>   2
Atom   6C    basis set group =>   2
Atom   7C    basis set group =>   2
Atom   8N    basis set group =>   1
Atom   9H    basis set group =>   4
Atom  10H    basis set group =>   4
Atom  11H    basis set group =>   4
Atom  12C    basis set group =>   2
Atom  13N    basis set group =>   1
Atom  14H    basis set group =>   4
Atom  15O    basis set group =>   3
Atom  16C    basis set group =>   2
Atom  17H    basis set group =>   4
Atom  18H    basis set group =>   4
Atom  19H    basis set group =>   4
Atom  20C    basis set group =>   2
Atom  21H    basis set group =>   4
Atom  22H    basis set group =>   4
Atom  23H    basis set group =>   4
Atom  24H    basis set group =>   4
Atom  25H    basis set group =>   4
Atom  26H    basis set group =>   4
Atom  27H    basis set group =>   4
Atom  28H    basis set group =>   4
Atom  29H    basis set group =>   4
Atom  30H    basis set group =>   4
Atom  31H    basis set group =>   4
---------------------------------
AUXILIARY/J BASIS SET INFORMATION
---------------------------------
There are 4 groups of distinct atoms

 Group   1 Type N   : 17s13p12d2f contracted to 17s13p12d2f pattern {11111111111111111/1111111111111/111111111111/11}
 Group   2 Type C   : 17s13p12d2f contracted to 17s13p12d2f pattern {11111111111111111/1111111111111/111111111111/11}
 Group   3 Type O   : 17s13p12d2f contracted to 17s13p12d2f pattern {11111111111111111/1111111111111/111111111111/11}
 Group   4 Type H   : 15s6p1d contracted to 15s6p1d pattern {111111111111111/111111/1}

Atom   0N    basis set group =>   1
Atom   1C    basis set group =>   2
Atom   2C    basis set group =>   2
Atom   3O    basis set group =>   3
Atom   4C    basis set group =>   2
Atom   5C    basis set group =>   2
Atom   6C    basis set group =>   2
Atom   7C    basis set group =>   2
Atom   8N    basis set group =>   1
Atom   9H    basis set group =>   4
Atom  10H    basis set group =>   4
Atom  11H    basis set group =>   4
Atom  12C    basis set group =>   2
Atom  13N    basis set group =>   1
Atom  14H    basis set group =>   4
Atom  15O    basis set group =>   3
Atom  16C    basis set group =>   2
Atom  17H    basis set group =>   4
Atom  18H    basis set group =>   4
Atom  19H    basis set group =>   4
Atom  20C    basis set group =>   2
Atom  21H    basis set group =>   4
Atom  22H    basis set group =>   4
Atom  23H    basis set group =>   4
Atom  24H    basis set group =>   4
Atom  25H    basis set group =>   4
Atom  26H    basis set group =>   4
Atom  27H    basis set group =>   4
Atom  28H    basis set group =>   4
Atom  29H    basis set group =>   4
Atom  30H    basis set group =>   4
Atom  31H    basis set group =>   4
---------------------------------
AUXILIARY/C BASIS SET INFORMATION
---------------------------------
There are 4 groups of distinct atoms

 Group   1 Type N   : 17s13p12d2f contracted to 17s13p12d2f pattern {11111111111111111/1111111111111/111111111111/11}
 Group   2 Type C   : 17s13p12d2f contracted to 17s13p12d2f pattern {11111111111111111/1111111111111/111111111111/11}
 Group   3 Type O   : 17s13p12d2f contracted to 17s13p12d2f pattern {11111111111111111/1111111111111/111111111111/11}
 Group   4 Type H   : 15s6p1d contracted to 15s6p1d pattern {111111111111111/111111/1}

Atom   0N    basis set group =>   1
Atom   1C    basis set group =>   2
Atom   2C    basis set group =>   2
Atom   3O    basis set group =>   3
Atom   4C    basis set group =>   2
Atom   5C    basis set group =>   2
Atom   6C    basis set group =>   2
Atom   7C    basis set group =>   2
Atom   8N    basis set group =>   1
Atom   9H    basis set group =>   4
Atom  10H    basis set group =>   4
Atom  11H    basis set group =>   4
Atom  12C    basis set group =>   2
Atom  13N    basis set group =>   1
Atom  14H    basis set group =>   4
Atom  15O    basis set group =>   3
Atom  16C    basis set group =>   2
Atom  17H    basis set group =>   4
Atom  18H    basis set group =>   4
Atom  19H    basis set group =>   4
Atom  20C    basis set group =>   2
Atom  21H    basis set group =>   4
Atom  22H    basis set group =>   4
Atom  23H    basis set group =>   4
Atom  24H    basis set group =>   4
Atom  25H    basis set group =>   4
Atom  26H    basis set group =>   4
Atom  27H    basis set group =>   4
Atom  28H    basis set group =>   4
Atom  29H    basis set group =>   4
Atom  30H    basis set group =>   4
Atom  31H    basis set group =>   4
----------------------------------
AUXILIARY/JK BASIS SET INFORMATION
----------------------------------
There are 4 groups of distinct atoms

 Group   1 Type N   : 17s13p12d2f contracted to 17s13p12d2f pattern {11111111111111111/1111111111111/111111111111/11}
 Group   2 Type C   : 17s13p12d2f contracted to 17s13p12d2f pattern {11111111111111111/1111111111111/111111111111/11}
 Group   3 Type O   : 17s13p12d2f contracted to 17s13p12d2f pattern {11111111111111111/1111111111111/111111111111/11}
 Group   4 Type H   : 15s6p1d contracted to 15s6p1d pattern {111111111111111/111111/1}

Atom   0N    basis set group =>   1
Atom   1C    basis set group =>   2
Atom   2C    basis set group =>   2
Atom   3O    basis set group =>   3
Atom   4C    basis set group =>   2
Atom   5C    basis set group =>   2
Atom   6C    basis set group =>   2
Atom   7C    basis set group =>   2
Atom   8N    basis set group =>   1
Atom   9H    basis set group =>   4
Atom  10H    basis set group =>   4
Atom  11H    basis set group =>   4
Atom  12C    basis set group =>   2
Atom  13N    basis set group =>   1
Atom  14H    basis set group =>   4
Atom  15O    basis set group =>   3
Atom  16C    basis set group =>   2
Atom  17H    basis set group =>   4
Atom  18H    basis set group =>   4
Atom  19H    basis set group =>   4
Atom  20C    basis set group =>   2
Atom  21H    basis set group =>   4
Atom  22H    basis set group =>   4
Atom  23H    basis set group =>   4
Atom  24H    basis set group =>   4
Atom  25H    basis set group =>   4
Atom  26H    basis set group =>   4
Atom  27H    basis set group =>   4
Atom  28H    basis set group =>   4
Atom  29H    basis set group =>   4
Atom  30H    basis set group =>   4
Atom  31H    basis set group =>   4


           ************************************************************
           *        Program running with 16 parallel MPI-processes    *
           *              working on a common directory               *
           ************************************************************
------------------------------------------------------------------------------
                           ORCA GTO INTEGRAL CALCULATION
                           -- RI-GTO INTEGRALS CHOSEN --
------------------------------------------------------------------------------
------------------------------------------------------------------------------
                   ___                                                        
                  /   \      - P O W E R E D   B Y -                         
                 /     \                                                     
                 |  |  |   _    _      __       _____    __    __             
                 |  |  |  | |  | |    /  \     |  _  \  |  |  /  |          
                  \  \/   | |  | |   /    \    | | | |  |  | /  /          
                 / \  \   | |__| |  /  /\  \   | |_| |  |  |/  /          
                |  |  |   |  __  | /  /__\  \  |    /   |      \           
                |  |  |   | |  | | |   __   |  |    \   |  |\   \          
                \     /   | |  | | |  |  |  |  | |\  \  |  | \   \       
                 \___/    |_|  |_| |__|  |__|  |_| \__\ |__|  \__/        
                                                                              
                      - O R C A' S   B I G   F R I E N D -                    
                                      &                                       
                       - I N T E G R A L  F E E D E R -                       
                                                                              
 v1 FN, 2020, v2 2021                                                         
------------------------------------------------------------------------------


Reading SHARK input file epr_info.SHARKINP.tmp ... ok
----------------------
SHARK INTEGRAL PACKAGE
----------------------

Number of atoms                             ...     32
Number of basis functions                   ...    364
Number of shells                            ...    216
Maximum angular momentum                    ...      2
Integral batch strategy                     ... SHARK/LIBINT Hybrid
RI-J (if used) integral strategy            ... SPLIT-RIJ (Revised 2003 algorithm where possible)
Printlevel                                  ...      1
Contraction scheme used                     ... SEGMENTED contraction
Coulomb Range Separation                    ... NOT USED
Exchange Range Separation                   ... NOT USED
Finite Nucleus Model                        ... NOT USED
Auxiliary Coulomb fitting basis             ... AVAILABLE
   # of basis functions in Aux-J            ...   2504
   # of shells in Aux-J                     ...   1012
   Maximum angular momentum in Aux-J        ...      3
Auxiliary J/K fitting basis                 ... AVAILABLE
   # of basis functions in Aux-JK           ...   2504
   # of shells in Aux-JK                    ...   1012
   Maximum angular momentum in Aux-JK       ...      3
Auxiliary Correlation fitting basis         ... AVAILABLE
   # of basis functions in Aux-C            ...   2504
   # of shells in Aux-C                     ...   1012
   Maximum angular momentum in Aux-C        ...      3
Auxiliary 'external' fitting basis          ... NOT available
Integral threshold                          ...     1.000000e-10
Primitive cut-off                           ...     1.000000e-11
Primitive pair pre-selection threshold      ...     1.000000e-11

Calculating pre-screening integrals         ... done (  0.0 sec) Dimension = 216
Organizing shell pair data                  ... done (  0.0 sec)
Shell pair information
Total number of shell pairs                 ...     23436
Shell pairs after pre-screening             ...     15027
Total number of primitive shell pairs       ...     61703
Primitive shell pairs kept                  ...     28646
          la=0 lb=0:   7063 shell pairs
          la=1 lb=0:   5123 shell pairs
          la=1 lb=1:    885 shell pairs
          la=2 lb=0:   1380 shell pairs
          la=2 lb=1:    497 shell pairs
          la=2 lb=2:     79 shell pairs

Calculating one electron integrals          ... done (  0.0 sec)
Calculating RI/J V-Matrix + Cholesky decomp.... done (  0.3 sec)
Calculating RI/JK V-Matrix + Cholesky decomp... done (  0.3 sec)
Calculating RI/C V-Matrix + Cholesky decomp.... done (  0.3 sec)
Calculating Nuclear repulsion               ... done (  0.0 sec) ENN=    915.998182774870 Eh

SHARK setup successfully completed in   1.2 seconds

Maximum memory used throughout the entire GTOINT-calculation: 28.0 MB


           ************************************************************
           *        Program running with 16 parallel MPI-processes    *
           *              working on a common directory               *
           ************************************************************
-------------------------------------------------------------------------------
                                 ORCA SCF
-------------------------------------------------------------------------------

------------
SCF SETTINGS
------------
Hamiltonian:
 Density Functional     Method          .... DFT(GTOs)
 Exchange Functional    Exchange        .... B88
   X-Alpha parameter    XAlpha          ....  0.666667
   Becke's b parameter  XBeta           ....  0.004200
 Correlation Functional Correlation     .... LYP
 LDA part of GGA corr.  LDAOpt          .... VWN-5
 Gradients option       PostSCFGGA      .... off
 Hybrid DFT is turned on
   Fraction HF Exchange ScalHFX         ....  0.200000
   Scaling of DF-GGA-X  ScalDFX         ....  0.720000
   Scaling of DF-GGA-C  ScalDFC         ....  0.810000
   Scaling of DF-LDA-C  ScalLDAC        ....  1.000000
   Perturbative correction              ....  0.000000
   Density functional embedding theory  .... OFF
   NL short-range parameter             ....  4.800000
 RI-approximation to the Coulomb term is turned on
   Number of AuxJ basis functions       .... 2504
   RIJ-COSX (HFX calculated with COS-X)).... on


General Settings:
 Integral files         IntName         .... epr_info
 Hartree-Fock type      HFTyp           .... UHF
 Total Charge           Charge          ....    0
 Multiplicity           Mult            ....    2
 Number of Electrons    NEL             ....  109
 Basis Dimension        Dim             ....  364
 Nuclear Repulsion      ENuc            ....    915.9981827749 Eh

Convergence Acceleration:
 DIIS                   CNVDIIS         .... on
   Start iteration      DIISMaxIt       ....    12
   Startup error        DIISStart       ....  0.200000
   # of expansion vecs  DIISMaxEq       ....     5
   Bias factor          DIISBfac        ....   1.050
   Max. coefficient     DIISMaxC        ....  10.000
 Trust-Rad. Augm. Hess. CNVTRAH         .... auto
   Auto Start mean grad. ratio tolernc. ....  1.125000
   Auto Start start iteration           ....    20
   Auto Start num. interpolation iter.  ....    10
   Max. Number of Micro iterations      ....    16
   Max. Number of Macro iterations      .... Maxiter - #DIIS iter
   Number of Davidson start vectors     ....     2
   Converg. threshold I  (grad. norm)   ....   5.000e-05
   Converg. threshold II (energy diff.) ....   1.000e-06
   Grad. Scal. Fac. for Micro threshold ....   0.100
   Minimum threshold for Micro iter.    ....   0.010
   NR start threshold (gradient norm)   ....   0.001
   Initial trust radius                 ....   0.400
   Minimum AH scaling param. (alpha)    ....   1.000
   Maximum AH scaling param. (alpha)    .... 1000.000
   Orbital update algorithm             .... Taylor
   White noise on init. David. guess    .... on
   Maximum white noise                  ....   0.010
   Quad. conv. algorithm                .... NR
 SOSCF                  CNVSOSCF        .... off
 Level Shifting         CNVShift        .... on
   Level shift para.    LevelShift      ....    0.2500
   Turn off err/grad.   ShiftErr        ....    0.0010
 Zerner damping         CNVZerner       .... off
 Static damping         CNVDamp         .... on
   Fraction old density DampFac         ....    0.7000
   Max. Damping (<1)    DampMax         ....    0.9800
   Min. Damping (>=0)   DampMin         ....    0.0000
   Turn off err/grad.   DampErr         ....    0.1000
 Fernandez-Rico         CNVRico         .... off

SCF Procedure:
 Maximum # iterations   MaxIter         ....   125
 SCF integral mode      SCFMode         .... Direct
   Integral package                     .... SHARK and LIBINT hybrid scheme
 Reset frequency        DirectResetFreq ....    20
 Integral Threshold     Thresh          ....  1.000e-10 Eh
 Primitive CutOff       TCut            ....  1.000e-11 Eh

Convergence Tolerance:
 Convergence Check Mode ConvCheckMode   .... Total+1el-Energy
 Convergence forced     ConvForced      .... 0
 Energy Change          TolE            ....  1.000e-06 Eh
 1-El. energy change                    ....  1.000e-03 Eh
 DIIS Error             TolErr          ....  1.000e-06


Diagonalization of the overlap matrix:
Smallest eigenvalue                        ... 9.553e-04
Time for diagonalization                   ...    0.014 sec
Threshold for overlap eigenvalues          ... 1.000e-08
Number of eigenvalues below threshold      ... 0
Time for construction of square roots      ...    0.010 sec
Total time needed                          ...    0.025 sec

Time for model grid setup =    0.107 sec

------------------------------
INITIAL GUESS: MODEL POTENTIAL
------------------------------
Loading Hartree-Fock densities                     ... done
Calculating cut-offs                               ... done
Initializing the effective Hamiltonian             ... done
Setting up the integral package (SHARK)            ... done
Starting the Coulomb interaction                   ... done (   0.0 sec)
Reading the grid                                   ... done
Mapping shells                                     ... done
Starting the XC term evaluation                    ... done (   0.0 sec)
  promolecular density results
     # of electrons  =    108.986416091
     EX              =    -87.722895852
     EC              =     -3.657849066
     EX+EC           =    -91.380744917
Transforming the Hamiltonian                       ... done (   0.0 sec)
Diagonalizing the Hamiltonian                      ... done (   0.0 sec)
Back transforming the eigenvectors                 ... done (   0.0 sec)
Now organizing SCF variables                       ... done
                      ------------------
                      INITIAL GUESS DONE (   0.3 sec)
                      ------------------
-------------------
DFT GRID GENERATION
-------------------

General Integration Accuracy     IntAcc      ... 4.388
Radial Grid Type                 RadialGrid  ... OptM3 with GC (2021)
Angular Grid (max. ang.)         AngularGrid ... 4 (Lebedev-302)
Angular grid pruning method      GridPruning ... 4 (adaptive)
Weight generation scheme         WeightScheme... Becke
Basis function cutoff            BFCut       ... 1.0000e-10
Integration weight cutoff        WCut        ... 1.0000e-14
Angular grids for H and He will be reduced by one unit
Partially contracted basis set               ... off
Rotationally invariant grid construction     ... off

Total number of grid points                  ...   141620
Total number of batches                      ...     2231
Average number of points per batch           ...       63
Average number of grid points per atom       ...     4426
Time for grid setup =    0.571 sec

--------------------
COSX GRID GENERATION
--------------------

GRIDX 1
-------
General Integration Accuracy     IntAcc      ... 3.816
Radial Grid Type                 RadialGrid  ... OptM3 with GC (2021)
Angular Grid (max. ang.)         AngularGrid ... 1 (Lebedev-50)
Angular grid pruning method      GridPruning ... 4 (adaptive)
Weight generation scheme         WeightScheme... Becke
Basis function cutoff            BFCut       ... 1.0000e-10
Integration weight cutoff        WCut        ... 1.0000e-14
Angular grids for H and He will be reduced by one unit
Partially contracted basis set               ... on
Rotationally invariant grid construction     ... off

Total number of grid points                  ...    18074
Total number of batches                      ...      301
Average number of points per batch           ...       60
Average number of grid points per atom       ...      565
UseSFitting                                  ... on

GRIDX 2
-------
General Integration Accuracy     IntAcc      ... 4.020
Radial Grid Type                 RadialGrid  ... OptM3 with GC (2021)
Angular Grid (max. ang.)         AngularGrid ... 2 (Lebedev-110)
Angular grid pruning method      GridPruning ... 4 (adaptive)
Weight generation scheme         WeightScheme... Becke
Basis function cutoff            BFCut       ... 1.0000e-10
Integration weight cutoff        WCut        ... 1.0000e-14
Angular grids for H and He will be reduced by one unit
Partially contracted basis set               ... on
Rotationally invariant grid construction     ... off

Total number of grid points                  ...    38340
Total number of batches                      ...      618
Average number of points per batch           ...       62
Average number of grid points per atom       ...     1198
UseSFitting                                  ... on

GRIDX 3
-------
General Integration Accuracy     IntAcc      ... 4.338
Radial Grid Type                 RadialGrid  ... OptM3 with GC (2021)
Angular Grid (max. ang.)         AngularGrid ... 3 (Lebedev-194)
Angular grid pruning method      GridPruning ... 4 (adaptive)
Weight generation scheme         WeightScheme... Becke
Basis function cutoff            BFCut       ... 1.0000e-10
Integration weight cutoff        WCut        ... 1.0000e-14
Angular grids for H and He will be reduced by one unit
Partially contracted basis set               ... on
Rotationally invariant grid construction     ... off

Total number of grid points                  ...    83564
Total number of batches                      ...     1320
Average number of points per batch           ...       63
Average number of grid points per atom       ...     2611
UseSFitting                                  ... on

Time for X-Grid setup             =    0.664 sec

--------------
SCF ITERATIONS
--------------
ITER       Energy         Delta-E        Max-DP      RMS-DP      [F,P]     Damp
               ***  Starting incremental Fock matrix formation  ***
  0   -667.7082717682   0.000000000000 0.06330257  0.00097085  0.1308768 0.7000
  1   -667.9575821900  -0.249310421799 0.05249797  0.00068944  0.0506956 0.7000
                               ***Turning on DIIS***
  2   -668.0478500089  -0.090267818926 0.08150135  0.00105878  0.0180618 0.0000
  3   -668.1942167322  -0.146366723316 0.04664113  0.00050894  0.0286907 0.0000
  4   -668.2269620589  -0.032745326691 0.01732853  0.00017492  0.0081683 0.0000
  5   -668.2288740085  -0.001911949559 0.00796260  0.00006907  0.0054081 0.0000
  6   -668.2292573593  -0.000383350798 0.00480961  0.00003979  0.0008137 0.0000
               *** Restarting incremental Fock matrix formation ***
                                   *** Resetting DIIS ***
  7   -668.2292973569  -0.000039997560 0.00176240  0.00001974  0.0006530 0.0000
  8   -668.2292837860   0.000013570889 0.00079512  0.00000764  0.0010193 0.0000
  9   -668.2293073797  -0.000023593749 0.00039014  0.00000436  0.0002672 0.0000
 10   -668.2293091287  -0.000001749034 0.00014797  0.00000154  0.0000844 0.0000
                 **** Energy Check signals convergence ****

               *****************************************************
               *                     SUCCESS                       *
               *           SCF CONVERGED AFTER  11 CYCLES          *
               *****************************************************

Old exchange energy                            =    -17.858384078 Eh
New exchange energy                            =    -17.858442362 Eh
Exchange energy change after final integration =     -0.000058283 Eh
Total energy after final integration           =   -668.229367512 Eh
Final COS-X integration done in                =     2.054 sec

----------------
TOTAL SCF ENERGY
----------------

Total Energy       :         -668.22936751 Eh          -18183.44552 eV

Components:
Nuclear Repulsion  :          915.99818277 Eh           24925.57775 eV
Electronic Energy  :        -1584.22755029 Eh          -43109.02326 eV
One Electron Energy:        -2726.11713050 Eh          -74181.41843 eV
Two Electron Energy:         1141.88958021 Eh           31072.39517 eV
Max COSX asymmetry :            0.00000120 Eh               0.00003 eV

Virial components:
Potential Energy   :        -1331.83026352 Eh          -36240.94392 eV
Kinetic Energy     :          663.60089601 Eh           18057.49841 eV
Virial Ratio       :            2.00697478


DFT components:
N(Alpha)           :       55.000011834344 electrons
N(Beta)            :       54.000029190545 electrons
N(Total)           :      109.000041024888 electrons
E(X)               :      -70.935574610763 Eh       
E(C)               :       -4.314062405626 Eh       
E(XC)              :      -75.249637016389 Eh       
DFET-embed. en.    :        0.000000000000 Eh       

---------------
SCF CONVERGENCE
---------------

  Last Energy change         ...   -9.9650e-08  Tolerance :   1.0000e-06
  Last MAX-Density change    ...    0.0000e+00  Tolerance :   1.0000e-05
  Last RMS-Density change    ...    0.0000e+00  Tolerance :   1.0000e-06
  Last DIIS Error            ...    8.2373e-05  Tolerance :   1.0000e-06

             **** THE GBW FILE WAS UPDATED (epr_info.gbw) ****
             **** DENSITY epr_info.scfp WAS UPDATED ****
             **** ENERGY FILE WAS UPDATED (epr_info.en.tmp) ****
----------------------
UHF SPIN CONTAMINATION
----------------------

Warning: in a DFT calculation there is little theoretical justification to 
         calculate <S**2> as in Hartree-Fock theory. We will do it anyways
         but you should keep in mind that the values have only limited relevance

Expectation value of <S**2>     :     0.753388
Ideal value S*(S+1) for S=0.5   :     0.750000
Deviation                       :     0.003388

             **** THE GBW FILE WAS UPDATED (epr_info.gbw) ****
             **** DENSITY epr_info.scfp WAS UPDATED ****
----------------
ORBITAL ENERGIES
----------------
                 SPIN UP ORBITALS
  NO   OCC          E(Eh)            E(eV) 
   0   1.0000     -19.120880      -520.3056 
   1   1.0000     -19.097775      -519.6769 
   2   1.0000     -14.371183      -391.0598 
   3   1.0000     -14.347620      -390.4186 
   4   1.0000     -14.333946      -390.0465 
   5   1.0000     -10.302357      -280.3414 
   6   1.0000     -10.286226      -279.9024 
   7   1.0000     -10.237263      -278.5701 
   8   1.0000     -10.224370      -278.2192 
   9   1.0000     -10.198345      -277.5111 
  10   1.0000     -10.188244      -277.2362 
  11   1.0000     -10.184134      -277.1244 
  12   1.0000     -10.181969      -277.0655 
  13   1.0000     -10.178666      -276.9756 
  14   1.0000      -1.043917       -28.4064 
  15   1.0000      -1.019882       -27.7524 
  16   1.0000      -0.930517       -25.3206 
  17   1.0000      -0.914538       -24.8858 
  18   1.0000      -0.896728       -24.4012 
  19   1.0000      -0.797674       -21.7058 
  20   1.0000      -0.758762       -20.6470 
  21   1.0000      -0.725941       -19.7539 
  22   1.0000      -0.709717       -19.3124 
  23   1.0000      -0.664341       -18.0776 
  24   1.0000      -0.612363       -16.6632 
  25   1.0000      -0.596508       -16.2318 
  26   1.0000      -0.580622       -15.7995 
  27   1.0000      -0.561456       -15.2780 
  28   1.0000      -0.535929       -14.5834 
  29   1.0000      -0.504708       -13.7338 
  30   1.0000      -0.479112       -13.0373 
  31   1.0000      -0.471101       -12.8193 
  32   1.0000      -0.466708       -12.6998 
  33   1.0000      -0.460464       -12.5299 
  34   1.0000      -0.449913       -12.2427 
  35   1.0000      -0.446955       -12.1623 
  36   1.0000      -0.441151       -12.0043 
  37   1.0000      -0.426149       -11.5961 
  38   1.0000      -0.409561       -11.1447 
  39   1.0000      -0.402179       -10.9439 
  40   1.0000      -0.400183       -10.8895 
  41   1.0000      -0.389592       -10.6013 
  42   1.0000      -0.382702       -10.4139 
  43   1.0000      -0.374599       -10.1934 
  44   1.0000      -0.364962        -9.9311 
  45   1.0000      -0.356335        -9.6964 
  46   1.0000      -0.339439        -9.2366 
  47   1.0000      -0.335298        -9.1239 
  48   1.0000      -0.326342        -8.8802 
  49   1.0000      -0.314344        -8.5537 
  50   1.0000      -0.268996        -7.3198 
  51   1.0000      -0.268366        -7.3026 
  52   1.0000      -0.247354        -6.7309 
  53   1.0000      -0.244048        -6.6409 
  54   1.0000      -0.143477        -3.9042 
  55   0.0000       0.007056         0.1920 
  56   0.0000       0.012669         0.3447 
  57   0.0000       0.026737         0.7276 
  58   0.0000       0.029404         0.8001 
  59   0.0000       0.034738         0.9453 
  60   0.0000       0.036197         0.9850 
  61   0.0000       0.048710         1.3255 
  62   0.0000       0.053610         1.4588 
  63   0.0000       0.065048         1.7700 
  64   0.0000       0.080772         2.1979 
  65   0.0000       0.093789         2.5521 
  66   0.0000       0.095383         2.5955 
  67   0.0000       0.115566         3.1447 
  68   0.0000       0.120146         3.2694 
  69   0.0000       0.150145         4.0857 
  70   0.0000       0.155729         4.2376 
  71   0.0000       0.161495         4.3945 
  72   0.0000       0.167146         4.5483 
  73   0.0000       0.171473         4.6660 
  74   0.0000       0.176365         4.7991 
  75   0.0000       0.185856         5.0574 
  76   0.0000       0.194861         5.3024 
  77   0.0000       0.196015         5.3338 
  78   0.0000       0.201664         5.4876 
  79   0.0000       0.203290         5.5318 
  80   0.0000       0.207620         5.6496 
  81   0.0000       0.218595         5.9483 
  82   0.0000       0.221240         6.0202 
  83   0.0000       0.234621         6.3844 
  84   0.0000       0.236951         6.4478 
  85   0.0000       0.247543         6.7360 
  86   0.0000       0.250489         6.8162 
  87   0.0000       0.251220         6.8360 
  88   0.0000       0.256524         6.9804 
  89   0.0000       0.261823         7.1246 
  90   0.0000       0.270087         7.3495 
  91   0.0000       0.274512         7.4699 
  92   0.0000       0.282546         7.6885 
  93   0.0000       0.285429         7.7669 
  94   0.0000       0.291263         7.9257 
  95   0.0000       0.295632         8.0446 
  96   0.0000       0.298705         8.1282 
  97   0.0000       0.313606         8.5337 
  98   0.0000       0.316999         8.6260 
  99   0.0000       0.321009         8.7351 
 100   0.0000       0.328117         8.9285 
 101   0.0000       0.334390         9.0992 
 102   0.0000       0.344775         9.3818 
 103   0.0000       0.353743         9.6258 
 104   0.0000       0.367170         9.9912 
 105   0.0000       0.372911        10.1474 
 106   0.0000       0.380506        10.3541 
 107   0.0000       0.390924        10.6376 
 108   0.0000       0.394696        10.7402 
 109   0.0000       0.408334        11.1113 
 110   0.0000       0.424401        11.5485 
 111   0.0000       0.429123        11.6770 
 112   0.0000       0.436357        11.8739 
 113   0.0000       0.443293        12.0626 
 114   0.0000       0.452891        12.3238 
 115   0.0000       0.460403        12.5282 
 116   0.0000       0.473028        12.8717 
 117   0.0000       0.485100        13.2002 
 118   0.0000       0.487824        13.2744 
 119   0.0000       0.505747        13.7621 
 120   0.0000       0.513467        13.9721 
 121   0.0000       0.527529        14.3548 
 122   0.0000       0.536020        14.5858 
 123   0.0000       0.556044        15.1307 
 124   0.0000       0.564735        15.3672 
 125   0.0000       0.565422        15.3859 
 126   0.0000       0.590306        16.0631 
 127   0.0000       0.605387        16.4734 
 128   0.0000       0.613460        16.6931 
 129   0.0000       0.618097        16.8193 
 130   0.0000       0.644937        17.5496 
 131   0.0000       0.656676        17.8691 
 132   0.0000       0.671919        18.2839 
 133   0.0000       0.685975        18.6663 
 134   0.0000       0.719485        19.5782 
 135   0.0000       0.724400        19.7119 
 136   0.0000       0.744202        20.2508 
 137   0.0000       0.768807        20.9203 
 138   0.0000       0.781514        21.2661 
 139   0.0000       0.801162        21.8007 
 140   0.0000       0.807915        21.9845 
 141   0.0000       0.814544        22.1649 
 142   0.0000       0.824101        22.4249 
 143   0.0000       0.827036        22.5048 
 144   0.0000       0.835393        22.7322 
 145   0.0000       0.851215        23.1627 
 146   0.0000       0.858119        23.3506 
 147   0.0000       0.868968        23.6458 
 148   0.0000       0.871171        23.7058 
 149   0.0000       0.876217        23.8431 
 150   0.0000       0.888723        24.1834 
 151   0.0000       0.892331        24.2816 
 152   0.0000       0.910443        24.7744 
 153   0.0000       0.913612        24.8606 
 154   0.0000       0.916727        24.9454 
 155   0.0000       0.926997        25.2249 
 156   0.0000       0.932425        25.3726 
 157   0.0000       0.941094        25.6085 
 158   0.0000       0.942462        25.6457 
 159   0.0000       0.944611        25.7042 
 160   0.0000       0.953860        25.9559 
 161   0.0000       0.972263        26.4566 
 162   0.0000       0.977628        26.6026 
 163   0.0000       0.983979        26.7754 
 164   0.0000       0.988813        26.9070 
 165   0.0000       1.004602        27.3366 
 166   0.0000       1.023347        27.8467 
 167   0.0000       1.030622        28.0447 
 168   0.0000       1.042095        28.3568 
 169   0.0000       1.052828        28.6489 
 170   0.0000       1.066568        29.0228 
 171   0.0000       1.072388        29.1812 
 172   0.0000       1.102536        30.0015 
 173   0.0000       1.128715        30.7139 
 174   0.0000       1.149316        31.2745 
 175   0.0000       1.151893        31.3446 
 176   0.0000       1.165308        31.7097 
 177   0.0000       1.170220        31.8433 
 178   0.0000       1.185717        32.2650 
 179   0.0000       1.190830        32.4041 
 180   0.0000       1.209754        32.9191 
 181   0.0000       1.218813        33.1656 
 182   0.0000       1.236335        33.6424 
 183   0.0000       1.244352        33.8605 
 184   0.0000       1.261471        34.3264 
 185   0.0000       1.281668        34.8760 
 186   0.0000       1.299239        35.3541 
 187   0.0000       1.327225        36.1156 
 188   0.0000       1.344130        36.5756 
 189   0.0000       1.358781        36.9743 
 190   0.0000       1.383739        37.6534 
 191   0.0000       1.385241        37.6943 
 192   0.0000       1.400833        38.1186 
 193   0.0000       1.405763        38.2527 
 194   0.0000       1.410987        38.3949 
 195   0.0000       1.414926        38.5021 
 196   0.0000       1.438582        39.1458 
 197   0.0000       1.465273        39.8721 
 198   0.0000       1.480022        40.2734 
 199   0.0000       1.496291        40.7162 
 200   0.0000       1.504390        40.9365 
 201   0.0000       1.521330        41.3975 
 202   0.0000       1.529944        41.6319 
 203   0.0000       1.544692        42.0332 
 204   0.0000       1.547961        42.1222 
 205   0.0000       1.562645        42.5217 
 206   0.0000       1.577546        42.9272 
 207   0.0000       1.588522        43.2259 
 208   0.0000       1.596377        43.4396 
 209   0.0000       1.602308        43.6010 
 210   0.0000       1.612177        43.8696 
 211   0.0000       1.623335        44.1732 
 212   0.0000       1.633451        44.4485 
 213   0.0000       1.636585        44.5337 
 214   0.0000       1.662418        45.2367 
 215   0.0000       1.672731        45.5173 
 216   0.0000       1.677903        45.6581 
 217   0.0000       1.683825        45.8192 
 218   0.0000       1.699399        46.2430 
 219   0.0000       1.700412        46.2706 
 220   0.0000       1.707219        46.4558 
 221   0.0000       1.717047        46.7232 
 222   0.0000       1.726188        46.9720 
 223   0.0000       1.739015        47.3210 
 224   0.0000       1.752465        47.6870 
 225   0.0000       1.761783        47.9406 
 226   0.0000       1.768415        48.1210 
 227   0.0000       1.773354        48.2554 
 228   0.0000       1.787409        48.6379 
 229   0.0000       1.800730        49.0003 
 230   0.0000       1.823624        49.6233 
 231   0.0000       1.830232        49.8032 
 232   0.0000       1.843939        50.1761 
 233   0.0000       1.857710        50.5509 
 234   0.0000       1.867434        50.8155 
 235   0.0000       1.884432        51.2780 
 236   0.0000       1.907183        51.8971 
 237   0.0000       1.925124        52.3853 
 238   0.0000       1.938715        52.7551 
 239   0.0000       1.984933        54.0128 
 240   0.0000       1.993784        54.2536 
 241   0.0000       2.005568        54.5743 
 242   0.0000       2.027094        55.1600 
 243   0.0000       2.034545        55.3628 
 244   0.0000       2.046320        55.6832 
 245   0.0000       2.059848        56.0513 
 246   0.0000       2.078618        56.5621 
 247   0.0000       2.103730        57.2454 
 248   0.0000       2.126796        57.8731 
 249   0.0000       2.155589        58.6566 
 250   0.0000       2.161426        58.8154 
 251   0.0000       2.180360        59.3306 
 252   0.0000       2.185020        59.4574 
 253   0.0000       2.209809        60.1320 
 254   0.0000       2.243819        61.0574 
 255   0.0000       2.256543        61.4036 
 256   0.0000       2.274739        61.8988 
 257   0.0000       2.279403        62.0257 
 258   0.0000       2.289101        62.2896 
 259   0.0000       2.315259        63.0014 
 260   0.0000       2.329304        63.3836 
 261   0.0000       2.344063        63.7852 
 262   0.0000       2.363336        64.3096 
 263   0.0000       2.368190        64.4417 
 264   0.0000       2.395450        65.1835 
 265   0.0000       2.398632        65.2701 
 266   0.0000       2.401649        65.3522 
 267   0.0000       2.414964        65.7145 
 268   0.0000       2.435306        66.2680 
 269   0.0000       2.446586        66.5750 
 270   0.0000       2.451949        66.7209 
 271   0.0000       2.467654        67.1483 
 272   0.0000       2.474930        67.3463 
 273   0.0000       2.494484        67.8784 
 274   0.0000       2.506601        68.2081 
 275   0.0000       2.514303        68.4177 
 276   0.0000       2.553677        69.4891 
 277   0.0000       2.556431        69.5640 
 278   0.0000       2.572969        70.0140 
 279   0.0000       2.612056        71.0777 
 280   0.0000       2.619728        71.2864 
 281   0.0000       2.623944        71.4011 
 282   0.0000       2.646913        72.0262 
 283   0.0000       2.684277        73.0429 
 284   0.0000       2.699239        73.4500 
 285   0.0000       2.719649        74.0054 
 286   0.0000       2.753447        74.9251 
 287   0.0000       2.762120        75.1611 
 288   0.0000       2.775331        75.5206 
 289   0.0000       2.785282        75.7914 
 290   0.0000       2.827207        76.9322 
 291   0.0000       2.927749        79.6681 
 292   0.0000       2.988045        81.3088 
 293   0.0000       3.030652        82.4682 
 294   0.0000       3.092075        84.1396 
 295   0.0000       3.115017        84.7639 
 296   0.0000       3.356447        91.3336 
 297   0.0000       3.416853        92.9773 
 298   0.0000       3.440642        93.6246 
 299   0.0000       3.441977        93.6610 
 300   0.0000       4.906902       133.5236 
 301   0.0000       4.974116       135.3526 
 302   0.0000       4.983883       135.6184 
 303   0.0000       4.991521       135.8262 
 304   0.0000       5.015385       136.4756 
 305   0.0000       5.020013       136.6015 
 306   0.0000       5.028261       136.8259 
 307   0.0000       5.061813       137.7389 
 308   0.0000       5.064917       137.8234 
 309   0.0000       5.101504       138.8190 
 310   0.0000       5.107575       138.9842 
 311   0.0000       5.149375       140.1216 
 312   0.0000       5.176225       140.8522 
 313   0.0000       5.227903       142.2585 
 314   0.0000       5.247495       142.7916 
 315   0.0000       5.265549       143.2829 
 316   0.0000       5.296637       144.1288 
 317   0.0000       5.311713       144.5391 
 318   0.0000       5.342229       145.3694 
 319   0.0000       5.359063       145.8275 
 320   0.0000       5.381396       146.4352 
 321   0.0000       5.435069       147.8958 
 322   0.0000       5.594042       152.2216 
 323   0.0000       5.627352       153.1280 
 324   0.0000       5.707706       155.3146 
 325   0.0000       5.737593       156.1278 
 326   0.0000       5.866509       159.6358 
 327   0.0000       7.231959       196.7916 
 328   0.0000       7.294387       198.4903 
 329   0.0000       7.330213       199.4652 
 330   0.0000       9.085281       247.2231 
 331   0.0000       9.108583       247.8571 
 332   0.0000      29.585689       805.0675 
 333   0.0000      29.636165       806.4410 
 334   0.0000      29.744810       809.3974 
 335   0.0000      29.855424       812.4074 
 336   0.0000      29.920700       814.1836 
 337   0.0000      30.045539       817.5807 
 338   0.0000      30.078331       818.4730 
 339   0.0000      30.148184       820.3738 
 340   0.0000      30.277553       823.8941 
 341   0.0000      36.519210       993.7382 
 342   0.0000      36.599758       995.9300 
 343   0.0000      36.612394       996.2739 
 344   0.0000      36.623251       996.5693 
 345   0.0000      36.634949       996.8876 
 346   0.0000      36.641431       997.0640 
 347   0.0000      36.670539       997.8561 
 348   0.0000      36.687577       998.3197 
 349   0.0000      36.709804       998.9245 
 350   0.0000      36.722777       999.2776 
 351   0.0000      36.738374       999.7020 
 352   0.0000      36.784117      1000.9467 
 353   0.0000      36.811558      1001.6934 
 354   0.0000      36.853435      1002.8329 
 355   0.0000      36.886299      1003.7272 
 356   0.0000      36.890623      1003.8449 
 357   0.0000      36.926787      1004.8290 
 358   0.0000      36.947194      1005.3843 
 359   0.0000      41.176931      1120.4812 
 360   0.0000      41.233338      1122.0162 
 361   0.0000      41.267651      1122.9499 
 362   0.0000      53.621250      1459.1084 
 363   0.0000      53.643168      1459.7048 

                 SPIN DOWN ORBITALS
  NO   OCC          E(Eh)            E(eV) 
   0   1.0000     -19.120880      -520.3056 
   1   1.0000     -19.097775      -519.6769 
   2   1.0000     -14.371183      -391.0598 
   3   1.0000     -14.347617      -390.4185 
   4   1.0000     -14.330058      -389.9407 
   5   1.0000     -10.302357      -280.3414 
   6   1.0000     -10.286226      -279.9024 
   7   1.0000     -10.237270      -278.5703 
   8   1.0000     -10.224370      -278.2192 
   9   1.0000     -10.188239      -277.2361 
  10   1.0000     -10.186075      -277.1772 
  11   1.0000     -10.184134      -277.1244 
  12   1.0000     -10.182506      -277.0801 
  13   1.0000     -10.178477      -276.9705 
  14   1.0000      -1.043917       -28.4064 
  15   1.0000      -1.019881       -27.7524 
  16   1.0000      -0.930517       -25.3206 
  17   1.0000      -0.914531       -24.8857 
  18   1.0000      -0.885257       -24.0891 
  19   1.0000      -0.796903       -21.6848 
  20   1.0000      -0.756687       -20.5905 
  21   1.0000      -0.725860       -19.7516 
  22   1.0000      -0.706695       -19.2301 
  23   1.0000      -0.659908       -17.9570 
  24   1.0000      -0.607715       -16.5368 
  25   1.0000      -0.596501       -16.2316 
  26   1.0000      -0.570205       -15.5161 
  27   1.0000      -0.560762       -15.2591 
  28   1.0000      -0.535897       -14.5825 
  29   1.0000      -0.500843       -13.6286 
  30   1.0000      -0.478769       -13.0280 
  31   1.0000      -0.470845       -12.8123 
  32   1.0000      -0.465899       -12.6778 
  33   1.0000      -0.459699       -12.5091 
  34   1.0000      -0.448548       -12.2056 
  35   1.0000      -0.445001       -12.1091 
  36   1.0000      -0.436451       -11.8764 
  37   1.0000      -0.425729       -11.5847 
  38   1.0000      -0.407084       -11.0773 
  39   1.0000      -0.400296       -10.8926 
  40   1.0000      -0.399011       -10.8576 
  41   1.0000      -0.389190       -10.5904 
  42   1.0000      -0.379231       -10.3194 
  43   1.0000      -0.373164       -10.1543 
  44   1.0000      -0.362063        -9.8522 
  45   1.0000      -0.354301        -9.6410 
  46   1.0000      -0.335367        -9.1258 
  47   1.0000      -0.331331        -9.0160 
  48   1.0000      -0.323700        -8.8083 
  49   1.0000      -0.284507        -7.7418 
  50   1.0000      -0.268992        -7.3196 
  51   1.0000      -0.268334        -7.3017 
  52   1.0000      -0.247293        -6.7292 
  53   1.0000      -0.244045        -6.6408 
  54   0.0000      -0.012456        -0.3389 
  55   0.0000       0.007156         0.1947 
  56   0.0000       0.012797         0.3482 
  57   0.0000       0.026925         0.7327 
  58   0.0000       0.029465         0.8018 
  59   0.0000       0.035682         0.9710 
  60   0.0000       0.038072         1.0360 
  61   0.0000       0.049725         1.3531 
  62   0.0000       0.054778         1.4906 
  63   0.0000       0.065206         1.7743 
  64   0.0000       0.081435         2.2160 
  65   0.0000       0.093809         2.5527 
  66   0.0000       0.096445         2.6244 
  67   0.0000       0.116447         3.1687 
  68   0.0000       0.120427         3.2770 
  69   0.0000       0.150344         4.0911 
  70   0.0000       0.156130         4.2485 
  71   0.0000       0.162692         4.4271 
  72   0.0000       0.167666         4.5624 
  73   0.0000       0.171813         4.6753 
  74   0.0000       0.177343         4.8258 
  75   0.0000       0.186210         5.0670 
  76   0.0000       0.195727         5.3260 
  77   0.0000       0.198133         5.3915 
  78   0.0000       0.203009         5.5242 
  79   0.0000       0.203725         5.5436 
  80   0.0000       0.210253         5.7213 
  81   0.0000       0.219855         5.9826 
  82   0.0000       0.222440         6.0529 
  83   0.0000       0.235829         6.4172 
  84   0.0000       0.239785         6.5249 
  85   0.0000       0.249273         6.7831 
  86   0.0000       0.250940         6.8284 
  87   0.0000       0.253578         6.9002 
  88   0.0000       0.259519         7.0619 
  89   0.0000       0.267120         7.2687 
  90   0.0000       0.272466         7.4142 
  91   0.0000       0.275535         7.4977 
  92   0.0000       0.284189         7.7332 
  93   0.0000       0.287972         7.8361 
  94   0.0000       0.292540         7.9604 
  95   0.0000       0.299045         8.1374 
  96   0.0000       0.300943         8.1891 
  97   0.0000       0.314093         8.5469 
  98   0.0000       0.318046         8.6545 
  99   0.0000       0.323807         8.8112 
 100   0.0000       0.331772         9.0280 
 101   0.0000       0.335133         9.1194 
 102   0.0000       0.353716         9.6251 
 103   0.0000       0.356690         9.7060 
 104   0.0000       0.368593        10.0299 
 105   0.0000       0.373504        10.1636 
 106   0.0000       0.383144        10.4259 
 107   0.0000       0.392369        10.6769 
 108   0.0000       0.405002        11.0207 
 109   0.0000       0.415080        11.2949 
 110   0.0000       0.426066        11.5938 
 111   0.0000       0.434023        11.8104 
 112   0.0000       0.437943        11.9170 
 113   0.0000       0.444347        12.0913 
 114   0.0000       0.453819        12.3490 
 115   0.0000       0.462249        12.5784 
 116   0.0000       0.474505        12.9120 
 117   0.0000       0.485730        13.2174 
 118   0.0000       0.491004        13.3609 
 119   0.0000       0.506563        13.7843 
 120   0.0000       0.520961        14.1761 
 121   0.0000       0.529084        14.3971 
 122   0.0000       0.536995        14.6124 
 123   0.0000       0.557137        15.1605 
 124   0.0000       0.565245        15.3811 
 125   0.0000       0.566237        15.4081 
 126   0.0000       0.590473        16.0676 
 127   0.0000       0.608973        16.5710 
 128   0.0000       0.617396        16.8002 
 129   0.0000       0.621686        16.9169 
 130   0.0000       0.651597        17.7308 
 131   0.0000       0.657145        17.8818 
 132   0.0000       0.674950        18.3663 
 133   0.0000       0.686231        18.6733 
 134   0.0000       0.722896        19.6710 
 135   0.0000       0.724661        19.7190 
 136   0.0000       0.745352        20.2821 
 137   0.0000       0.769984        20.9523 
 138   0.0000       0.783765        21.3273 
 139   0.0000       0.803234        21.8571 
 140   0.0000       0.808757        22.0074 
 141   0.0000       0.815124        22.1807 
 142   0.0000       0.825815        22.4716 
 143   0.0000       0.827453        22.5162 
 144   0.0000       0.837400        22.7868 
 145   0.0000       0.851811        23.1789 
 146   0.0000       0.859410        23.3857 
 147   0.0000       0.869757        23.6673 
 148   0.0000       0.874937        23.8083 
 149   0.0000       0.876957        23.8632 
 150   0.0000       0.890358        24.2279 
 151   0.0000       0.894422        24.3385 
 152   0.0000       0.912136        24.8205 
 153   0.0000       0.915165        24.9029 
 154   0.0000       0.919159        25.0116 
 155   0.0000       0.928133        25.2558 
 156   0.0000       0.935291        25.4506 
 157   0.0000       0.941999        25.6331 
 158   0.0000       0.945005        25.7149 
 159   0.0000       0.946209        25.7477 
 160   0.0000       0.955560        26.0021 
 161   0.0000       0.974030        26.5047 
 162   0.0000       0.981394        26.7051 
 163   0.0000       0.985200        26.8087 
 164   0.0000       0.989855        26.9353 
 165   0.0000       1.005851        27.3706 
 166   0.0000       1.023733        27.8572 
 167   0.0000       1.030875        28.0515 
 168   0.0000       1.042281        28.3619 
 169   0.0000       1.053137        28.6573 
 170   0.0000       1.068474        29.0746 
 171   0.0000       1.087926        29.6040 
 172   0.0000       1.103356        30.0238 
 173   0.0000       1.134846        30.8807 
 174   0.0000       1.150472        31.3059 
 175   0.0000       1.152245        31.3542 
 176   0.0000       1.165946        31.7270 
 177   0.0000       1.174452        31.9585 
 178   0.0000       1.187943        32.3256 
 179   0.0000       1.192337        32.4451 
 180   0.0000       1.210730        32.9457 
 181   0.0000       1.219767        33.1915 
 182   0.0000       1.239645        33.7325 
 183   0.0000       1.246899        33.9298 
 184   0.0000       1.261840        34.3364 
 185   0.0000       1.284106        34.9423 
 186   0.0000       1.299920        35.3726 
 187   0.0000       1.328277        36.1443 
 188   0.0000       1.355660        36.8894 
 189   0.0000       1.362707        37.0811 
 190   0.0000       1.385413        37.6990 
 191   0.0000       1.386592        37.7311 
 192   0.0000       1.401092        38.1256 
 193   0.0000       1.409997        38.3680 
 194   0.0000       1.414877        38.5008 
 195   0.0000       1.417224        38.5646 
 196   0.0000       1.438894        39.1543 
 197   0.0000       1.465583        39.8805 
 198   0.0000       1.480232        40.2792 
 199   0.0000       1.497042        40.7366 
 200   0.0000       1.504733        40.9459 
 201   0.0000       1.522903        41.4403 
 202   0.0000       1.533513        41.7290 
 203   0.0000       1.547405        42.1070 
 204   0.0000       1.550279        42.1852 
 205   0.0000       1.564537        42.5732 
 206   0.0000       1.578148        42.9436 
 207   0.0000       1.592275        43.3280 
 208   0.0000       1.597870        43.4803 
 209   0.0000       1.604419        43.6585 
 210   0.0000       1.614816        43.9414 
 211   0.0000       1.633727        44.4560 
 212   0.0000       1.634451        44.4757 
 213   0.0000       1.637712        44.5644 
 214   0.0000       1.666204        45.3397 
 215   0.0000       1.674240        45.5584 
 216   0.0000       1.678529        45.6751 
 217   0.0000       1.684837        45.8468 
 218   0.0000       1.701887        46.3107 
 219   0.0000       1.702819        46.3361 
 220   0.0000       1.710326        46.5403 
 221   0.0000       1.722564        46.8734 
 222   0.0000       1.727060        46.9957 
 223   0.0000       1.741831        47.3976 
 224   0.0000       1.752657        47.6922 
 225   0.0000       1.764662        48.0189 
 226   0.0000       1.771561        48.2066 
 227   0.0000       1.778853        48.4051 
 228   0.0000       1.789295        48.6892 
 229   0.0000       1.807438        49.1829 
 230   0.0000       1.824616        49.6503 
 231   0.0000       1.830887        49.8210 
 232   0.0000       1.844632        50.1950 
 233   0.0000       1.859202        50.5915 
 234   0.0000       1.868361        50.8407 
 235   0.0000       1.886130        51.3242 
 236   0.0000       1.908376        51.9296 
 237   0.0000       1.926599        52.4254 
 238   0.0000       1.943327        52.8806 
 239   0.0000       1.985697        54.0336 
 240   0.0000       1.994556        54.2746 
 241   0.0000       2.006647        54.6037 
 242   0.0000       2.029248        55.2187 
 243   0.0000       2.038943        55.4825 
 244   0.0000       2.048228        55.7351 
 245   0.0000       2.061285        56.0904 
 246   0.0000       2.081639        56.6443 
 247   0.0000       2.104301        57.2610 
 248   0.0000       2.129335        57.9422 
 249   0.0000       2.156260        58.6748 
 250   0.0000       2.168675        59.0127 
 251   0.0000       2.183169        59.4070 
 252   0.0000       2.186971        59.5105 
 253   0.0000       2.210303        60.1454 
 254   0.0000       2.244310        61.0708 
 255   0.0000       2.259914        61.4954 
 256   0.0000       2.274953        61.9046 
 257   0.0000       2.280607        62.0585 
 258   0.0000       2.290762        62.3348 
 259   0.0000       2.317045        63.0500 
 260   0.0000       2.332674        63.4753 
 261   0.0000       2.344279        63.7911 
 262   0.0000       2.364782        64.3490 
 263   0.0000       2.368296        64.4446 
 264   0.0000       2.395745        65.1915 
 265   0.0000       2.399283        65.2878 
 266   0.0000       2.401747        65.3549 
 267   0.0000       2.419293        65.8323 
 268   0.0000       2.436340        66.2962 
 269   0.0000       2.449316        66.6493 
 270   0.0000       2.458505        66.8993 
 271   0.0000       2.471214        67.2451 
 272   0.0000       2.476510        67.3893 
 273   0.0000       2.494876        67.8890 
 274   0.0000       2.507493        68.2324 
 275   0.0000       2.516375        68.4740 
 276   0.0000       2.555448        69.5373 
 277   0.0000       2.560137        69.6649 
 278   0.0000       2.576119        70.0998 
 279   0.0000       2.614863        71.1540 
 280   0.0000       2.620858        71.3172 
 281   0.0000       2.625278        71.4374 
 282   0.0000       2.647786        72.0499 
 283   0.0000       2.689125        73.1748 
 284   0.0000       2.699319        73.4522 
 285   0.0000       2.719778        74.0089 
 286   0.0000       2.753991        74.9399 
 287   0.0000       2.762465        75.1705 
 288   0.0000       2.775355        75.5213 
 289   0.0000       2.791211        75.9527 
 290   0.0000       2.827225        76.9327 
 291   0.0000       2.933171        79.8156 
 292   0.0000       2.988052        81.3090 
 293   0.0000       3.030673        82.4688 
 294   0.0000       3.092079        84.1397 
 295   0.0000       3.115020        84.7640 
 296   0.0000       3.356447        91.3336 
 297   0.0000       3.416854        92.9773 
 298   0.0000       3.440644        93.6247 
 299   0.0000       3.441978        93.6610 
 300   0.0000       4.909070       133.5826 
 301   0.0000       4.974172       135.3541 
 302   0.0000       4.985288       135.6566 
 303   0.0000       4.991524       135.8263 
 304   0.0000       5.019683       136.5925 
 305   0.0000       5.020944       136.6268 
 306   0.0000       5.029887       136.8702 
 307   0.0000       5.062557       137.7592 
 308   0.0000       5.071086       137.9913 
 309   0.0000       5.103278       138.8673 
 310   0.0000       5.107990       138.9955 
 311   0.0000       5.150176       140.1434 
 312   0.0000       5.177261       140.8804 
 313   0.0000       5.228252       142.2680 
 314   0.0000       5.247579       142.7939 
 315   0.0000       5.271391       143.4418 
 316   0.0000       5.297581       144.1545 
 317   0.0000       5.312556       144.5620 
 318   0.0000       5.343991       145.4174 
 319   0.0000       5.359384       145.8363 
 320   0.0000       5.382492       146.4651 
 321   0.0000       5.442986       148.1112 
 322   0.0000       5.594952       152.2464 
 323   0.0000       5.630428       153.2117 
 324   0.0000       5.708815       155.3447 
 325   0.0000       5.739045       156.1673 
 326   0.0000       5.867583       159.6650 
 327   0.0000       7.241586       197.0536 
 328   0.0000       7.294564       198.4952 
 329   0.0000       7.330230       199.4657 
 330   0.0000       9.085281       247.2231 
 331   0.0000       9.108582       247.8571 
 332   0.0000      29.588340       805.1397 
 333   0.0000      29.636594       806.4527 
 334   0.0000      29.752115       809.5962 
 335   0.0000      29.859202       812.5102 
 336   0.0000      29.921927       814.2170 
 337   0.0000      30.046410       817.6044 
 338   0.0000      30.078661       818.4820 
 339   0.0000      30.148743       820.3890 
 340   0.0000      30.277922       823.9041 
 341   0.0000      36.521884       993.8110 
 342   0.0000      36.599761       995.9301 
 343   0.0000      36.612396       996.2740 
 344   0.0000      36.623260       996.5696 
 345   0.0000      36.640719       997.0447 
 346   0.0000      36.642944       997.1052 
 347   0.0000      36.671805       997.8906 
 348   0.0000      36.690354       998.3953 
 349   0.0000      36.710352       998.9395 
 350   0.0000      36.722906       999.2811 
 351   0.0000      36.738415       999.7031 
 352   0.0000      36.782895      1000.9135 
 353   0.0000      36.811490      1001.6916 
 354   0.0000      36.855597      1002.8918 
 355   0.0000      36.888821      1003.7958 
 356   0.0000      36.894153      1003.9409 
 357   0.0000      36.926793      1004.8291 
 358   0.0000      36.948279      1005.4138 
 359   0.0000      41.181849      1120.6151 
 360   0.0000      41.233397      1122.0178 
 361   0.0000      41.267668      1122.9503 
 362   0.0000      53.621251      1459.1084 
 363   0.0000      53.643168      1459.7048 

                    ********************************
                    * MULLIKEN POPULATION ANALYSIS *
                    ********************************

--------------------------------------------
MULLIKEN ATOMIC CHARGES AND SPIN POPULATIONS
--------------------------------------------
   0 N :   -0.116053    0.000020
   1 C :   -0.129039    0.000863
   2 C :    0.087951   -0.000322
   3 O :   -0.332929    0.000030
   4 C :   -0.281119   -0.001175
   5 C :   -0.259519    0.012151
   6 C :   -0.242901   -0.028099
   7 C :   -0.256392    0.819529
   8 N :   -0.399463    0.162526
   9 H :    0.227762   -0.001229
  10 H :    0.225476    0.001920
  11 H :    0.252681   -0.000001
  12 C :    0.170122   -0.000225
  13 N :   -0.092122   -0.000019
  14 H :    0.230581    0.000004
  15 O :   -0.327788    0.000016
  16 C :   -0.554917    0.000069
  17 H :    0.184935    0.000004
  18 H :    0.185850   -0.000001
  19 H :    0.149303    0.000000
  20 C :   -0.459155    0.000007
  21 H :    0.164257   -0.000001
  22 H :    0.160897    0.000000
  23 H :    0.200484    0.000002
  24 H :    0.164594    0.000021
  25 H :    0.126532    0.000184
  26 H :    0.178196    0.000157
  27 H :    0.148413   -0.000470
  28 H :    0.167589   -0.000610
  29 H :    0.138069    0.048260
  30 H :    0.141638    0.011233
  31 H :    0.146064   -0.024844
Sum of atomic charges         :   -0.0000000
Sum of atomic spin populations:    1.0000000

-----------------------------------------------------
MULLIKEN REDUCED ORBITAL CHARGES AND SPIN POPULATIONS
-----------------------------------------------------
CHARGE
  0 N s       :     3.366692  s :     3.366692
      pz      :     1.103741  p :     3.715585
      px      :     1.575708
      py      :     1.036137
      dz2     :     0.009361  d :     0.033775
      dxz     :     0.002623
      dyz     :     0.011617
      dx2y2   :     0.005146
      dxy     :     0.005029
  1 C s       :     3.176927  s :     3.176927
      pz      :     0.980176  p :     2.847906
      px      :     0.998810
      py      :     0.868920
      dz2     :     0.014593  d :     0.104205
      dxz     :     0.030010
      dyz     :     0.022202
      dx2y2   :     0.023832
      dxy     :     0.013568
  2 C s       :     3.097237  s :     3.097237
      pz      :     0.858204  p :     2.621681
      px      :     0.804981
      py      :     0.958496
      dz2     :     0.041572  d :     0.193131
      dxz     :     0.047130
      dyz     :     0.077589
      dx2y2   :     0.012147
      dxy     :     0.014692
  3 O s       :     3.897854  s :     3.897854
      pz      :     1.228899  p :     4.416787
      px      :     1.446471
      py      :     1.741417
[...]
                    *** THE CP-SCF HAS CONVERGED ***

Forming final perturbed densities           ... done
Transforming perturbed density to AO basis  ... done

 Raw HFC matrix (all values in MHz): 
 -----------------------------------
                 4.8557              -1.3091              -1.0891
                -1.3079              -5.0245               0.5203
                -1.0875               0.5206              -3.7388

 A(FC)          -1.3029              -1.3029              -1.3029
 A(SD)          -2.4847               6.4753              -3.9906
 A(ORB+DIA)     -0.0001               0.0013              -0.0002    A(PC) =   0.0003
 A(ORB)         -0.0002               0.0010              -0.0004    A(PC) =   0.0001
 A(DIA)          0.0001               0.0004               0.0002    A(PC) =   0.0002
             ----------           ----------           ----------
 A(Tot)         -3.7876               5.1738              -5.2937    A(iso)=   -1.3025
 Orientation: 
  X           0.1567711           -0.9828976           -0.0966186
  Y           0.2375427            0.1324817           -0.9623004
  Z           0.9586430            0.1279098            0.2542494

Notes:  (1) The A matrix conforms to the "SAI" spin Hamiltonian convention.
        (2) Tensor is right-handed.

 -----------------------------------------------------------
 Nucleus  29H : A:ISTP=    1 I=  0.5 P=533.5514 MHz/au**3
                Q:ISTP=    2 I=  1.0 Q=  0.0029 barn     
 -----------------------------------------------------------
 Solving for nuclear perturbation:
Forming RHS of the CP-SCF equations         ... 
Calc. nucleus orbit integrals (SHARK)       ... done

------------------------------------------------------------------------------
                           ORCA CP-SCF CALCULATION
------------------------------------------------------------------------------

Input orbitals are from        ... epr_info.gbw
Input Perturbation             ... epr_info.pin.tmp
Wavefunction output            ... epr_info.pout.tmp
Perturbation mode              ... Imaginary perturbation
Solver                         ... POPLE
Max. number of iterations      ... 64
Convergence tolerance          ... 1.000e-03
Integral handling              ... Direct
DFT GridXC                     ... 1
COSX GridX                     ... 1
COSX IntAccX                   ... 3.067
COSX Algorithm                 ... Auto
Number of perturbations        ... 3
Number of operators            ... 2
Orbital ranges used for CP-SCF:
 Operator 0:  Orbitals   0... 54  to  55...363
 Operator 1:  Orbitals   0... 53  to  54...363
Variables per perturbation     ... 33735
DFT calculation                         ... on
XC functional terms                     ... off
Hybrid DFT                              ... on
   Exchange mixing (SCF)                ...  0.200
   Exchange mixing (CP-SCF)             ...  0.200
   GGA exch. scaling(SCF)               ...  0.720
   GGA exch. scaling (CP-SCF)           ...  0.720
   GGA corr. scaling (SCF)              ...  0.810
   GGA corr. scaling (CP-SCF)           ...  0.810

CP-SCF GRID
-----------

General Integration Accuracy     IntAcc      ... 3.467
Radial Grid Type                 RadialGrid  ... OptM3 with GC (2021)
Angular Grid (max. ang.)         AngularGrid ... 1 (Lebedev-50)
Angular grid pruning method      GridPruning ... 4 (adaptive)
Weight generation scheme         WeightScheme... Becke
Basis function cutoff            BFCut       ... 1.0000e-10
Integration weight cutoff        WCut        ... 1.0000e-14
Angular grids for H and He will be reduced by one unit
Partially contracted basis set               ... off
Rotationally invariant grid construction     ... off

Total number of grid points                  ...    19978
Total number of batches                      ...      330
Average number of points per batch           ...       60
Average number of grid points per atom       ...      624

CP-SCF GRIDX
------------

General Integration Accuracy     IntAcc      ... 3.067
Radial Grid Type                 RadialGrid  ... OptM3 with GC (2021)
Angular Grid (max. ang.)         AngularGrid ... 1 (Lebedev-50)
Angular grid pruning method      GridPruning ... 4 (adaptive)
Weight generation scheme         WeightScheme... Becke
Basis function cutoff            BFCut       ... 1.0000e-10
Integration weight cutoff        WCut        ... 1.0000e-14
Angular grids for H and He will be reduced by one unit
Partially contracted basis set               ... on
Rotationally invariant grid construction     ... off

Total number of grid points                  ...     9430
Total number of batches                      ...      165
Average number of points per batch           ...       57
Average number of grid points per atom       ...      295

Memory available               ... 923.5 MB
Memory needed per perturbation ...   8.0 MB
Perturbations treated per batch... 3
Number of batches              ... 1
     CP-SCF ITERATION   0:   4.0645e-02 (   0.4 sec   0/  3 done)
     CP-SCF ITERATION   1:   1.2544e-03 (   0.5 sec   1/  3 done)
     CP-SCF ITERATION   2:   1.1541e-04 (   0.4 sec   3/  3 done)
                    *** THE CP-SCF HAS CONVERGED ***

Forming final perturbed densities           ... done
Transforming perturbed density to AO basis  ... done

 Raw HFC matrix (all values in MHz): 
 -----------------------------------
               100.7108              -0.1992               4.9486
                -0.2008              96.1188               0.6471
                 4.9465               0.6503             103.8695

 A(FC)         100.2318             100.2318             100.2318
 A(SD)          -4.3679              -2.8954               7.2633
 A(ORB+DIA)      0.0004               0.0002               0.0030    A(PC) =   0.0012
 A(ORB)         -0.0002              -0.0005               0.0023    A(PC) =   0.0005
 A(DIA)          0.0006               0.0008               0.0007    A(PC) =   0.0007
             ----------           ----------           ----------
 A(Tot)         95.8643              97.3365             107.4982    A(iso)=  100.2330
 Orientation: 
  X          -0.3068424            0.7483878            0.5880165
  Y          -0.9145190           -0.4029690            0.0356518
  Z           0.2636338           -0.5268127            0.8080628

Notes:  (1) The A matrix conforms to the "SAI" spin Hamiltonian convention.
        (2) Tensor is right-handed.

 -----------------------------------------------------------
 Nucleus  30H : A:ISTP=    1 I=  0.5 P=533.5514 MHz/au**3
                Q:ISTP=    2 I=  1.0 Q=  0.0029 barn     
 -----------------------------------------------------------
 Solving for nuclear perturbation:
Forming RHS of the CP-SCF equations         ... 
Calc. nucleus orbit integrals (SHARK)       ... done

------------------------------------------------------------------------------
                           ORCA CP-SCF CALCULATION
------------------------------------------------------------------------------

Input orbitals are from        ... epr_info.gbw
Input Perturbation             ... epr_info.pin.tmp
Wavefunction output            ... epr_info.pout.tmp
Perturbation mode              ... Imaginary perturbation
Solver                         ... POPLE
Max. number of iterations      ... 64
Convergence tolerance          ... 1.000e-03
Integral handling              ... Direct
DFT GridXC                     ... 1
COSX GridX                     ... 1
COSX IntAccX                   ... 3.067
COSX Algorithm                 ... Auto
Number of perturbations        ... 3
Number of operators            ... 2
Orbital ranges used for CP-SCF:
 Operator 0:  Orbitals   0... 54  to  55...363
 Operator 1:  Orbitals   0... 53  to  54...363
Variables per perturbation     ... 33735
DFT calculation                         ... on
XC functional terms                     ... off
Hybrid DFT                              ... on
   Exchange mixing (SCF)                ...  0.200
   Exchange mixing (CP-SCF)             ...  0.200
   GGA exch. scaling(SCF)               ...  0.720
   GGA exch. scaling (CP-SCF)           ...  0.720
   GGA corr. scaling (SCF)              ...  0.810
   GGA corr. scaling (CP-SCF)           ...  0.810

CP-SCF GRID
-----------

General Integration Accuracy     IntAcc      ... 3.467
Radial Grid Type                 RadialGrid  ... OptM3 with GC (2021)
Angular Grid (max. ang.)         AngularGrid ... 1 (Lebedev-50)
Angular grid pruning method      GridPruning ... 4 (adaptive)
Weight generation scheme         WeightScheme... Becke
Basis function cutoff            BFCut       ... 1.0000e-10
Integration weight cutoff        WCut        ... 1.0000e-14
Angular grids for H and He will be reduced by one unit
Partially contracted basis set               ... off
Rotationally invariant grid construction     ... off

Total number of grid points                  ...    19978
Total number of batches                      ...      330
Average number of points per batch           ...       60
Average number of grid points per atom       ...      624

CP-SCF GRIDX
------------

General Integration Accuracy     IntAcc      ... 3.067
Radial Grid Type                 RadialGrid  ... OptM3 with GC (2021)
Angular Grid (max. ang.)         AngularGrid ... 1 (Lebedev-50)
Angular grid pruning method      GridPruning ... 4 (adaptive)
Weight generation scheme         WeightScheme... Becke
Basis function cutoff            BFCut       ... 1.0000e-10
Integration weight cutoff        WCut        ... 1.0000e-14
Angular grids for H and He will be reduced by one unit
Partially contracted basis set               ... on
Rotationally invariant grid construction     ... off

Total number of grid points                  ...     9430
Total number of batches                      ...      165
Average number of points per batch           ...       57
Average number of grid points per atom       ...      295

Memory available               ... 923.2 MB
Memory needed per perturbation ...   8.0 MB
Perturbations treated per batch... 3
Number of batches              ... 1
     CP-SCF ITERATION   0:   4.0228e-02 (   0.5 sec   0/  3 done)
     CP-SCF ITERATION   1:   1.1799e-03 (   0.5 sec   2/  3 done)
     CP-SCF ITERATION   2:   9.6816e-05 (   0.3 sec   3/  3 done)
                    *** THE CP-SCF HAS CONVERGED ***

Forming final perturbed densities           ... done
Transforming perturbed density to AO basis  ... done

 Raw HFC matrix (all values in MHz): 
 -----------------------------------
                28.8673              -4.3681               4.4568
                -4.3712              28.7620              -4.8531
                 4.4589              -4.8539              31.0394

 A(FC)          29.5536              29.5536              29.5536
 A(SD)          -5.1698              -4.0545               9.2243
 A(ORB+DIA)      0.0020              -0.0001               0.0063    A(PC) =   0.0027
 A(ORB)          0.0012              -0.0006               0.0053    A(PC) =   0.0019
 A(DIA)          0.0008               0.0005               0.0010    A(PC) =   0.0008
             ----------           ----------           ----------
 A(Tot)         24.3857              25.4989              38.7842    A(iso)=   29.5563
 Orientation: 
  X           0.5886850           -0.6089883            0.5315856
  Y           0.7879589            0.2854815           -0.5455466
  Z           0.1804737            0.7400227            0.6479164

Notes:  (1) The A matrix conforms to the "SAI" spin Hamiltonian convention.
        (2) Tensor is right-handed.

 -----------------------------------------------------------
 Nucleus  31H : A:ISTP=    1 I=  0.5 P=533.5514 MHz/au**3
                Q:ISTP=    2 I=  1.0 Q=  0.0029 barn     
 -----------------------------------------------------------
 Solving for nuclear perturbation:
Forming RHS of the CP-SCF equations         ... 
Calc. nucleus orbit integrals (SHARK)       ... done

------------------------------------------------------------------------------
                           ORCA CP-SCF CALCULATION
------------------------------------------------------------------------------

Input orbitals are from        ... epr_info.gbw
Input Perturbation             ... epr_info.pin.tmp
Wavefunction output            ... epr_info.pout.tmp
Perturbation mode              ... Imaginary perturbation
Solver                         ... POPLE
Max. number of iterations      ... 64
Convergence tolerance          ... 1.000e-03
Integral handling              ... Direct
DFT GridXC                     ... 1
COSX GridX                     ... 1
COSX IntAccX                   ... 3.067
COSX Algorithm                 ... Auto
Number of perturbations        ... 3
Number of operators            ... 2
Orbital ranges used for CP-SCF:
 Operator 0:  Orbitals   0... 54  to  55...363
 Operator 1:  Orbitals   0... 53  to  54...363
Variables per perturbation     ... 33735
DFT calculation                         ... on
XC functional terms                     ... off
Hybrid DFT                              ... on
   Exchange mixing (SCF)                ...  0.200
   Exchange mixing (CP-SCF)             ...  0.200
   GGA exch. scaling(SCF)               ...  0.720
   GGA exch. scaling (CP-SCF)           ...  0.720
   GGA corr. scaling (SCF)              ...  0.810
   GGA corr. scaling (CP-SCF)           ...  0.810

CP-SCF GRID
-----------

General Integration Accuracy     IntAcc      ... 3.467
Radial Grid Type                 RadialGrid  ... OptM3 with GC (2021)
Angular Grid (max. ang.)         AngularGrid ... 1 (Lebedev-50)
Angular grid pruning method      GridPruning ... 4 (adaptive)
Weight generation scheme         WeightScheme... Becke
Basis function cutoff            BFCut       ... 1.0000e-10
Integration weight cutoff        WCut        ... 1.0000e-14
Angular grids for H and He will be reduced by one unit
Partially contracted basis set               ... off
Rotationally invariant grid construction     ... off

Total number of grid points                  ...    19978
Total number of batches                      ...      330
Average number of points per batch           ...       60
Average number of grid points per atom       ...      624

CP-SCF GRIDX
------------

General Integration Accuracy     IntAcc      ... 3.067
Radial Grid Type                 RadialGrid  ... OptM3 with GC (2021)
Angular Grid (max. ang.)         AngularGrid ... 1 (Lebedev-50)
Angular grid pruning method      GridPruning ... 4 (adaptive)
Weight generation scheme         WeightScheme... Becke
Basis function cutoff            BFCut       ... 1.0000e-10
Integration weight cutoff        WCut        ... 1.0000e-14
Angular grids for H and He will be reduced by one unit
Partially contracted basis set               ... on
Rotationally invariant grid construction     ... off

Total number of grid points                  ...     9430
Total number of batches                      ...      165
Average number of points per batch           ...       57
Average number of grid points per atom       ...      295

Memory available               ... 922.8 MB
Memory needed per perturbation ...   8.0 MB
Perturbations treated per batch... 3
Number of batches              ... 1
     CP-SCF ITERATION   0:   7.4314e-02 (   0.4 sec   0/  3 done)
     CP-SCF ITERATION   1:   2.8806e-03 (   0.4 sec   0/  3 done)
     CP-SCF ITERATION   2:   2.4077e-04 (   0.5 sec   3/  3 done)
                    *** THE CP-SCF HAS CONVERGED ***

Forming final perturbed densities           ... done
Transforming perturbed density to AO basis  ... done

 Raw HFC matrix (all values in MHz): 
 -----------------------------------
               -57.1933              -4.1515              -4.8637
                -4.1492               0.1311             -15.6088
                -4.8637             -15.6132             -21.9662

 A(FC)         -26.3588             -26.3588             -26.3588
 A(SD)          34.5797              -2.3251             -32.2546
 A(ORB+DIA)      0.0194              -0.0015               0.0300    A(PC) =   0.0160
 A(ORB)          0.0149               0.0006               0.0295    A(PC) =   0.0150
 A(DIA)          0.0046              -0.0021               0.0005    A(PC) =   0.0010
             ----------           ----------           ----------
 A(Tot)          8.2404             -28.6854             -58.5834    A(iso)=  -26.3428
 Orientation: 
  X          -0.0225516           -0.2129904            0.9767940
  Y           0.8896485            0.4414561            0.1167994
  Z          -0.4560888            0.8716373            0.1795311

Notes:  (1) The A matrix conforms to the "SAI" spin Hamiltonian convention.
        (2) Tensor is right-handed.


--------------------------------------------------------------------------------
----------------------------------------------------------------------------
                           ORCA EULER ANGLE PROGRAM
----------------------------------------------------------------------------

Only g-tensor available        -->  using g-tensor as reference tensor

Reference tensor               ...  g

g-tensor ordering              ...  |g_min> --> |gx>
                                    |g_mid> --> |gy>
                                    |g_max> --> |gz>

A- and EFG-tensor ordering     ...  the axes |Ax>, |Qx>, |Ay>, etc. are assigned
                                    such that the Euler rotation is minimal. You
                                    can find the respective eigenvalues as Ax,
                                    EFGx, Ay, etc. in the tables below.
                                    The relation of |Ax>, |Ay>,  etc. to Amin, Amid, etc.
                                    (as printed in the ORCA EPR/NMR CALCULATION Output)
                                    is obtained in the detailed printout.

Euler rotation around          ...  z - y - z
   First rotation              -->  by alpha around z
   Second rotation             -->  by beta around y'
   Third rotation              -->  by gamma around z''
   Positive / Negative angle   -->  clockwise / counterclockwise rotation

Plot EFG-tensors                    (-)
Plot HFC-tensors                    (-)
Detailed Printout                   (-)

-------------------------------------------------------------------------
          Euler rotation of hyperfine tensor to g-tensor
-------------------------------------------------------------------------

-------------------------------------------------------------------
 Atom  |   Alpha    Beta    Gamma   |   Ax       Ay       Az 
       |          [degrees]         |           [MHz]         
-------------------------------------------------------------------
  8N      -48.7      6.8     32.7     417.03    25.01    21.52
  9H       74.2     43.4   -101.0       5.18    -0.89    29.07
 10H      -91.8     37.1     70.1      12.23     6.18    35.89
 27H       -9.8     15.3     -1.0      -3.91     4.09    -4.20
 28H      -31.1     41.0     46.2      -3.79     5.17    -5.29
 29H      103.3     42.5   -138.0      97.34    95.86   107.50
 30H       56.7     12.0    -91.1      25.50    24.39    38.78
 31H      -58.0     27.3     52.2     -28.69   -58.58     8.24
-------------------------------------------------------------------


Maximum memory used throughout the entire EPRNMR-calculation: 134.8 MB

Timings for individual modules:

Sum of individual times         ...      262.682 sec (=   4.378 min)
GTO integral calculation        ...        3.629 sec (=   0.060 min)   1.4 %
Spin-Orbit-Coupling Matrices    ...        4.729 sec (=   0.079 min)   1.8 %
SCF iterations                  ...       23.844 sec (=   0.397 min)   9.1 %
EPR/NMR calculation             ...      230.479 sec (=   3.841 min)  87.7 %
                             ****ORCA TERMINATED NORMALLY****
TOTAL RUN TIME: 0 days 0 hours 4 minutes 25 seconds 287 msec
