
                                 *****************
                                 * O   R   C   A *
                                 *****************

                                            #,                                       
                                            ###                                      
                                            ####                                     
                                            #####                                    
                                            ######                                   
                                           ########,                                 
                                     ,,################,,,,,                         
                               ,,#################################,,                 
                          ,,##########################################,,             
                       ,#########################################, ''#####,          
                    ,#############################################,,   '####,        
                  ,##################################################,,,,####,       
                ,###########''''           ''''###############################       
              ,#####''   ,,,,##########,,,,          '''####'''          '####       
            ,##' ,,,,###########################,,,                        '##       
           ' ,,###''''                  '''############,,,                           
         ,,##''                                '''############,,,,        ,,,,,,###''
      ,#''                                            '''#######################'''  
     '                                                          ''''####''''         
             ,#######,   #######,   ,#######,      ##                                
            ,#'     '#,  ##    ##  ,#'     '#,    #''#        ######   ,####,        
            ##       ##  ##   ,#'  ##            #'  '#       #        #'  '#        
            ##       ##  #######   ##           ,######,      #####,   #    #        
            '#,     ,#'  ##    ##  '#,     ,#' ,#      #,         ##   #,  ,#        
             '#######'   ##     ##  '#######'  #'      '#     #####' # '####'        



                  #######################################################
                  #                        -***-                        #
                  #          Department of theory and spectroscopy      #
                  #    Directorship and core code : Frank Neese         #
                  #        Max Planck Institute fuer Kohlenforschung    #
                  #                Kaiser Wilhelm Platz 1               #
                  #                 D-45470 Muelheim/Ruhr               #
                  #                      Germany                        #
                  #                                                     #
                  #                  All rights reserved                #
                  #                        -***-                        #
                  #######################################################


                         Program Version 5.0.4 -  RELEASE  -


 With contributions from (in alphabetic order):
   Daniel Aravena         : Magnetic Suceptibility
   Michael Atanasov       : Ab Initio Ligand Field Theory (pilot matlab implementation)
   Alexander A. Auer      : GIAO ZORA, VPT2 properties, NMR spectrum
   Ute Becker             : Parallelization
   Giovanni Bistoni       : ED, misc. LED, open-shell LED, HFLD
   Martin Brehm           : Molecular dynamics
   Dmytro Bykov           : SCF Hessian
   Vijay G. Chilkuri      : MRCI spin determinant printing, contributions to CSF-ICE
   Dipayan Datta          : RHF DLPNO-CCSD density
   Achintya Kumar Dutta   : EOM-CC, STEOM-CC
   Dmitry Ganyushin       : Spin-Orbit,Spin-Spin,Magnetic field MRCI
   Miquel Garcia          : C-PCM and meta-GGA Hessian, CC/C-PCM, Gaussian charge scheme
   Yang Guo               : DLPNO-NEVPT2, F12-NEVPT2, CIM, IAO-localization
   Andreas Hansen         : Spin unrestricted coupled pair/coupled cluster methods
   Benjamin Helmich-Paris : MC-RPA, TRAH-SCF, COSX integrals
   Lee Huntington         : MR-EOM, pCC
   Robert Izsak           : Overlap fitted RIJCOSX, COSX-SCS-MP3, EOM
   Marcus Kettner         : VPT2
   Christian Kollmar      : KDIIS, OOCD, Brueckner-CCSD(T), CCSD density, CASPT2, CASPT2-K
   Simone Kossmann        : Meta GGA functionals, TD-DFT gradient, OOMP2, MP2 Hessian
   Martin Krupicka        : Initial AUTO-CI
   Lucas Lang             : DCDCAS
   Marvin Lechner         : AUTO-CI (C++ implementation), FIC-MRCC
   Dagmar Lenk            : GEPOL surface, SMD
   Dimitrios Liakos       : Extrapolation schemes; Compound Job, initial MDCI parallelization
   Dimitrios Manganas     : Further ROCIS development; embedding schemes
   Dimitrios Pantazis     : SARC Basis sets
   Anastasios Papadopoulos: AUTO-CI, single reference methods and gradients
   Taras Petrenko         : DFT Hessian,TD-DFT gradient, ASA, ECA, R-Raman, ABS, FL, XAS/XES, NRVS
   Peter Pinski           : DLPNO-MP2, DLPNO-MP2 Gradient
   Christoph Reimann      : Effective Core Potentials
   Marius Retegan         : Local ZFS, SOC
   Christoph Riplinger    : Optimizer, TS searches, QM/MM, DLPNO-CCSD(T), (RO)-DLPNO pert. Triples
   Tobias Risthaus        : Range-separated hybrids, TD-DFT gradient, RPA, STAB
   Michael Roemelt        : Original ROCIS implementation
   Masaaki Saitow         : Open-shell DLPNO-CCSD energy and density
   Barbara Sandhoefer     : DKH picture change effects
   Avijit Sen             : IP-ROCIS
   Kantharuban Sivalingam : CASSCF convergence, NEVPT2, FIC-MRCI
   Bernardo de Souza      : ESD, SOC TD-DFT
   Georgi Stoychev        : AutoAux, RI-MP2 NMR, DLPNO-MP2 response
   Willem Van den Heuvel  : Paramagnetic NMR
   Boris Wezisla          : Elementary symmetry handling
   Frank Wennmohs         : Technical directorship


 We gratefully acknowledge several colleagues who have allowed us to
 interface, adapt or use parts of their codes:
   Stefan Grimme, W. Hujo, H. Kruse, P. Pracht,  : VdW corrections, initial TS optimization,
                  C. Bannwarth, S. Ehlert          DFT functionals, gCP, sTDA/sTD-DF
   Ed Valeev, F. Pavosevic, A. Kumar             : LibInt (2-el integral package), F12 methods
   Garnet Chan, S. Sharma, J. Yang, R. Olivares  : DMRG
   Ulf Ekstrom                                   : XCFun DFT Library
   Mihaly Kallay                                 : mrcc  (arbitrary order and MRCC methods)
   Jiri Pittner, Ondrej Demel                    : Mk-CCSD
   Frank Weinhold                                : gennbo (NPA and NBO analysis)
   Christopher J. Cramer and Donald G. Truhlar   : smd solvation model
   Lars Goerigk                                  : TD-DFT with DH, B97 family of functionals
   V. Asgeirsson, H. Jonsson                     : NEB implementation
   FAccTs GmbH                                   : IRC, NEB, NEB-TS, DLPNO-Multilevel, CI-OPT
                                                   MM, QMMM, 2- and 3-layer-ONIOM, Crystal-QMMM,
                                                   LR-CPCM, SF, NACMEs, symmetry and pop. for TD-DFT,
                                                   nearIR, NL-DFT gradient (VV10), updates on ESD,
                                                   ML-optimized integration grids
   S Lehtola, MJT Oliveira, MAL Marques          : LibXC Library
   Liviu Ungur et al                             : ANISO software


 Your calculation uses the libint2 library for the computation of 2-el integrals
 For citations please refer to: http://libint.valeyev.net

 Your ORCA version has been built with support for libXC version: 5.1.0
 For citations please refer to: https://tddft.org/programs/libxc/

 This ORCA versions uses:
   CBLAS   interface :  Fast vector & matrix operations
   LAPACKE interface :  Fast linear algebra routines
   SCALAPACK package :  Parallel linear algebra routines
   Shared memory     :  Shared parallel matrices
   BLAS/LAPACK       :  OpenBLAS 0.3.15  USE64BITINT DYNAMIC_ARCH NO_AFFINITY Zen SINGLE_THREADED
        Core in use  :  Zen
   Copyright (c) 2011-2014, The OpenBLAS Project




***************************************
The coordinates will be read from file: opt.xyz
***************************************


XCFun DFT library Copyright 2009-2010 Ulf Ekstrom and contributors.
See http://admol.org/xcfun for more information.
This is free software; see the source code for copying conditions.
There is ABSOLUTELY NO WARRANTY; not even for MERCHANTABILITY or FITNESS FOR A PARTICULAR PURPOSE.
For details see the documentation.
Scientific users of this library should cite U. Ekstrom, L. Visscher, R. Bast, A. J. Thorvaldsen and K. Ruud;
J.Chem.Theor.Comp. 2010, DOI: 10.1021/ct100117s
XCFun Version 0.99 

================================================================================

----- Orbital basis set information -----
Your calculation utilizes the basis: def2-TZVP
   F. Weigend and R. Ahlrichs, Phys. Chem. Chem. Phys. 7, 3297 (2005).

----- AuxJ basis set information -----
Your calculation utilizes the auxiliary basis: def2/J
   F. Weigend, Phys. Chem. Chem. Phys. 8, 1057 (2006).

================================================================================
                                        WARNINGS
                       Please study these warnings very carefully!
================================================================================


WARNING: your system is open-shell and RHF/RKS was chosen
  ===> : WILL SWITCH to UHF/UKS


WARNING: Geometry Optimization
  ===> : Switching off AutoStart
         For restart on a previous wavefunction, please use MOREAD

WARNING: Minnesota functionals are quite sensitive to the integration grid.
         see SE Wheeler, KN Houk, JCTC 2010, 6, 395,
             N Mardirossian, M Head-Gordon, JCTC 2016, 12, 4303.
         DEFGRID3 seems to be a minimum grid for reliable results with these functionals!
  ===> : Please increase the integration grid!


INFO   : the flag for use of the SHARK integral package has been found!

================================================================================
                                       INPUT FILE
================================================================================
NAME = freq.inp
|  1> ! M062X def2-TZVP OPT FREQ
|  2> %pal nprocs 16 end
|  3> *XYZFile 0 2 opt.xyz
|  4> 
|  5>                          ****END OF INPUT****
================================================================================

                       *****************************
                       * Geometry Optimization Run *
                       *****************************

Geometry optimization settings:
Update method            Update   .... BFGS
Choice of coordinates    CoordSys .... Z-matrix Internals
Initial Hessian          InHess   .... Almoef's Model

Convergence Tolerances:
Energy Change            TolE     ....  5.0000e-06 Eh
Max. Gradient            TolMAXG  ....  3.0000e-04 Eh/bohr
RMS Gradient             TolRMSG  ....  1.0000e-04 Eh/bohr
Max. Displacement        TolMAXD  ....  4.0000e-03 bohr
RMS Displacement         TolRMSD  ....  2.0000e-03 bohr
Strict Convergence                ....  False
------------------------------------------------------------------------------
                        ORCA OPTIMIZATION COORDINATE SETUP
------------------------------------------------------------------------------

The optimization will be done in new redundant internal coordinates
Making redundant internal coordinates   ...  (new redundants) done
Evaluating the initial hessian          ...  (Almloef) done
Evaluating the coordinates              ...  done
Calculating the B-matrix                .... done
Calculating the G-matrix                .... done
Diagonalizing the G-matrix              .... done
Small eigenvalue found = 6.450e-03
Small eigenvalue found = 6.747e-03
Small eigenvalue found = 9.849e-03
Small eigenvalue found = 2.267e-02
Small eigenvalue found = 2.973e-02
The first mode is                       ....   64
The number of degrees of freedom        ....   90

    -----------------------------------------------------------------
                    Redundant Internal Coordinates


    -----------------------------------------------------------------
         Definition                    Initial Value    Approx d2E/dq
    -----------------------------------------------------------------
      1. B(C   1,N   0)                  1.4535         0.443102   
      2. B(C   2,C   1)                  1.5432         0.355827   
      3. B(O   3,C   2)                  1.2327         0.997177   
      4. B(C   4,C   1)                  1.5536         0.342593   
      5. B(C   5,C   4)                  1.5372         0.363880   
      6. B(C   6,C   5)                  1.5407         0.359174   
      7. B(C   7,C   6)                  1.5051         0.409394   
      8. B(N   8,C   7)                  1.4136         0.513147   
      9. B(H   9,N   8)                  1.0131         0.427840   
     10. B(H  10,N   8)                  1.0144         0.425806   
     11. B(H  11,N   0)                  1.0121         0.429404   
     12. B(C  12,N   0)                  1.3666         0.609746   
     13. B(N  13,C   2)                  1.3645         0.614611   
     14. B(H  14,N  13)                  1.0086         0.434892   
     15. B(O  15,C  12)                  1.2324         0.998532   
     16. B(C  16,C  12)                  1.5261         0.378955   
     17. B(H  17,C  16)                  1.0935         0.355468   
     18. B(H  18,C  16)                  1.0933         0.355753   
     19. B(H  19,C  16)                  1.0932         0.355840   
     20. B(C  20,N  13)                  1.4587         0.434714   
     21. B(H  21,C  20)                  1.0954         0.353084   
     22. B(H  22,C  20)                  1.0949         0.353666   
     23. B(H  23,C  20)                  1.0901         0.360023   
     24. B(H  24,C   1)                  1.0973         0.350627   
     25. B(H  25,C   4)                  1.0983         0.349289   
     26. B(H  26,C   4)                  1.0953         0.353186   
     27. B(H  27,C   5)                  1.0980         0.349671   
     28. B(H  28,C   5)                  1.0954         0.353087   
     29. B(H  29,C   6)                  1.1062         0.339240   
     30. B(H  30,C   6)                  1.1010         0.345846   
     31. B(H  31,C   7)                  1.0892         0.361117   
     32. A(H  11,N   0,C  12)          121.4887         0.357187   
     33. A(C   1,N   0,H  11)          115.2555         0.338492   
     34. A(C   1,N   0,C  12)          122.2185         0.402376   
     35. A(N   0,C   1,C   4)          112.7926         0.366323   
     36. A(N   0,C   1,H  24)          108.1517         0.330116   
     37. A(N   0,C   1,C   2)          106.9859         0.368713   
     38. A(C   4,C   1,H  24)          107.6342         0.318364   
     39. A(C   2,C   1,C   4)          111.9454         0.355080   
     40. A(C   2,C   1,H  24)          109.2372         0.320340   
     41. A(C   1,C   2,N  13)          114.8536         0.390213   
     42. A(C   1,C   2,O   3)          121.7473         0.425081   
     43. A(O   3,C   2,N  13)          123.3878         0.466206   
     44. A(H  25,C   4,H  26)          106.5573         0.288574   
     45. A(C   5,C   4,H  26)          110.1911         0.321898   
     46. A(C   5,C   4,H  25)          109.7208         0.321314   
     47. A(C   1,C   4,C   5)          114.7037         0.356432   
     48. A(C   1,C   4,H  26)          106.6008         0.318742   
     49. A(C   1,C   4,H  25)          108.7178         0.318166   
     50. A(C   4,C   5,H  28)          109.5858         0.321884   
     51. A(C   6,C   5,H  27)          109.0273         0.320688   
     52. A(C   6,C   5,H  28)          109.1767         0.321198   
     53. A(C   4,C   5,C   6)          112.3776         0.359308   
     54. A(C   4,C   5,H  27)          109.9897         0.321372   
     55. A(H  27,C   5,H  28)          106.5070         0.288611   
     56. A(H  29,C   6,H  30)          105.6143         0.286320   
     57. A(C   5,C   6,C   7)          112.8354         0.366615   
     58. A(C   7,C   6,H  30)          109.5385         0.327060   
     59. A(C   5,C   6,H  30)          109.1550         0.320112   
     60. A(C   7,C   6,H  29)          110.4069         0.326023   
     61. A(C   5,C   6,H  29)          109.0296         0.319105   
     62. A(C   6,C   7,H  31)          118.1228         0.329400   
     63. A(C   6,C   7,N   8)          117.4565         0.387485   
     64. A(N   8,C   7,H  31)          114.2506         0.339928   
     65. A(H   9,N   8,H  10)          109.7143         0.301933   
     66. A(C   7,N   8,H  10)          113.2155         0.346428   
     67. A(C   7,N   8,H   9)          113.4088         0.346706   
     68. A(O  15,C  12,C  16)          121.8489         0.430010   
     69. A(N   0,C  12,C  16)          115.7023         0.393988   
     70. A(N   0,C  12,O  15)          122.4460         0.465644   
     71. A(H  14,N  13,C  20)          118.6912         0.338130   
     72. A(C   2,N  13,C  20)          123.2138         0.401585   
     73. A(C   2,N  13,H  14)          118.0732         0.358443   
     74. A(H  18,C  16,H  19)          109.3874         0.289744   
     75. A(H  17,C  16,H  19)          109.2191         0.289708   
     76. A(C  12,C  16,H  19)          113.5052         0.324447   
     77. A(H  17,C  16,H  18)          107.5979         0.289696   
     78. A(C  12,C  16,H  18)          108.4661         0.324433   
     79. A(C  12,C  16,H  17)          108.4962         0.324391   
     80. A(H  21,C  20,H  22)          109.0577         0.289124   
     81. A(N  13,C  20,H  22)          110.8302         0.329544   
     82. A(N  13,C  20,H  21)          111.1272         0.329455   
     83. A(H  22,C  20,H  23)          109.1583         0.290008   
     84. A(H  21,C  20,H  23)          108.9130         0.289933   
     85. A(N  13,C  20,H  23)          107.7073         0.330516   
     86. D(H  24,C   1,N   0,H  11)    131.0201         0.016744   
     87. D(C   4,C   1,N   0,C  12)     81.4354         0.016744   
     88. D(H  24,C   1,N   0,C  12)    -37.4835         0.016744   
     89. D(C   2,C   1,N   0,C  12)   -155.0448         0.016744   
     90. D(C   4,C   1,N   0,H  11)   -110.0610         0.016744   
     91. D(C   2,C   1,N   0,H  11)     13.4588         0.016744   
     92. D(N  13,C   2,C   1,C   4)    -69.0796         0.009539   
     93. D(N  13,C   2,C   1,N   0)    166.8794         0.009539   
     94. D(O   3,C   2,C   1,N   0)    -14.3028         0.009539   
     95. D(N  13,C   2,C   1,H  24)     50.0328         0.009539   
     96. D(O   3,C   2,C   1,C   4)    109.7383         0.009539   
     97. D(O   3,C   2,C   1,H  24)   -131.1494         0.009539   
     98. D(C   5,C   4,C   1,C   2)    -57.6686         0.009490   
     99. D(C   5,C   4,C   1,N   0)     63.0582         0.009490   
    100. D(H  26,C   4,C   1,C   2)   -179.9172         0.009490   
    101. D(C   5,C   4,C   1,H  24)   -177.7223         0.009490   
    102. D(H  25,C   4,C   1,H  24)    -54.4895         0.009490   
    103. D(H  25,C   4,C   1,C   2)     65.5642         0.009490   
    104. D(H  25,C   4,C   1,N   0)   -173.7090         0.009490   
    105. D(H  26,C   4,C   1,H  24)     60.0291         0.009490   
    106. D(H  26,C   4,C   1,N   0)    -59.1904         0.009490   
    107. D(H  28,C   5,C   4,H  26)     64.8649         0.010607   
    108. D(H  28,C   5,C   4,H  25)   -178.1103         0.010607   
    109. D(H  28,C   5,C   4,C   1)    -55.4168         0.010607   
    110. D(H  27,C   5,C   4,H  26)   -178.3693         0.010607   
    111. D(H  27,C   5,C   4,H  25)    -61.3444         0.010607   
    112. D(H  27,C   5,C   4,C   1)     61.3491         0.010607   
    113. D(C   6,C   5,C   4,H  26)    -56.7052         0.010607   
    114. D(C   6,C   5,C   4,H  25)     60.3197         0.010607   
    115. D(C   6,C   5,C   4,C   1)   -176.9868         0.010607   
    116. D(C   7,C   6,C   5,C   4)   -178.6338         0.010353   
    117. D(H  30,C   6,C   5,H  27)   -178.4564         0.010353   
    118. D(H  30,C   6,C   5,C   4)     59.3324         0.010353   
    119. D(H  29,C   6,C   5,H  28)   -177.3819         0.010353   
    120. D(H  29,C   6,C   5,H  27)     66.6324         0.010353   
    121. D(H  29,C   6,C   5,C   4)    -55.5788         0.010353   
    122. D(C   7,C   6,C   5,H  28)     59.5630         0.010353   
    123. D(H  30,C   6,C   5,H  28)    -62.4707         0.010353   
    124. D(C   7,C   6,C   5,H  27)    -56.4227         0.010353   
    125. D(H  31,C   7,C   6,H  30)    168.4161         0.012415   
    126. D(H  31,C   7,C   6,H  29)    -75.6867         0.012415   
    127. D(H  31,C   7,C   6,C   5)     46.5985         0.012415   
    128. D(N   8,C   7,C   6,H  30)    -48.2110         0.012415   
    129. D(N   8,C   7,C   6,H  29)     67.6862         0.012415   
    130. D(N   8,C   7,C   6,C   5)   -170.0287         0.012415   
    131. D(H  10,N   8,C   7,H  31)   -168.8268         0.020855   
    132. D(H  10,N   8,C   7,C   6)     46.4196         0.020855   
    133. D(H   9,N   8,C   7,H  31)    -42.9771         0.020855   
    134. D(H   9,N   8,C   7,C   6)    172.2693         0.020855   
    135. D(C  16,C  12,N   0,H  11)      8.2218         0.030029   
    136. D(C  16,C  12,N   0,C   1)    176.0184         0.030029   
    137. D(O  15,C  12,N   0,H  11)   -172.3693         0.030029   
    138. D(O  15,C  12,N   0,C   1)     -4.5727         0.030029   
    139. D(C  20,N  13,C   2,O   3)     -0.4406         0.030547   
    140. D(C  20,N  13,C   2,C   1)    178.3554         0.030547   
    141. D(H  14,N  13,C   2,O   3)    177.8362         0.030547   
    142. D(H  14,N  13,C   2,C   1)     -3.3678         0.030547   
    143. D(H  19,C  16,C  12,N   0)     -1.7013         0.010720   
    144. D(H  18,C  16,C  12,O  15)     57.0913         0.010720   
    145. D(H  18,C  16,C  12,N   0)   -123.4960         0.010720   
    146. D(H  17,C  16,C  12,O  15)    -59.5124         0.010720   
    147. D(H  19,C  16,C  12,O  15)    178.8859         0.010720   
    148. D(H  17,C  16,C  12,N   0)    119.9003         0.010720   
    149. D(H  23,C  20,N  13,H  14)    177.5733         0.016112   
    150. D(H  23,C  20,N  13,C   2)     -4.1600         0.016112   
    151. D(H  22,C  20,N  13,H  14)     58.2281         0.016112   
    152. D(H  22,C  20,N  13,C   2)   -123.5051         0.016112   
    153. D(H  21,C  20,N  13,H  14)    -63.2080         0.016112   
    154. D(H  21,C  20,N  13,C   2)    115.0587         0.016112   
    -----------------------------------------------------------------

Number of atoms                         .... 32
Number of degrees of freedom            .... 154

         *************************************************************
         *                GEOMETRY OPTIMIZATION CYCLE   1            *
         *************************************************************
---------------------------------
CARTESIAN COORDINATES (ANGSTROEM)
---------------------------------
  N     -1.814178    0.779892    0.764814
  C     -1.500883   -0.115836   -0.336227
  C     -1.668918   -1.555964    0.192371
  O     -1.753689   -1.798625    1.398016
  C     -0.082956    0.125341   -0.923496
  C      1.071465   -0.134274    0.057709
  C      2.446848    0.191739   -0.555313
  C      3.587283   -0.089823    0.385637
  N      4.869971    0.371794    0.011668
  H      5.565694    0.260896    0.739680
  H      4.869326    1.331196   -0.317738
  H     -1.862727    0.343021    1.676465
  C     -2.251078    2.058821    0.561943
  N     -1.689268   -2.521826   -0.771209
  H     -1.647817   -2.230715   -1.736025
  O     -2.328752    2.560687   -0.560927
  C     -2.626121    2.837477    1.819736
  H     -1.988544    3.723704    1.882128
  H     -3.659515    3.180114    1.719659
  H     -2.524251    2.255383    2.739497
  C     -1.804349   -3.945220   -0.473501
  H     -2.743000   -4.355139   -0.861708
  H     -0.965806   -4.502123   -0.904231
  H     -1.790485   -4.059403    0.610472
  H     -2.227707    0.061792   -1.138815
  H      0.040574   -0.503114   -1.815708
  H     -0.059638    1.164715   -1.268158
  H      1.062385   -1.184299    0.378597
  H      0.928158    0.468462    0.961021
  H      2.569312   -0.382850   -1.492663
  H      2.467820    1.251645   -0.852548
  H      3.591392   -1.040391    0.917453

----------------------------
CARTESIAN COORDINATES (A.U.)
----------------------------
  NO LB      ZA    FRAG     MASS         X           Y           Z
   0 N     7.0000    0    14.007   -3.428299    1.473783    1.445290
   1 C     6.0000    0    12.011   -2.836259   -0.218898   -0.635376
   2 C     6.0000    0    12.011   -3.153797   -2.940345    0.363528
   3 O     8.0000    0    15.999   -3.313992   -3.398908    2.641867
   4 C     6.0000    0    12.011   -0.156765    0.236861   -1.745155
   5 C     6.0000    0    12.011    2.024775   -0.253741    0.109055
   6 C     6.0000    0    12.011    4.623873    0.362335   -1.049389
   7 C     6.0000    0    12.011    6.778983   -0.169740    0.728748
   8 N     7.0000    0    14.007    9.202912    0.702588    0.022049
   9 H     1.0000    0     1.008   10.517638    0.493022    1.397793
  10 H     1.0000    0     1.008    9.201692    2.515595   -0.600437
  11 H     1.0000    0     1.008   -3.520044    0.648217    3.168059
  12 C     6.0000    0    12.011   -4.253922    3.890608    1.061918
  13 N     7.0000    0    14.007   -3.192255   -4.765560   -1.457374
  14 H     1.0000    0     1.008   -3.113922   -4.215441   -3.280612
  15 O     8.0000    0    15.999   -4.400704    4.838996   -1.059998
  16 C     6.0000    0    12.011   -4.962650    5.362055    3.438802
  17 H     1.0000    0     1.008   -3.757804    7.036781    3.556706
  18 H     1.0000    0     1.008   -6.915481    6.009545    3.249684
  19 H     1.0000    0     1.008   -4.770144    4.262057    5.176900
  20 C     6.0000    0    12.011   -3.409725   -7.455386   -0.894786
  21 H     1.0000    0     1.008   -5.183518   -8.230020   -1.628392
  22 H     1.0000    0     1.008   -1.825109   -8.507779   -1.708750
  23 H     1.0000    0     1.008   -3.383526   -7.671159    1.153626
  24 H     1.0000    0     1.008   -4.209756    0.116771   -2.152049
  25 H     1.0000    0     1.008    0.076673   -0.950747   -3.431190
  26 H     1.0000    0     1.008   -0.112699    2.200992   -2.396472
  27 H     1.0000    0     1.008    2.007616   -2.238001    0.715444
  28 H     1.0000    0     1.008    1.753964    0.885264    1.816066
  29 H     1.0000    0     1.008    4.855296   -0.723482   -2.820724
  30 H     1.0000    0     1.008    4.663504    2.365265   -1.611081
  31 H     1.0000    0     1.008    6.786748   -1.966055    1.733735

--------------------------------
INTERNAL COORDINATES (ANGSTROEM)
--------------------------------
 N      0   0   0     0.000000000000     0.00000000     0.00000000
 C      1   0   0     1.453538365452     0.00000000     0.00000000
 C      2   1   0     1.543249397798   106.98588638     0.00000000
 O      3   2   1     1.232741056505   121.74733899   345.69723373
 C      2   1   3     1.553566670486   112.79260837   236.48016527
 C      5   2   1     1.537157300549   114.70373173    63.05821968
 C      6   5   2     1.540701155578   112.37759393   183.01324095
 C      7   6   5     1.505076469540   112.83537753   181.36618114
 N      8   7   6     1.413588137212   117.45647363   189.97134093
 H      9   8   7     1.013079687628   113.40884338   172.26927746
 H      9   8   7     1.014376722053   113.21551741    46.41956581
 H      1   2   3     1.012086794658   115.25553863    13.45883134
 C      1   2   3     1.366637325351   122.21854984   204.95524707
 N      3   2   1     1.364474287508   114.85362485   166.87939215
 H     14   3   2     1.008629709841   118.07315424   356.63224065
 O     13   1   2     1.232371214123   122.44603184   355.42727742
 C     13   1   2     1.526107755641   115.70234727   176.01840520
 H     17  13   1     1.093524021507   108.49616875   119.90029750
 H     17  13   1     1.093306271383   108.46609109   236.50401273
 H     17  13   1     1.093239475252   113.50523357   358.29865415
 C     14   3   2     1.458740858577   123.21381332   178.35542079
 H     21  14   3     1.095355855377   111.12715102   115.05873105
 H     21  14   3     1.094907771903   110.83023636   236.49488064
 H     21  14   3     1.090058314286   107.70726941   355.84000424
 H      2   1   3     1.097256944455   108.15167859   117.56124823
 H      5   2   1     1.098297434924   108.71775880   186.29098525
 H      5   2   1     1.095277307446   106.60081392   300.80961550
 H      6   5   2     1.098000150716   109.98973540    61.34911028
 H      6   5   2     1.095353339311   109.58583513   304.58324864
 H      7   6   5     1.106243877737   109.02956162   304.42121985
 H      7   6   5     1.100993762599   109.15501192    59.33244946
 H      8   7   6     1.089231960386   118.12283300    46.59847024

---------------------------
INTERNAL COORDINATES (A.U.)
---------------------------
 N      0   0   0     0.000000000000     0.00000000     0.00000000
 C      1   0   0     2.746789435852     0.00000000     0.00000000
 C      2   1   0     2.916318718176   106.98588638     0.00000000
 O      3   2   1     2.329542990836   121.74733899   345.69723373
 C      2   1   3     2.935815538007   112.79260837   236.48016527
 C      5   2   1     2.904806322795   114.70373173    63.05821968
 C      6   5   2     2.911503238259   112.37759393   183.01324095
 C      7   6   5     2.844182338041   112.83537753   181.36618114
 N      8   7   6     2.671294445491   117.45647363   189.97134093
 H      9   8   7     1.914443161456   113.40884338   172.26927746
 H      9   8   7     1.916894201304   113.21551741    46.41956581
 H      1   2   3     1.912566865662   115.25553863    13.45883134
 C      1   2   3     2.582570269308   122.21854984   204.95524707
 N      3   2   1     2.578482720168   114.85362485   166.87939215
 H     14   3   2     1.906033922137   118.07315424   356.63224065
 O     13   1   2     2.328844090020   122.44603184   355.42727742
 C     13   1   2     2.883925709015   115.70234727   176.01840520
 H     17  13   1     2.066460921512   108.49616875   119.90029750
 H     17  13   1     2.066049433413   108.46609109   236.50401273
 H     17  13   1     2.065923207018   113.50523357   358.29865415
 C     14   3   2     2.756620723071   123.21381332   178.35542079
 H     21  14   3     2.069922585849   111.12715102   115.05873105
 H     21  14   3     2.069075830798   110.83023636   236.49488064
 H     21  14   3     2.059911684005   107.70726941   355.84000424
 H      2   1   3     2.073515123564   108.15167859   117.56124823
 H      5   2   1     2.075481365594   108.71775880   186.29098525
 H      5   2   1     2.069774151772   106.60081392   300.80961550
 H      6   5   2     2.074919579858   109.98973540    61.34911028
 H      6   5   2     2.069917831174   109.58583513   304.58324864
 H      7   6   5     2.090497966249   109.02956162   304.42121985
 H      7   6   5     2.080576686468   109.15501192    59.33244946
 H      8   7   6     2.058350101444   118.12283300    46.59847024

---------------------
BASIS SET INFORMATION
---------------------
There are 4 groups of distinct atoms

 Group   1 Type N   : 11s6p2d1f contracted to 5s3p2d1f pattern {62111/411/11/1}
 Group   2 Type C   : 11s6p2d1f contracted to 5s3p2d1f pattern {62111/411/11/1}
 Group   3 Type O   : 11s6p2d1f contracted to 5s3p2d1f pattern {62111/411/11/1}
 Group   4 Type H   : 5s1p contracted to 3s1p pattern {311/1}

Atom   0N    basis set group =>   1
Atom   1C    basis set group =>   2
Atom   2C    basis set group =>   2
Atom   3O    basis set group =>   3
Atom   4C    basis set group =>   2
Atom   5C    basis set group =>   2
Atom   6C    basis set group =>   2
Atom   7C    basis set group =>   2
Atom   8N    basis set group =>   1
Atom   9H    basis set group =>   4
Atom  10H    basis set group =>   4
Atom  11H    basis set group =>   4
Atom  12C    basis set group =>   2
Atom  13N    basis set group =>   1
Atom  14H    basis set group =>   4
Atom  15O    basis set group =>   3
Atom  16C    basis set group =>   2
Atom  17H    basis set group =>   4
Atom  18H    basis set group =>   4
Atom  19H    basis set group =>   4
Atom  20C    basis set group =>   2
Atom  21H    basis set group =>   4
Atom  22H    basis set group =>   4
Atom  23H    basis set group =>   4
Atom  24H    basis set group =>   4
Atom  25H    basis set group =>   4
Atom  26H    basis set group =>   4
Atom  27H    basis set group =>   4
Atom  28H    basis set group =>   4
Atom  29H    basis set group =>   4
Atom  30H    basis set group =>   4
Atom  31H    basis set group =>   4
---------------------------------
AUXILIARY/J BASIS SET INFORMATION
---------------------------------
There are 4 groups of distinct atoms

 Group   1 Type N   : 12s5p4d2f1g contracted to 6s4p3d1f1g pattern {711111/2111/211/2/1}
 Group   2 Type C   : 12s5p4d2f1g contracted to 6s4p3d1f1g pattern {711111/2111/211/2/1}
 Group   3 Type O   : 12s5p4d2f1g contracted to 6s4p3d1f1g pattern {711111/2111/211/2/1}
 Group   4 Type H   : 5s2p1d contracted to 3s1p1d pattern {311/2/1}

Atom   0N    basis set group =>   1
Atom   1C    basis set group =>   2
Atom   2C    basis set group =>   2
Atom   3O    basis set group =>   3
Atom   4C    basis set group =>   2
Atom   5C    basis set group =>   2
Atom   6C    basis set group =>   2
Atom   7C    basis set group =>   2
Atom   8N    basis set group =>   1
Atom   9H    basis set group =>   4
Atom  10H    basis set group =>   4
Atom  11H    basis set group =>   4
Atom  12C    basis set group =>   2
Atom  13N    basis set group =>   1
Atom  14H    basis set group =>   4
Atom  15O    basis set group =>   3
Atom  16C    basis set group =>   2
Atom  17H    basis set group =>   4
Atom  18H    basis set group =>   4
Atom  19H    basis set group =>   4
Atom  20C    basis set group =>   2
Atom  21H    basis set group =>   4
Atom  22H    basis set group =>   4
Atom  23H    basis set group =>   4
Atom  24H    basis set group =>   4
Atom  25H    basis set group =>   4
Atom  26H    basis set group =>   4
Atom  27H    basis set group =>   4
Atom  28H    basis set group =>   4
Atom  29H    basis set group =>   4
Atom  30H    basis set group =>   4
Atom  31H    basis set group =>   4


           ************************************************************
           *        Program running with 16 parallel MPI-processes    *
           *              working on a common directory               *
           ************************************************************
------------------------------------------------------------------------------
                           ORCA GTO INTEGRAL CALCULATION
                           -- RI-GTO INTEGRALS CHOSEN --
------------------------------------------------------------------------------
------------------------------------------------------------------------------
                   ___                                                        
                  /   \      - P O W E R E D   B Y -                         
                 /     \                                                     
                 |  |  |   _    _      __       _____    __    __             
                 |  |  |  | |  | |    /  \     |  _  \  |  |  /  |          
                  \  \/   | |  | |   /    \    | | | |  |  | /  /          
                 / \  \   | |__| |  /  /\  \   | |_| |  |  |/  /          
                |  |  |   |  __  | /  /__\  \  |    /   |      \           
                |  |  |   | |  | | |   __   |  |    \   |  |\   \          
                \     /   | |  | | |  |  |  |  | |\  \  |  | \   \       
                 \___/    |_|  |_| |__|  |__|  |_| \__\ |__|  \__/        
                                                                              
                      - O R C A' S   B I G   F R I E N D -                    
                                      &                                       
                       - I N T E G R A L  F E E D E R -                       
                                                                              
 v1 FN, 2020, v2 2021                                                         
------------------------------------------------------------------------------


Reading SHARK input file freq.SHARKINP.tmp ... ok
----------------------
SHARK INTEGRAL PACKAGE
----------------------

Number of atoms                             ...     32
Number of basis functions                   ...    542
Number of shells                            ...    226
Maximum angular momentum                    ...      3
Integral batch strategy                     ... SHARK/LIBINT Hybrid
RI-J (if used) integral strategy            ... SPLIT-RIJ (Revised 2003 algorithm where possible)
Printlevel                                  ...      1
Contraction scheme used                     ... SEGMENTED contraction
Coulomb Range Separation                    ... NOT USED
Exchange Range Separation                   ... NOT USED
Finite Nucleus Model                        ... NOT USED
Auxiliary Coulomb fitting basis             ... AVAILABLE
   # of basis functions in Aux-J            ...    884
   # of shells in Aux-J                     ...    300
   Maximum angular momentum in Aux-J        ...      4
Auxiliary J/K fitting basis                 ... NOT available
Auxiliary Correlation fitting basis         ... NOT available
Auxiliary 'external' fitting basis          ... NOT available
Integral threshold                          ...     2.500000e-11
Primitive cut-off                           ...     2.500000e-12
Primitive pair pre-selection threshold      ...     2.500000e-12

Calculating pre-screening integrals         ... done (  0.0 sec) Dimension = 226
Organizing shell pair data                  ... done (  0.1 sec)
Shell pair information
Total number of shell pairs                 ...     25651
Shell pairs after pre-screening             ...     19306
Total number of primitive shell pairs       ...     75828
Primitive shell pairs kept                  ...     39709
          la=0 lb=0:   5772 shell pairs
          la=1 lb=0:   5726 shell pairs
          la=1 lb=1:   1465 shell pairs
          la=2 lb=0:   2562 shell pairs
          la=2 lb=1:   1287 shell pairs
          la=2 lb=2:    306 shell pairs
          la=3 lb=0:   1220 shell pairs
          la=3 lb=1:    620 shell pairs
          la=3 lb=2:    276 shell pairs
          la=3 lb=3:     72 shell pairs

Calculating one electron integrals          ... done (  0.0 sec)
Calculating RI/J V-Matrix + Cholesky decomp.... done (  0.0 sec)
Calculating Nuclear repulsion               ... done (  0.0 sec) ENN=    915.998182774870 Eh

SHARK setup successfully completed in   0.3 seconds

Maximum memory used throughout the entire GTOINT-calculation: 31.0 MB


           ************************************************************
           *        Program running with 16 parallel MPI-processes    *
           *              working on a common directory               *
           ************************************************************
-------------------------------------------------------------------------------
                                 ORCA SCF
-------------------------------------------------------------------------------

------------
SCF SETTINGS
------------
Hamiltonian:
 Density Functional     Method          .... DFT(GTOs)
 Exchange Functional    Exchange        .... M062X
 Correlation Functional Correlation     .... M062X
 Gradients option       PostSCFGGA      .... off
 Hybrid DFT is turned on
   Fraction HF Exchange ScalHFX         ....  0.540000
   Scaling of DF-GGA-X  ScalDFX         ....  0.460000
   Scaling of DF-GGA-C  ScalDFC         ....  1.000000
   Scaling of DF-LDA-C  ScalLDAC        ....  1.000000
   Perturbative correction              ....  0.000000
   Density functional embedding theory  .... OFF
 RI-approximation to the Coulomb term is turned on
   Number of AuxJ basis functions       .... 884
   RIJ-COSX (HFX calculated with COS-X)).... on


General Settings:
 Integral files         IntName         .... freq
 Hartree-Fock type      HFTyp           .... UHF
 Total Charge           Charge          ....    0
 Multiplicity           Mult            ....    2
 Number of Electrons    NEL             ....  109
 Basis Dimension        Dim             ....  542
 Nuclear Repulsion      ENuc            ....    915.9981827749 Eh

Convergence Acceleration:
 DIIS                   CNVDIIS         .... on
   Start iteration      DIISMaxIt       ....    12
   Startup error        DIISStart       ....  0.200000
   # of expansion vecs  DIISMaxEq       ....     5
   Bias factor          DIISBfac        ....   1.050
   Max. coefficient     DIISMaxC        ....  10.000
 Trust-Rad. Augm. Hess. CNVTRAH         .... auto
   Auto Start mean grad. ratio tolernc. ....  1.125000
   Auto Start start iteration           ....    20
   Auto Start num. interpolation iter.  ....    10
   Max. Number of Micro iterations      ....    16
   Max. Number of Macro iterations      .... Maxiter - #DIIS iter
   Number of Davidson start vectors     ....     2
   Converg. threshold I  (grad. norm)   ....   1.000e-05
   Converg. threshold II (energy diff.) ....   1.000e-08
   Grad. Scal. Fac. for Micro threshold ....   0.100
   Minimum threshold for Micro iter.    ....   0.010
   NR start threshold (gradient norm)   ....   0.001
   Initial trust radius                 ....   0.400
   Minimum AH scaling param. (alpha)    ....   1.000
   Maximum AH scaling param. (alpha)    .... 1000.000
   Orbital update algorithm             .... Taylor
   White noise on init. David. guess    .... on
   Maximum white noise                  ....   0.010
   Quad. conv. algorithm                .... NR
 SOSCF                  CNVSOSCF        .... off
 Level Shifting         CNVShift        .... on
   Level shift para.    LevelShift      ....    0.2500
   Turn off err/grad.   ShiftErr        ....    0.0010
 Zerner damping         CNVZerner       .... off
 Static damping         CNVDamp         .... on
   Fraction old density DampFac         ....    0.7000
   Max. Damping (<1)    DampMax         ....    0.9800
   Min. Damping (>=0)   DampMin         ....    0.0000
   Turn off err/grad.   DampErr         ....    0.1000
 Fernandez-Rico         CNVRico         .... off

SCF Procedure:
 Maximum # iterations   MaxIter         ....   125
 SCF integral mode      SCFMode         .... Direct
   Integral package                     .... SHARK and LIBINT hybrid scheme
 Reset frequency        DirectResetFreq ....    20
 Integral Threshold     Thresh          ....  2.500e-11 Eh
 Primitive CutOff       TCut            ....  2.500e-12 Eh

Convergence Tolerance:
 Convergence Check Mode ConvCheckMode   .... Total+1el-Energy
 Convergence forced     ConvForced      .... 0
 Energy Change          TolE            ....  1.000e-08 Eh
 1-El. energy change                    ....  1.000e-05 Eh
 DIIS Error             TolErr          ....  5.000e-07


Diagonalization of the overlap matrix:
Smallest eigenvalue                        ... 6.313e-05
Time for diagonalization                   ...    0.034 sec
Threshold for overlap eigenvalues          ... 1.000e-08
Number of eigenvalues below threshold      ... 0
Time for construction of square roots      ...    0.024 sec
Total time needed                          ...    0.060 sec

Time for model grid setup =    0.113 sec

------------------------------
INITIAL GUESS: MODEL POTENTIAL
------------------------------
Loading Hartree-Fock densities                     ... done
Calculating cut-offs                               ... done
Initializing the effective Hamiltonian             ... done
Setting up the integral package (SHARK)            ... done
Starting the Coulomb interaction                   ... done (   0.1 sec)
Reading the grid                                   ... done
Mapping shells                                     ... done
Starting the XC term evaluation                    ... done (   0.1 sec)
  promolecular density results
     # of electrons  =    108.986416912
     EX              =    -87.240303824
     EC              =     -3.612810994
     EX+EC           =    -90.853114818
Transforming the Hamiltonian                       ... done (   0.0 sec)
Diagonalizing the Hamiltonian                      ... done (   0.0 sec)
Back transforming the eigenvectors                 ... done (   0.0 sec)
Now organizing SCF variables                       ... done
                      ------------------
                      INITIAL GUESS DONE (   0.4 sec)
                      ------------------
-------------------
DFT GRID GENERATION
-------------------

General Integration Accuracy     IntAcc      ... 4.388
Radial Grid Type                 RadialGrid  ... OptM3 with GC (2021)
Angular Grid (max. ang.)         AngularGrid ... 4 (Lebedev-302)
Angular grid pruning method      GridPruning ... 4 (adaptive)
Weight generation scheme         WeightScheme... Becke
Basis function cutoff            BFCut       ... 1.0000e-11
Integration weight cutoff        WCut        ... 1.0000e-14
Angular grids for H and He will be reduced by one unit
Partially contracted basis set               ... off
Rotationally invariant grid construction     ... off

Total number of grid points                  ...   141620
Total number of batches                      ...     2231
Average number of points per batch           ...       63
Average number of grid points per atom       ...     4426
Time for grid setup =    0.596 sec

--------------------
COSX GRID GENERATION
--------------------

GRIDX 1
-------
General Integration Accuracy     IntAcc      ... 3.816
Radial Grid Type                 RadialGrid  ... OptM3 with GC (2021)
Angular Grid (max. ang.)         AngularGrid ... 1 (Lebedev-50)
Angular grid pruning method      GridPruning ... 4 (adaptive)
Weight generation scheme         WeightScheme... Becke
Basis function cutoff            BFCut       ... 1.0000e-11
Integration weight cutoff        WCut        ... 1.0000e-14
Angular grids for H and He will be reduced by one unit
Partially contracted basis set               ... on
Rotationally invariant grid construction     ... off

Total number of grid points                  ...    18074
Total number of batches                      ...      301
Average number of points per batch           ...       60
Average number of grid points per atom       ...      565
UseSFitting                                  ... on

GRIDX 2
-------
General Integration Accuracy     IntAcc      ... 4.020
Radial Grid Type                 RadialGrid  ... OptM3 with GC (2021)
Angular Grid (max. ang.)         AngularGrid ... 2 (Lebedev-110)
Angular grid pruning method      GridPruning ... 4 (adaptive)
Weight generation scheme         WeightScheme... Becke
Basis function cutoff            BFCut       ... 1.0000e-11
Integration weight cutoff        WCut        ... 1.0000e-14
Angular grids for H and He will be reduced by one unit
Partially contracted basis set               ... on
Rotationally invariant grid construction     ... off

Total number of grid points                  ...    38340
Total number of batches                      ...      618
Average number of points per batch           ...       62
Average number of grid points per atom       ...     1198
UseSFitting                                  ... on

GRIDX 3
-------
General Integration Accuracy     IntAcc      ... 4.338
Radial Grid Type                 RadialGrid  ... OptM3 with GC (2021)
Angular Grid (max. ang.)         AngularGrid ... 3 (Lebedev-194)
Angular grid pruning method      GridPruning ... 4 (adaptive)
Weight generation scheme         WeightScheme... Becke
Basis function cutoff            BFCut       ... 1.0000e-11
Integration weight cutoff        WCut        ... 1.0000e-14
Angular grids for H and He will be reduced by one unit
Partially contracted basis set               ... on
Rotationally invariant grid construction     ... off

Total number of grid points                  ...    83564
Total number of batches                      ...     1320
Average number of points per batch           ...       63
Average number of grid points per atom       ...     2611
UseSFitting                                  ... on

Time for X-Grid setup             =    0.777 sec

--------------
SCF ITERATIONS
--------------
ITER       Energy         Delta-E        Max-DP      RMS-DP      [F,P]     Damp
               ***  Starting incremental Fock matrix formation  ***
  0   -667.9311770153   0.000000000000 0.05222226  0.00044346  0.1517061 0.7000
  1   -668.1599768195  -0.228799804191 0.04631268  0.00036042  0.0724540 0.7000
                               ***Turning on DIIS***
  2   -668.2618372561  -0.101860436639 0.07152240  0.00069928  0.0275881 0.0000
  3   -668.4218488220  -0.160011565850 0.03482254  0.00025390  0.0357060 0.0000
  4   -668.4527599447  -0.030911122751 0.00739250  0.00008139  0.0057917 0.0000
  5   -668.4538499019  -0.001089957140 0.00593652  0.00003975  0.0038379 0.0000
  6   -668.4540788668  -0.000228964974 0.00401212  0.00002166  0.0013645 0.0000
  7   -668.4541282101  -0.000049343293 0.00396096  0.00002178  0.0007800 0.0000
               *** Restarting incremental Fock matrix formation ***
                                   *** Resetting DIIS ***
  8   -668.4541322809  -0.000004070822 0.00072352  0.00000761  0.0003916 0.0000
  9   -668.4541361915  -0.000003910604 0.00023766  0.00000212  0.0002459 0.0000
 10   -668.4541378141  -0.000001622521 0.00041596  0.00000310  0.0001642 0.0000
 11   -668.4541387790  -0.000000964895 0.00009122  0.00000092  0.0000809 0.0000
 12   -668.4541388951  -0.000000116105 0.00003832  0.00000039  0.0000450 0.0000
 13   -668.4541389299  -0.000000034846 0.00000971  0.00000008  0.0000076 0.0000
 14   -668.4541389291   0.000000000765 0.00000680  0.00000004  0.0000036 0.0000
 15   -668.4541389276   0.000000001503 0.00000347  0.00000002  0.0000011 0.0000
                            ***DIIS convergence achieved***

               *****************************************************
               *                     SUCCESS                       *
               *           SCF CONVERGED AFTER  16 CYCLES          *
               *****************************************************

Old exchange energy                            =    -48.247134337 Eh
New exchange energy                            =    -48.247111045 Eh
Exchange energy change after final integration =      0.000023292 Eh
Total energy after final integration           =   -668.454115646 Eh
Final COS-X integration done in                =     4.596 sec

----------------
TOTAL SCF ENERGY
----------------

Total Energy       :         -668.45411565 Eh          -18189.56123 eV

Components:
Nuclear Repulsion  :          915.99818277 Eh           24925.57775 eV
Electronic Energy  :        -1584.45229842 Eh          -43115.13897 eV
One Electron Energy:        -2725.79685379 Eh          -74172.70326 eV
Two Electron Energy:         1141.34455537 Eh           31057.56429 eV
Max COSX asymmetry :            0.00000093 Eh               0.00003 eV

Virial components:
Potential Energy   :        -1333.24065830 Eh          -36279.32272 eV
Kinetic Energy     :          664.78654266 Eh           18089.76149 eV
Virial Ratio       :            2.00551692


DFT components:
N(Alpha)           :       55.000014677002 electrons
N(Beta)            :       54.000037973637 electrons
N(Total)           :      109.000052650639 electrons
E(XC)              :      -45.007111227634 Eh       
DFET-embed. en.    :        0.000000000000 Eh       

---------------
SCF CONVERGENCE
---------------

  Last Energy change         ...   -1.0904e-08  Tolerance :   1.0000e-08
  Last MAX-Density change    ...    0.0000e+00  Tolerance :   1.0000e-07
  Last RMS-Density change    ...    0.0000e+00  Tolerance :   5.0000e-09
  Last DIIS Error            ...    6.5786e-07  Tolerance :   5.0000e-07

             **** THE GBW FILE WAS UPDATED (freq.gbw) ****
             **** DENSITY freq.scfp WAS UPDATED ****
             **** ENERGY FILE WAS UPDATED (freq.en.tmp) ****
----------------------
UHF SPIN CONTAMINATION
----------------------

Warning: in a DFT calculation there is little theoretical justification to 
         calculate <S**2> as in Hartree-Fock theory. We will do it anyways
         but you should keep in mind that the values have only limited relevance

Expectation value of <S**2>     :     0.754514
Ideal value S*(S+1) for S=0.5   :     0.750000
Deviation                       :     0.004514

             **** THE GBW FILE WAS UPDATED (freq.gbw) ****
             **** DENSITY freq.scfp WAS UPDATED ****
----------------
ORBITAL ENERGIES
----------------
                 SPIN UP ORBITALS
  NO   OCC          E(Eh)            E(eV) 
   0   1.0000     -19.607176      -533.5384 
   1   1.0000     -19.584464      -532.9204 
   2   1.0000     -14.788649      -402.4196 
   3   1.0000     -14.767198      -401.8359 
   4   1.0000     -14.750576      -401.3836 
   5   1.0000     -10.657763      -290.0125 
   6   1.0000     -10.641475      -289.5693 
   7   1.0000     -10.593561      -288.2655 
   8   1.0000     -10.579750      -287.8896 
   9   1.0000     -10.553791      -287.1833 
  10   1.0000     -10.543553      -286.9047 
  11   1.0000     -10.538889      -286.7778 
  12   1.0000     -10.535818      -286.6942 
  13   1.0000     -10.533324      -286.6263 
  14   1.0000      -1.170078       -31.8394 
  15   1.0000      -1.146591       -31.2003 
  16   1.0000      -1.042700       -28.3733 
  17   1.0000      -1.028460       -27.9858 
  18   1.0000      -1.008507       -27.4429 
  19   1.0000      -0.903114       -24.5750 
  20   1.0000      -0.860795       -23.4234 
  21   1.0000      -0.823780       -22.4162 
  22   1.0000      -0.806562       -21.9477 
  23   1.0000      -0.757838       -20.6218 
  24   1.0000      -0.702159       -19.1067 
  25   1.0000      -0.681182       -18.5359 
  26   1.0000      -0.668401       -18.1881 
  27   1.0000      -0.646510       -17.5924 
  28   1.0000      -0.617043       -16.7906 
  29   1.0000      -0.583212       -15.8700 
  30   1.0000      -0.561679       -15.2841 
  31   1.0000      -0.548603       -14.9282 
  32   1.0000      -0.546881       -14.8814 
  33   1.0000      -0.541432       -14.7331 
  34   1.0000      -0.528422       -14.3791 
  35   1.0000      -0.523822       -14.2539 
  36   1.0000      -0.517149       -14.0723 
  37   1.0000      -0.499664       -13.5966 
  38   1.0000      -0.485660       -13.2155 
  39   1.0000      -0.474752       -12.9187 
  40   1.0000      -0.468716       -12.7544 
  41   1.0000      -0.465233       -12.6596 
  42   1.0000      -0.453441       -12.3388 
  43   1.0000      -0.449497       -12.2314 
  44   1.0000      -0.434776       -11.8309 
  45   1.0000      -0.429107       -11.6766 
  46   1.0000      -0.410071       -11.1586 
  47   1.0000      -0.401759       -10.9324 
  48   1.0000      -0.393474       -10.7070 
  49   1.0000      -0.384944       -10.4749 
  50   1.0000      -0.346641        -9.4326 
  51   1.0000      -0.336575        -9.1587 
  52   1.0000      -0.326059        -8.8725 
  53   1.0000      -0.314288        -8.5522 
  54   1.0000      -0.204451        -5.5634 
  55   0.0000       0.040914         1.1133 
  56   0.0000       0.050647         1.3782 
  57   0.0000       0.065656         1.7866 
  58   0.0000       0.067196         1.8285 
  59   0.0000       0.070160         1.9091 
  60   0.0000       0.084692         2.3046 
  61   0.0000       0.091510         2.4901 
  62   0.0000       0.098745         2.6870 
  63   0.0000       0.113659         3.0928 
  64   0.0000       0.118071         3.2129 
  65   0.0000       0.127497         3.4694 
  66   0.0000       0.132420         3.6033 
  67   0.0000       0.137698         3.7470 
  68   0.0000       0.146207         3.9785 
  69   0.0000       0.148714         4.0467 
  70   0.0000       0.154935         4.2160 
  71   0.0000       0.161970         4.4074 
  72   0.0000       0.162509         4.4221 
  73   0.0000       0.169357         4.6084 
  74   0.0000       0.172974         4.7069 
  75   0.0000       0.185323         5.0429 
  76   0.0000       0.191742         5.2176 
  77   0.0000       0.198974         5.4144 
  78   0.0000       0.206524         5.6198 
  79   0.0000       0.214576         5.8389 
  80   0.0000       0.221093         6.0162 
  81   0.0000       0.225278         6.1301 
  82   0.0000       0.234050         6.3688 
  83   0.0000       0.244776         6.6607 
  84   0.0000       0.247673         6.7395 
  85   0.0000       0.254396         6.9225 
  86   0.0000       0.261744         7.1224 
  87   0.0000       0.266424         7.2498 
  88   0.0000       0.273147         7.4327 
  89   0.0000       0.276892         7.5346 
  90   0.0000       0.286151         7.7866 
  91   0.0000       0.291460         7.9310 
  92   0.0000       0.307931         8.3792 
  93   0.0000       0.308632         8.3983 
  94   0.0000       0.317554         8.6411 
  95   0.0000       0.329711         8.9719 
  96   0.0000       0.337779         9.1914 
  97   0.0000       0.339607         9.2412 
  98   0.0000       0.350390         9.5346 
  99   0.0000       0.359906         9.7935 
 100   0.0000       0.370937        10.0937 
 101   0.0000       0.379276        10.3206 
 102   0.0000       0.381362        10.3774 
 103   0.0000       0.393264        10.7013 
 104   0.0000       0.402318        10.9476 
 105   0.0000       0.407651        11.0927 
 106   0.0000       0.414871        11.2892 
 107   0.0000       0.420233        11.4351 
 108   0.0000       0.426943        11.6177 
 109   0.0000       0.430703        11.7200 
 110   0.0000       0.438789        11.9400 
 111   0.0000       0.441745        12.0205 
 112   0.0000       0.449640        12.2353 
 113   0.0000       0.450704        12.2643 
 114   0.0000       0.455135        12.3849 
 115   0.0000       0.460879        12.5412 
 116   0.0000       0.467611        12.7243 
 117   0.0000       0.473258        12.8780 
 118   0.0000       0.475585        12.9413 
 119   0.0000       0.482417        13.1272 
 120   0.0000       0.484487        13.1836 
 121   0.0000       0.485178        13.2024 
 122   0.0000       0.494736        13.4625 
 123   0.0000       0.498715        13.5707 
 124   0.0000       0.500823        13.6281 
 125   0.0000       0.508959        13.8495 
 126   0.0000       0.516913        14.0659 
 127   0.0000       0.521530        14.1916 
 128   0.0000       0.523424        14.2431 
 129   0.0000       0.531580        14.4650 
 130   0.0000       0.540248        14.7009 
 131   0.0000       0.546747        14.8777 
 132   0.0000       0.552554        15.0358 
 133   0.0000       0.555453        15.1146 
 134   0.0000       0.567960        15.4550 
 135   0.0000       0.578244        15.7348 
 136   0.0000       0.584872        15.9152 
 137   0.0000       0.587301        15.9813 
 138   0.0000       0.596864        16.2415 
 139   0.0000       0.600634        16.3441 
 140   0.0000       0.611407        16.6372 
 141   0.0000       0.615262        16.7421 
 142   0.0000       0.617953        16.8154 
 143   0.0000       0.623206        16.9583 
 144   0.0000       0.626064        17.0361 
 145   0.0000       0.641003        17.4426 
 146   0.0000       0.648176        17.6378 
 147   0.0000       0.651060        17.7162 
 148   0.0000       0.666117        18.1260 
 149   0.0000       0.680434        18.5156 
 150   0.0000       0.682778        18.5793 
 151   0.0000       0.699820        19.0431 
 152   0.0000       0.718849        19.5609 
 153   0.0000       0.737701        20.0739 
 154   0.0000       0.750069        20.4104 
 155   0.0000       0.760610        20.6972 
 156   0.0000       0.776703        21.1352 
 157   0.0000       0.787071        21.4173 
 158   0.0000       0.796500        21.6739 
 159   0.0000       0.804376        21.8882 
 160   0.0000       0.821883        22.3646 
 161   0.0000       0.836650        22.7664 
 162   0.0000       0.844208        22.9721 
 163   0.0000       0.856143        23.2968 
 164   0.0000       0.866097        23.5677 
 165   0.0000       0.873710        23.7748 
 166   0.0000       0.882199        24.0058 
 167   0.0000       0.897316        24.4172 
 168   0.0000       0.902249        24.5514 
 169   0.0000       0.912077        24.8189 
 170   0.0000       0.919710        25.0266 
 171   0.0000       0.927862        25.2484 
 172   0.0000       0.948301        25.8046 
 173   0.0000       0.964116        26.2349 
 174   0.0000       0.973727        26.4965 
 175   0.0000       0.980682        26.6857 
 176   0.0000       0.999672        27.2024 
 177   0.0000       1.011062        27.5124 
 178   0.0000       1.022878        27.8339 
 179   0.0000       1.030346        28.0371 
 180   0.0000       1.037590        28.2343 
 181   0.0000       1.050684        28.5906 
 182   0.0000       1.062093        28.9010 
 183   0.0000       1.078385        29.3443 
 184   0.0000       1.082583        29.4586 
 185   0.0000       1.099672        29.9236 
 186   0.0000       1.106712        30.1152 
 187   0.0000       1.123683        30.5770 
 188   0.0000       1.132360        30.8131 
 189   0.0000       1.139328        31.0027 
 190   0.0000       1.153892        31.3990 
 191   0.0000       1.166410        31.7396 
 192   0.0000       1.188967        32.3534 
 193   0.0000       1.198391        32.6099 
 194   0.0000       1.213539        33.0221 
 195   0.0000       1.223895        33.3039 
 196   0.0000       1.237344        33.6698 
 197   0.0000       1.243652        33.8415 
 198   0.0000       1.258516        34.2459 
 199   0.0000       1.267659        34.4948 
 200   0.0000       1.310245        35.6536 
 201   0.0000       1.318233        35.8709 
 202   0.0000       1.332011        36.2459 
 203   0.0000       1.338539        36.4235 
 204   0.0000       1.364887        37.1405 
 205   0.0000       1.376148        37.4469 
 206   0.0000       1.378042        37.4984 
 207   0.0000       1.391388        37.8616 
 208   0.0000       1.394237        37.9391 
 209   0.0000       1.405821        38.2543 
 210   0.0000       1.418443        38.5978 
 211   0.0000       1.424839        38.7718 
 212   0.0000       1.441507        39.2254 
 213   0.0000       1.462067        39.7849 
 214   0.0000       1.474415        40.1209 
 215   0.0000       1.478409        40.2295 
 216   0.0000       1.500910        40.8418 
 217   0.0000       1.511542        41.1311 
 218   0.0000       1.526736        41.5446 
 219   0.0000       1.536972        41.8231 
 220   0.0000       1.548311        42.1317 
 221   0.0000       1.552799        42.2538 
 222   0.0000       1.558061        42.3970 
 223   0.0000       1.559996        42.4496 
 224   0.0000       1.563468        42.5441 
 225   0.0000       1.568150        42.6715 
 226   0.0000       1.581648        43.0388 
 227   0.0000       1.585092        43.1325 
 228   0.0000       1.593414        43.3590 
 229   0.0000       1.598438        43.4957 
 230   0.0000       1.602963        43.6188 
 231   0.0000       1.623148        44.1681 
 232   0.0000       1.630323        44.3633 
 233   0.0000       1.642902        44.7056 
 234   0.0000       1.651178        44.9308 
 235   0.0000       1.656950        45.0879 
 236   0.0000       1.673719        45.5442 
 237   0.0000       1.682969        45.7959 
 238   0.0000       1.687770        45.9265 
 239   0.0000       1.693363        46.0787 
 240   0.0000       1.722758        46.8786 
 241   0.0000       1.730067        47.0775 
 242   0.0000       1.734956        47.2106 
 243   0.0000       1.759498        47.8784 
 244   0.0000       1.765823        48.0505 
 245   0.0000       1.776507        48.3412 
 246   0.0000       1.783311        48.5264 
 247   0.0000       1.796832        48.8943 
 248   0.0000       1.822176        49.5839 
 249   0.0000       1.827062        49.7169 
 250   0.0000       1.844917        50.2027 
 251   0.0000       1.855421        50.4886 
 252   0.0000       1.859622        50.6029 
 253   0.0000       1.877134        51.0794 
 254   0.0000       1.893915        51.5361 
 255   0.0000       1.899601        51.6908 
 256   0.0000       1.907699        51.9111 
 257   0.0000       1.917325        52.1731 
 258   0.0000       1.918458        52.2039 
 259   0.0000       1.924145        52.3586 
 260   0.0000       1.948110        53.0108 
 261   0.0000       1.960198        53.3397 
 262   0.0000       1.971022        53.6342 
 263   0.0000       1.972985        53.6876 
 264   0.0000       1.981464        53.9184 
 265   0.0000       1.988153        54.1004 
 266   0.0000       1.997837        54.3639 
 267   0.0000       2.002566        54.4926 
 268   0.0000       2.017580        54.9012 
 269   0.0000       2.032485        55.3067 
 270   0.0000       2.039994        55.5110 
 271   0.0000       2.044411        55.6312 
 272   0.0000       2.055851        55.9425 
 273   0.0000       2.076218        56.4968 
 274   0.0000       2.086403        56.7739 
 275   0.0000       2.093661        56.9714 
 276   0.0000       2.118485        57.6469 
 277   0.0000       2.135248        58.1031 
 278   0.0000       2.154923        58.6384 
 279   0.0000       2.159930        58.7747 
 280   0.0000       2.181278        59.3556 
 281   0.0000       2.194385        59.7123 
 282   0.0000       2.202623        59.9364 
 283   0.0000       2.229052        60.6556 
 284   0.0000       2.232219        60.7418 
 285   0.0000       2.238465        60.9117 
 286   0.0000       2.251602        61.2692 
 287   0.0000       2.269343        61.7520 
 288   0.0000       2.285873        62.2018 
 289   0.0000       2.297010        62.5048 
 290   0.0000       2.304312        62.7035 
 291   0.0000       2.312017        62.9132 
 292   0.0000       2.317729        63.0686 
 293   0.0000       2.325900        63.2910 
 294   0.0000       2.347952        63.8910 
 295   0.0000       2.352817        64.0234 
 296   0.0000       2.356995        64.1371 
 297   0.0000       2.374631        64.6170 
 298   0.0000       2.380537        64.7777 
 299   0.0000       2.389140        65.0118 
 300   0.0000       2.400626        65.3244 
 301   0.0000       2.408991        65.5520 
 302   0.0000       2.413402        65.6720 
 303   0.0000       2.445969        66.5582 
 304   0.0000       2.454084        66.7790 
 305   0.0000       2.463895        67.0460 
 306   0.0000       2.472439        67.2785 
 307   0.0000       2.483746        67.5862 
 308   0.0000       2.506826        68.2142 
 309   0.0000       2.510910        68.3253 
 310   0.0000       2.514272        68.4168 
 311   0.0000       2.531310        68.8804 
 312   0.0000       2.538796        69.0842 
 313   0.0000       2.548261        69.3417 
 314   0.0000       2.554739        69.5180 
 315   0.0000       2.563759        69.7634 
 316   0.0000       2.576737        70.1166 
 317   0.0000       2.580468        70.2181 
 318   0.0000       2.585809        70.3634 
 319   0.0000       2.590169        70.4821 
 320   0.0000       2.610831        71.0443 
 321   0.0000       2.622782        71.3695 
 322   0.0000       2.634493        71.6882 
 323   0.0000       2.642974        71.9190 
 324   0.0000       2.647007        72.0287 
 325   0.0000       2.661778        72.4307 
 326   0.0000       2.665574        72.5340 
 327   0.0000       2.687585        73.1329 
 328   0.0000       2.690516        73.2127 
 329   0.0000       2.708592        73.7045 
 330   0.0000       2.713333        73.8335 
 331   0.0000       2.727099        74.2081 
 332   0.0000       2.742007        74.6138 
 333   0.0000       2.752451        74.8980 
 334   0.0000       2.759809        75.0982 
 335   0.0000       2.766581        75.2825 
 336   0.0000       2.772800        75.4517 
 337   0.0000       2.787101        75.8409 
 338   0.0000       2.791796        75.9686 
 339   0.0000       2.818446        76.6938 
 340   0.0000       2.829767        77.0019 
 341   0.0000       2.845435        77.4282 
 342   0.0000       2.854873        77.6850 
 343   0.0000       2.880783        78.3901 
 344   0.0000       2.891218        78.6740 
 345   0.0000       2.899672        78.9041 
 346   0.0000       2.937979        79.9465 
 347   0.0000       2.939440        79.9862 
 348   0.0000       2.957414        80.4753 
 349   0.0000       2.965068        80.6836 
 350   0.0000       2.988440        81.3196 
 351   0.0000       2.997343        81.5618 
 352   0.0000       3.008824        81.8743 
 353   0.0000       3.012263        81.9678 
 354   0.0000       3.014300        82.0233 
 355   0.0000       3.025484        82.3276 
 356   0.0000       3.034151        82.5634 
 357   0.0000       3.050352        83.0043 
 358   0.0000       3.063071        83.3504 
 359   0.0000       3.066366        83.4401 
 360   0.0000       3.090182        84.0881 
 361   0.0000       3.092564        84.1529 
 362   0.0000       3.106601        84.5349 
 363   0.0000       3.123044        84.9823 
 364   0.0000       3.128224        85.1233 
 365   0.0000       3.146801        85.6288 
 366   0.0000       3.147047        85.6355 
 367   0.0000       3.156612        85.8958 
 368   0.0000       3.166727        86.1710 
 369   0.0000       3.172012        86.3148 
 370   0.0000       3.190211        86.8101 
 371   0.0000       3.196311        86.9761 
 372   0.0000       3.200104        87.0793 
 373   0.0000       3.214728        87.4772 
 374   0.0000       3.226144        87.7878 
 375   0.0000       3.237234        88.0896 
 376   0.0000       3.245435        88.3128 
 377   0.0000       3.253738        88.5387 
 378   0.0000       3.265428        88.8568 
 379   0.0000       3.272962        89.0618 
 380   0.0000       3.284150        89.3663 
 381   0.0000       3.295732        89.6814 
 382   0.0000       3.298215        89.7490 
 383   0.0000       3.309673        90.0608 
 384   0.0000       3.319553        90.3296 
 385   0.0000       3.326547        90.5199 
 386   0.0000       3.340251        90.8928 
 387   0.0000       3.345234        91.0284 
 388   0.0000       3.351395        91.1961 
 389   0.0000       3.361345        91.4669 
 390   0.0000       3.376577        91.8813 
 391   0.0000       3.377553        91.9079 
 392   0.0000       3.389730        92.2393 
 393   0.0000       3.397145        92.4410 
 394   0.0000       3.402711        92.5925 
 395   0.0000       3.411692        92.8369 
 396   0.0000       3.427865        93.2770 
 397   0.0000       3.433063        93.4184 
 398   0.0000       3.450422        93.8908 
 399   0.0000       3.454195        93.9934 
 400   0.0000       3.469950        94.4221 
 401   0.0000       3.479814        94.6906 
 402   0.0000       3.485116        94.8348 
 403   0.0000       3.503876        95.3453 
 404   0.0000       3.505862        95.3994 
 405   0.0000       3.517778        95.7236 
 406   0.0000       3.520793        95.8057 
 407   0.0000       3.543656        96.4278 
 408   0.0000       3.555268        96.7438 
 409   0.0000       3.564316        96.9900 
 410   0.0000       3.580968        97.4431 
 411   0.0000       3.592695        97.7622 
 412   0.0000       3.600267        97.9682 
 413   0.0000       3.631522        98.8187 
 414   0.0000       3.648604        99.2836 
 415   0.0000       3.650543        99.3363 
 416   0.0000       3.706654       100.8632 
 417   0.0000       3.719337       101.2083 
 418   0.0000       3.730939       101.5240 
 419   0.0000       3.757025       102.2338 
 420   0.0000       3.772595       102.6575 
 421   0.0000       3.787565       103.0649 
 422   0.0000       3.805657       103.5572 
 423   0.0000       3.815118       103.8146 
 424   0.0000       3.830327       104.2285 
 425   0.0000       3.842452       104.5584 
 426   0.0000       3.866041       105.2003 
 427   0.0000       3.871267       105.3425 
 428   0.0000       3.875880       105.4681 
 429   0.0000       3.898864       106.0935 
 430   0.0000       3.910069       106.3984 
 431   0.0000       3.938351       107.1680 
 432   0.0000       3.959445       107.7420 
 433   0.0000       3.988376       108.5292 
 434   0.0000       3.999456       108.8307 
 435   0.0000       4.010012       109.1180 
 436   0.0000       4.040252       109.9408 
 437   0.0000       4.049524       110.1932 
 438   0.0000       4.078107       110.9709 
 439   0.0000       4.103076       111.6504 
 440   0.0000       4.127213       112.3072 
 441   0.0000       4.127862       112.3248 
 442   0.0000       4.142298       112.7177 
 443   0.0000       4.166094       113.3652 
 444   0.0000       4.186280       113.9145 
 445   0.0000       4.221164       114.8637 
 446   0.0000       4.256052       115.8131 
 447   0.0000       4.288253       116.6893 
 448   0.0000       4.318496       117.5123 
 449   0.0000       4.326425       117.7280 
 450   0.0000       4.356232       118.5391 
 451   0.0000       4.368988       118.8862 
 452   0.0000       4.382251       119.2471 
 453   0.0000       4.397692       119.6673 
 454   0.0000       4.413715       120.1033 
 455   0.0000       4.424755       120.4037 
 456   0.0000       4.448503       121.0499 
 457   0.0000       4.479590       121.8958 
 458   0.0000       4.493819       122.2830 
 459   0.0000       4.506618       122.6313 
 460   0.0000       4.528948       123.2389 
 461   0.0000       4.542461       123.6067 
 462   0.0000       4.561880       124.1351 
 463   0.0000       4.565271       124.2273 
 464   0.0000       4.619276       125.6969 
 465   0.0000       4.641778       126.3092 
 466   0.0000       4.665764       126.9619 
 467   0.0000       4.687914       127.5646 
 468   0.0000       4.708653       128.1290 
 469   0.0000       4.717650       128.3738 
 470   0.0000       4.745225       129.1241 
 471   0.0000       4.760472       129.5390 
 472   0.0000       4.771372       129.8356 
 473   0.0000       4.789311       130.3238 
 474   0.0000       4.805313       130.7592 
 475   0.0000       4.834062       131.5415 
 476   0.0000       4.874705       132.6475 
 477   0.0000       4.961599       135.0120 
 478   0.0000       4.979869       135.5091 
 479   0.0000       4.998789       136.0240 
 480   0.0000       5.014434       136.4497 
 481   0.0000       5.023492       136.6962 
 482   0.0000       5.030572       136.8888 
 483   0.0000       5.046147       137.3126 
 484   0.0000       5.051969       137.4711 
 485   0.0000       5.097185       138.7014 
 486   0.0000       5.103573       138.8753 
 487   0.0000       5.113873       139.1555 
 488   0.0000       5.177545       140.8882 
 489   0.0000       5.196146       141.3943 
 490   0.0000       5.199211       141.4777 
 491   0.0000       5.223833       142.1477 
 492   0.0000       5.237277       142.5136 
 493   0.0000       5.257243       143.0569 
 494   0.0000       5.267114       143.3255 
 495   0.0000       5.272723       143.4781 
 496   0.0000       5.295040       144.0854 
 497   0.0000       5.307906       144.4355 
 498   0.0000       5.356115       145.7473 
 499   0.0000       5.427741       147.6963 
 500   0.0000       5.441857       148.0805 
 501   0.0000       5.478611       149.0806 
 502   0.0000       5.485814       149.2766 
 503   0.0000       5.533281       150.5682 
 504   0.0000       5.586547       152.0177 
 505   0.0000       5.650169       153.7489 
 506   0.0000       5.674408       154.4085 
 507   0.0000       5.723535       155.7453 
 508   0.0000       5.757429       156.6676 
 509   0.0000       5.773072       157.0933 
 510   0.0000       5.890064       160.2768 
 511   0.0000       5.907198       160.7430 
 512   0.0000       6.086997       165.6356 
 513   0.0000       6.111120       166.2920 
 514   0.0000       6.299490       171.4178 
 515   0.0000       6.304331       171.5496 
 516   0.0000       6.416758       174.6089 
 517   0.0000       6.426047       174.8616 
 518   0.0000       6.549881       178.2313 
 519   0.0000       6.561357       178.5436 
 520   0.0000       6.652971       181.0365 
 521   0.0000       6.662793       181.3038 
 522   0.0000       6.828477       185.8123 
 523   0.0000       6.835919       186.0148 
 524   0.0000       7.048186       191.7909 
 525   0.0000       7.070576       192.4001 
 526   0.0000       7.079886       192.6535 
 527   0.0000       7.102185       193.2603 
 528   0.0000      22.404422       609.6553 
 529   0.0000      22.457829       611.1086 
 530   0.0000      22.473732       611.5413 
 531   0.0000      22.526110       612.9666 
 532   0.0000      22.593809       614.8088 
 533   0.0000      22.638219       616.0173 
 534   0.0000      22.794235       620.2627 
 535   0.0000      23.361901       635.7096 
 536   0.0000      23.380129       636.2056 
 537   0.0000      32.011312       871.0721 
 538   0.0000      32.505559       884.5212 
 539   0.0000      32.687938       889.4840 
 540   0.0000      44.068885      1199.1753 
 541   0.0000      44.106076      1200.1873 

                 SPIN DOWN ORBITALS
  NO   OCC          E(Eh)            E(eV) 
   0   1.0000     -19.607176      -533.5384 
   1   1.0000     -19.584464      -532.9204 
   2   1.0000     -14.788649      -402.4196 
   3   1.0000     -14.767197      -401.8358 
   4   1.0000     -14.747920      -401.3113 
   5   1.0000     -10.657763      -290.0125 
   6   1.0000     -10.641476      -289.5693 
   7   1.0000     -10.593566      -288.2656 
   8   1.0000     -10.579750      -287.8896 
   9   1.0000     -10.546951      -286.9971 
  10   1.0000     -10.543554      -286.9047 
  11   1.0000     -10.538889      -286.7778 
  12   1.0000     -10.536226      -286.7053 
  13   1.0000     -10.533176      -286.6223 
  14   1.0000      -1.170078       -31.8395 
  15   1.0000      -1.146591       -31.2003 
  16   1.0000      -1.042701       -28.3733 
  17   1.0000      -1.028453       -27.9856 
  18   1.0000      -0.995040       -27.0764 
  19   1.0000      -0.902084       -24.5469 
  20   1.0000      -0.858287       -23.3552 
  21   1.0000      -0.823580       -22.4107 
  22   1.0000      -0.803099       -21.8534 
  23   1.0000      -0.753046       -20.4914 
  24   1.0000      -0.697109       -18.9693 
  25   1.0000      -0.681180       -18.5359 
  26   1.0000      -0.655217       -17.8294 
  27   1.0000      -0.645614       -17.5681 
  28   1.0000      -0.616992       -16.7892 
  29   1.0000      -0.577723       -15.7207 
  30   1.0000      -0.561091       -15.2681 
  31   1.0000      -0.548386       -14.9223 
  32   1.0000      -0.545885       -14.8543 
  33   1.0000      -0.540576       -14.7098 
  34   1.0000      -0.525709       -14.3053 
  35   1.0000      -0.521440       -14.1891 
  36   1.0000      -0.509445       -13.8627 
  37   1.0000      -0.498796       -13.5729 
  38   1.0000      -0.482687       -13.1346 
  39   1.0000      -0.470971       -12.8158 
  40   1.0000      -0.468517       -12.7490 
  41   1.0000      -0.463471       -12.6117 
[...]
     62       0.091646   0.002064   0.000001  -0.000039  -0.000003  -0.000470
     63      -0.177086  -0.004356   0.000066  -0.000185  -0.000019  -0.000535
     64      -0.072900  -0.001771   0.000035  -0.000232  -0.000005   0.000099
     65      -0.049250  -0.001247   0.000026   0.000019  -0.000006  -0.000387
     66       0.260554   0.005346  -0.000021   0.000239  -0.000001  -0.000906
     67      -0.154043  -0.003077   0.000005  -0.000251   0.000009   0.002003
     68      -0.138840  -0.002764   0.000001  -0.000188  -0.000000   0.000827
     69      -0.064128  -0.001388  -0.000005  -0.000042   0.000004   0.000554
     70       0.097977   0.002227  -0.000006   0.000366  -0.000016  -0.004634
     71      -0.909445  -0.020599  -0.000005   0.000285   0.000048   0.012012
     72       0.000202   0.000444   0.000075   0.004376   0.000018   0.000203
     73      -0.000353  -0.000019  -0.000012   0.002550   0.000007  -0.000103
     74       0.000315   0.000176   0.000027   0.006702  -0.000018   0.001274
     75      -0.000142  -0.000283   0.000047  -0.000888  -0.000020   0.001272
     76       0.000450   0.000320  -0.000059   0.000806   0.000027   0.001194
     77       0.000748   0.000384  -0.000063   0.001227   0.000010   0.000638
     78      -0.000019  -0.000842   0.000004   0.000939   0.000003   0.000309
     79       0.000245   0.000550  -0.000091   0.000748  -0.000142   0.000499
     80      -0.000057  -0.000559   0.000029  -0.000591   0.000047  -0.000305
     81      -0.000187   0.002957   0.000252  -0.000311   0.000291  -0.000327
     82      -0.000750   0.015013  -0.000490   0.001291  -0.000106   0.000535
     83       0.000115  -0.003744   0.000134  -0.000106   0.000005  -0.000275
     84      -0.000015   0.001115  -0.000151   0.000310   0.000117  -0.000226
     85       0.000094  -0.001386   0.000070   0.000171  -0.000137   0.000177
     86       0.000076  -0.001401   0.000143   0.001153  -0.000320  -0.000013
     87       0.000044  -0.001352   0.000919  -0.000090  -0.000317   0.000062
     88       0.000012  -0.001220  -0.000443  -0.000007  -0.000209  -0.000175
     89       0.000050  -0.003017   0.000207   0.000051  -0.000009  -0.000213
     90       0.000040  -0.000206  -0.001579   0.000130  -0.001622   0.000087
     91      -0.000579   0.030317  -0.003722   0.000222  -0.001748   0.000121
     92       0.000141  -0.007330  -0.000396  -0.000112  -0.000520  -0.000040
     93      -0.000660   0.029002  -0.000345  -0.000072   0.001010  -0.000035
     94      -0.018954   0.833592   0.008738   0.000249   0.010541   0.000015
     95       0.012331  -0.542998  -0.006988  -0.000115  -0.010414   0.000031


-----------
IR SPECTRUM
-----------

 Mode   freq       eps      Int      T**2         TX        TY        TZ
       cm**-1   L/(mol*cm) km/mol    a.u.
----------------------------------------------------------------------------
  6:     34.67   0.000218    1.10  0.001966  ( 0.043721 -0.000238  0.007393)
  7:     52.94   0.000288    1.45  0.001697  (-0.039217  0.012075  0.003618)
  8:     64.78   0.000151    0.76  0.000727  (-0.011464 -0.014846  0.019370)
  9:     80.78   0.000549    2.77  0.002120  (-0.038921 -0.008648 -0.023022)
 10:     91.59   0.000705    3.56  0.002401  ( 0.046935  0.011229 -0.008489)
 11:    100.18   0.001952    9.86  0.006080  (-0.073804 -0.024596 -0.005292)
 12:    111.23   0.001075    5.43  0.003017  (-0.007547 -0.054170 -0.005055)
 13:    122.08   0.000010    0.05  0.000026  ( 0.000203  0.003733 -0.003434)
 14:    126.37   0.000040    0.20  0.000099  ( 0.007995 -0.004210  0.004113)
 15:    131.97   0.000456    2.31  0.001079  (-0.019248  0.018526  0.019116)
 16:    149.59   0.002042   10.32  0.004260  ( 0.044131 -0.048084  0.000426)
 17:    169.10   0.000569    2.87  0.001049  ( 0.025347  0.019229  0.006078)
 18:    215.43   0.000275    1.39  0.000399  ( 0.016458  0.007430  0.008538)
 19:    248.36   0.000671    3.39  0.000843  ( 0.010552 -0.023955 -0.012543)
 20:    300.68   0.000761    3.85  0.000790  ( 0.011705 -0.024593 -0.006925)
 21:    332.87   0.000339    1.71  0.000318  ( 0.001858  0.009604 -0.014899)
 22:    334.72   0.005451   27.55  0.005082  (-0.048937  0.051614 -0.004826)
 23:    356.78   0.001695    8.57  0.001483  ( 0.027161 -0.011486  0.024762)
 24:    392.84   0.003767   19.04  0.002992  (-0.002823 -0.054209 -0.006756)
 25:    430.56   0.006377   32.23  0.004622  ( 0.063748 -0.007631 -0.022357)
 26:    493.53   0.004352   22.00  0.002752  ( 0.052451  0.000304  0.000977)
 27:    521.55   0.007242   36.60  0.004333  (-0.058280 -0.021592 -0.021683)
 28:    548.66   0.020604  104.13  0.011719  (-0.107963 -0.007942 -0.000310)
 29:    572.80   0.005458   27.58  0.002974  (-0.003477 -0.035440 -0.041297)
 30:    603.24   0.007118   35.97  0.003682  (-0.012640 -0.000895  0.059344)
 31:    636.22   0.002259   11.42  0.001108  (-0.026726  0.019838 -0.000474)
 32:    666.11   0.001062    5.37  0.000498  ( 0.018922  0.011785  0.000820)
 33:    696.57   0.039094  197.57  0.017514  (-0.104487  0.031026  0.075061)
 34:    699.93   0.001939    9.80  0.000865  ( 0.021605 -0.008795 -0.017900)
 35:    753.26   0.001700    8.59  0.000704  ( 0.015338 -0.020277 -0.007603)
 36:    809.85   0.000317    1.60  0.000122  (-0.005163 -0.006254 -0.007504)
 37:    863.33   0.000655    3.31  0.000237  (-0.004468 -0.014132  0.004116)
 38:    893.77   0.000717    3.62  0.000250  ( 0.007002  0.006240  0.012745)
 39:    944.52   0.000956    4.83  0.000316  (-0.006521  0.006752  0.015095)
 40:    992.38   0.000802    4.05  0.000252  (-0.011315 -0.004036 -0.010391)
 41:   1018.20   0.002713   13.71  0.000831  ( 0.010709 -0.026740 -0.001315)
 42:   1023.87   0.000897    4.53  0.000273  ( 0.006209 -0.006760 -0.013749)
 43:   1063.75   0.000400    2.02  0.000117  ( 0.006485  0.006738  0.005480)
 44:   1066.66   0.001177    5.95  0.000344  (-0.018171 -0.003330 -0.001723)
 45:   1077.09   0.001005    5.08  0.000291  (-0.003059 -0.010596 -0.013018)
 46:   1085.96   0.000070    0.35  0.000020  (-0.004244  0.001143  0.000841)
 47:   1107.14   0.000678    3.42  0.000191  (-0.011287 -0.001724  0.007786)
 48:   1145.95   0.000661    3.34  0.000180  (-0.003312 -0.012846  0.002004)
 49:   1159.18   0.001289    6.51  0.000347  ( 0.004060 -0.015803 -0.008987)
 50:   1181.84   0.004638   23.44  0.001225  (-0.004904 -0.028697 -0.019418)
 51:   1197.48   0.001764    8.92  0.000460  (-0.009126  0.017342  0.008702)
 52:   1227.39   0.002330   11.78  0.000592  (-0.011287  0.019928  0.008242)
 53:   1232.64   0.002432   12.29  0.000616  ( 0.024610  0.003108 -0.000634)
 54:   1249.77   0.008510   43.00  0.002125  ( 0.018075  0.041751  0.007414)
 55:   1276.52   0.005091   25.73  0.001245  ( 0.000211 -0.034969 -0.004653)
 56:   1288.64   0.006711   33.92  0.001625  ( 0.033352 -0.020379 -0.009881)
 57:   1300.39   0.001020    5.16  0.000245  (-0.007776 -0.011871 -0.006595)
 58:   1329.35   0.004379   22.13  0.001028  ( 0.009027 -0.030683  0.002246)
 59:   1333.52   0.000100    0.50  0.000023  ( 0.004013 -0.001323 -0.002347)
 60:   1373.14   0.002363   11.94  0.000537  ( 0.004648  0.021984  0.005668)
 61:   1389.27   0.000723    3.66  0.000162  ( 0.001203  0.012392 -0.002729)
 62:   1412.28   0.008265   41.77  0.001826  ( 0.011184 -0.037194 -0.017826)
 63:   1417.04   0.001222    6.18  0.000269  ( 0.015011 -0.004206  0.005115)
 64:   1449.16   0.003273   16.54  0.000705  (-0.004423 -0.001792 -0.026115)
 65:   1466.80   0.003946   19.94  0.000839  (-0.027753 -0.004156  0.007207)
 66:   1476.68   0.002429   12.28  0.000513  (-0.019293  0.010888 -0.004759)
 67:   1483.68   0.000481    2.43  0.000101  ( 0.009847  0.002014  0.000276)
 68:   1488.25   0.005643   28.52  0.001183  ( 0.005026  0.031132 -0.013740)
 69:   1490.55   0.005872   29.68  0.001229  (-0.008921  0.033835 -0.002257)
 70:   1503.71   0.002849   14.40  0.000591  (-0.007247  0.020776 -0.010353)
 71:   1505.46   0.004721   23.86  0.000979  (-0.013120  0.025986  0.011457)
 72:   1512.00   0.010873   54.95  0.002244  ( 0.007859  0.046232  0.006701)
 73:   1550.65   0.098647  498.52  0.019852  (-0.044092  0.126591  0.043395)
 74:   1591.28   0.026992  136.41  0.005293  ( 0.016191  0.059217  0.039047)
 75:   1647.06   0.012690   64.13  0.002404  ( 0.037958  0.030666  0.004814)
 76:   1774.15   0.082910  418.99  0.014583  ( 0.009256 -0.048730  0.110106)
 77:   1789.09   0.020817  105.20  0.003631  (-0.020129  0.034899  0.044811)
 78:   2971.05   0.007896   39.90  0.000829  ( 0.002736  0.003346  0.028473)
 79:   3037.65   0.002288   11.56  0.000235  ( 0.003001  0.014951 -0.001584)
 80:   3056.79   0.003044   15.38  0.000311  (-0.001786 -0.015867  0.007473)
 81:   3066.03   0.003868   19.55  0.000394  (-0.006301 -0.005157  0.018094)
 82:   3075.28   0.011027   55.73  0.001119  ( 0.006528  0.030714  0.011535)
 83:   3079.54   0.002813   14.22  0.000285  (-0.004444 -0.008361 -0.013980)
 84:   3088.90   0.000601    3.03  0.000061  (-0.001089  0.001518  0.007562)
 85:   3106.22   0.001793    9.06  0.000180  (-0.002345  0.010022  0.008613)
 86:   3128.98   0.003771   19.06  0.000376  (-0.001919 -0.017559 -0.008008)
 87:   3141.40   0.003052   15.42  0.000303  (-0.017116  0.002457  0.002047)
 88:   3171.18   0.000559    2.82  0.000055  (-0.004964 -0.003139  0.004525)
 89:   3183.51   0.001192    6.03  0.000117  (-0.002494  0.006102 -0.008569)
 90:   3193.66   0.000005    0.02  0.000000  ( 0.000180  0.000562  0.000347)
 91:   3194.01   0.002898   14.64  0.000283  (-0.002772 -0.013014  0.010298)
 92:   3552.22   0.002286   11.55  0.000201  ( 0.011974  0.007211  0.002338)
 93:   3622.43   0.020188  102.02  0.001739  ( 0.000974 -0.034182  0.023869)
 94:   3659.58   0.003619   18.29  0.000309  (-0.009285  0.008211 -0.012448)
 95:   3661.24   0.007793   39.38  0.000664  (-0.000860  0.001247  0.025728)

* The epsilon (eps) is given for a Dirac delta lineshape.
** The dipole moment derivative (T) already includes vibrational overlap.

The first frequency considered to be a vibration is 6
The total number of vibrations considered is 90


--------------------------
THERMOCHEMISTRY AT 298.15K
--------------------------

Temperature         ... 298.15 K
Pressure            ... 1.00 atm
Total Mass          ... 200.26 AMU

Throughout the following assumptions are being made:
  (1) The electronic state is orbitally nondegenerate
      but the spin degeneracy is treated
  (2) There are no thermally accessible electronically excited states
  (3) Hindered rotations indicated by low frequency modes are not
      treated as such but are treated as vibrations and this may
      cause some error
  (4) All equations used are the standard statistical mechanics
      equations for an ideal gas
  (5) All vibrations are strictly harmonic

freq.      34.67  E(vib)   ...       0.54 
freq.      52.94  E(vib)   ...       0.52 
freq.      64.78  E(vib)   ...       0.50 
freq.      80.78  E(vib)   ...       0.48 
freq.      91.59  E(vib)   ...       0.47 
freq.     100.18  E(vib)   ...       0.46 
freq.     111.23  E(vib)   ...       0.45 
freq.     122.08  E(vib)   ...       0.44 
freq.     126.37  E(vib)   ...       0.43 
freq.     131.97  E(vib)   ...       0.42 
freq.     149.59  E(vib)   ...       0.40 
freq.     169.10  E(vib)   ...       0.38 
freq.     215.43  E(vib)   ...       0.34 
freq.     248.36  E(vib)   ...       0.31 
freq.     300.68  E(vib)   ...       0.26 
freq.     332.87  E(vib)   ...       0.24 
freq.     334.72  E(vib)   ...       0.24 
freq.     356.78  E(vib)   ...       0.22 
freq.     392.84  E(vib)   ...       0.20 
freq.     430.56  E(vib)   ...       0.18 
freq.     493.53  E(vib)   ...       0.14 
freq.     521.55  E(vib)   ...       0.13 
freq.     548.66  E(vib)   ...       0.12 
freq.     572.80  E(vib)   ...       0.11 
freq.     603.24  E(vib)   ...       0.10 
freq.     636.22  E(vib)   ...       0.09 
freq.     666.11  E(vib)   ...       0.08 
freq.     696.57  E(vib)   ...       0.07 
freq.     699.93  E(vib)   ...       0.07 
freq.     753.26  E(vib)   ...       0.06 
freq.     809.85  E(vib)   ...       0.05 
freq.     863.33  E(vib)   ...       0.04 
freq.     893.77  E(vib)   ...       0.03 
freq.     944.52  E(vib)   ...       0.03 
freq.     992.38  E(vib)   ...       0.02 
freq.    1018.20  E(vib)   ...       0.02 
freq.    1023.87  E(vib)   ...       0.02 
freq.    1063.75  E(vib)   ...       0.02 
freq.    1066.66  E(vib)   ...       0.02 
freq.    1077.09  E(vib)   ...       0.02 
freq.    1085.96  E(vib)   ...       0.02 
freq.    1107.14  E(vib)   ...       0.02 
freq.    1145.95  E(vib)   ...       0.01 
freq.    1159.18  E(vib)   ...       0.01 
freq.    1181.84  E(vib)   ...       0.01 
freq.    1197.48  E(vib)   ...       0.01 
freq.    1227.39  E(vib)   ...       0.01 
freq.    1232.64  E(vib)   ...       0.01 
freq.    1249.77  E(vib)   ...       0.01 
freq.    1276.52  E(vib)   ...       0.01 
freq.    1288.64  E(vib)   ...       0.01 
freq.    1300.39  E(vib)   ...       0.01 
freq.    1329.35  E(vib)   ...       0.01 
freq.    1333.52  E(vib)   ...       0.01 
freq.    1373.14  E(vib)   ...       0.01 
freq.    1389.27  E(vib)   ...       0.00 
freq.    1412.28  E(vib)   ...       0.00 
freq.    1417.04  E(vib)   ...       0.00 
freq.    1449.16  E(vib)   ...       0.00 
freq.    1466.80  E(vib)   ...       0.00 
freq.    1476.68  E(vib)   ...       0.00 
freq.    1483.68  E(vib)   ...       0.00 
freq.    1488.25  E(vib)   ...       0.00 
freq.    1490.55  E(vib)   ...       0.00 
freq.    1503.71  E(vib)   ...       0.00 
freq.    1505.46  E(vib)   ...       0.00 
freq.    1512.00  E(vib)   ...       0.00 
freq.    1550.65  E(vib)   ...       0.00 
freq.    1591.28  E(vib)   ...       0.00 
freq.    1647.06  E(vib)   ...       0.00 
freq.    1774.15  E(vib)   ...       0.00 
freq.    1789.09  E(vib)   ...       0.00 
freq.    2971.05  E(vib)   ...       0.00 
freq.    3037.65  E(vib)   ...       0.00 
freq.    3056.79  E(vib)   ...       0.00 
freq.    3066.03  E(vib)   ...       0.00 
freq.    3075.28  E(vib)   ...       0.00 
freq.    3079.54  E(vib)   ...       0.00 
freq.    3088.90  E(vib)   ...       0.00 
freq.    3106.22  E(vib)   ...       0.00 
freq.    3128.98  E(vib)   ...       0.00 
freq.    3141.40  E(vib)   ...       0.00 
freq.    3171.18  E(vib)   ...       0.00 
freq.    3183.51  E(vib)   ...       0.00 
freq.    3193.66  E(vib)   ...       0.00 
freq.    3194.01  E(vib)   ...       0.00 
freq.    3552.22  E(vib)   ...       0.00 
freq.    3622.43  E(vib)   ...       0.00 
freq.    3659.58  E(vib)   ...       0.00 
freq.    3661.24  E(vib)   ...       0.00 

------------
INNER ENERGY
------------

The inner energy is: U= E(el) + E(ZPE) + E(vib) + E(rot) + E(trans)
    E(el)   - is the total energy from the electronic structure calculation
              = E(kin-el) + E(nuc-el) + E(el-el) + E(nuc-nuc)
    E(ZPE)  - the the zero temperature vibrational energy from the frequency calculation
    E(vib)  - the the finite temperature correction to E(ZPE) due to population
              of excited vibrational states
    E(rot)  - is the rotational thermal energy
    E(trans)- is the translational thermal energy

Summary of contributions to the inner energy U:
Electronic energy                ...   -668.45743692 Eh
Zero point energy                ...      0.27843426 Eh     174.72 kcal/mol
Thermal vibrational correction   ...      0.01422842 Eh       8.93 kcal/mol
Thermal rotational correction    ...      0.00141627 Eh       0.89 kcal/mol
Thermal translational correction ...      0.00141627 Eh       0.89 kcal/mol
-----------------------------------------------------------------------
Total thermal energy                   -668.16194170 Eh


Summary of corrections to the electronic energy:
(perhaps to be used in another calculation)
Total thermal correction                  0.01706096 Eh      10.71 kcal/mol
Non-thermal (ZPE) correction              0.27843426 Eh     174.72 kcal/mol
-----------------------------------------------------------------------
Total correction                          0.29549522 Eh     185.43 kcal/mol


--------
ENTHALPY
--------

The enthalpy is H = U + kB*T
                kB is Boltzmann's constant
Total free energy                 ...   -668.16194170 Eh 
Thermal Enthalpy correction       ...      0.00094421 Eh       0.59 kcal/mol
-----------------------------------------------------------------------
Total Enthalpy                    ...   -668.16099749 Eh


Note: Only C1 symmetry has been detected, increase convergence thresholds 
      if your molecule has a higher symmetry. Symmetry factor of 1.0 is   
      used for the rotational entropy correction. 
 

Note: Rotational entropy computed according to Herzberg 
Infrared and Raman Spectra, Chapter V,1, Van Nostrand Reinhold, 1945 
Point Group:  C1, Symmetry Number:   1  
Rotational constants in cm-1:     0.019936     0.013972     0.009350 

Vibrational entropy computed according to the QRRHO of S. Grimme
Chem.Eur.J. 2012 18 9955


-------
ENTROPY
-------

The entropy contributions are T*S = T*(S(el)+S(vib)+S(rot)+S(trans))
     S(el)   - electronic entropy
     S(vib)  - vibrational entropy
     S(rot)  - rotational entropy
     S(trans)- translational entropy
The entropies will be listed as multiplied by the temperature to get
units of energy

Electronic entropy                ...      0.00065446 Eh      0.41 kcal/mol
Vibrational entropy               ...      0.02581059 Eh     16.20 kcal/mol
Rotational entropy                ...      0.01558107 Eh      9.78 kcal/mol
Translational entropy             ...      0.01985478 Eh     12.46 kcal/mol
-----------------------------------------------------------------------
Final entropy term                ...      0.06190090 Eh     38.84 kcal/mol

In case the symmetry of your molecule has not been determined correctly
or in case you have a reason to use a different symmetry number we print 
out the resulting rotational entropy values for sn=1,12 :
 --------------------------------------------------------
|  sn= 1 | S(rot)=       0.01558107 Eh      9.78 kcal/mol|
|  sn= 2 | S(rot)=       0.01492662 Eh      9.37 kcal/mol|
|  sn= 3 | S(rot)=       0.01454378 Eh      9.13 kcal/mol|
|  sn= 4 | S(rot)=       0.01427216 Eh      8.96 kcal/mol|
|  sn= 5 | S(rot)=       0.01406147 Eh      8.82 kcal/mol|
|  sn= 6 | S(rot)=       0.01388933 Eh      8.72 kcal/mol|
|  sn= 7 | S(rot)=       0.01374378 Eh      8.62 kcal/mol|
|  sn= 8 | S(rot)=       0.01361770 Eh      8.55 kcal/mol|
|  sn= 9 | S(rot)=       0.01350649 Eh      8.48 kcal/mol|
|  sn=10 | S(rot)=       0.01340701 Eh      8.41 kcal/mol|
|  sn=11 | S(rot)=       0.01331702 Eh      8.36 kcal/mol|
|  sn=12 | S(rot)=       0.01323487 Eh      8.30 kcal/mol|
 --------------------------------------------------------


-------------------
GIBBS FREE ENERGY
-------------------

The Gibbs free energy is G = H - T*S

Total enthalpy                    ...   -668.16099749 Eh 
Total entropy correction          ...     -0.06190090 Eh    -38.84 kcal/mol
-----------------------------------------------------------------------
Final Gibbs free energy         ...   -668.22289839 Eh

For completeness - the Gibbs free energy minus the electronic energy
G-E(el)                           ...      0.23453853 Eh    147.17 kcal/mol


Timings for individual modules:

Sum of individual times         ...     1458.043 sec (=  24.301 min)
GTO integral calculation        ...       36.387 sec (=   0.606 min)   2.5 %
SCF iterations                  ...      514.453 sec (=   8.574 min)  35.3 %
SCF Gradient evaluation         ...      154.508 sec (=   2.575 min)  10.6 %
Geometry relaxation             ...        0.566 sec (=   0.009 min)   0.0 %
Analytical frequency calculation...      752.129 sec (=  12.535 min)  51.6 %
                             ****ORCA TERMINATED NORMALLY****
TOTAL RUN TIME: 0 days 0 hours 24 minutes 48 seconds 984 msec
