32
Energy: -668.16570572
N      -1.829877000000000      0.791097000000000      0.736714000000000
C      -1.506701000000000     -0.094858000000000     -0.355660000000000
C      -1.649412000000000     -1.535676000000000      0.164276000000000
O      -1.747434000000000     -1.789559000000000      1.350442000000000
C      -0.087652000000000      0.164005000000000     -0.925247000000000
C       1.046977000000000     -0.159666000000000      0.057655000000000
C       2.427269000000000      0.208906000000000     -0.511949000000000
C       3.548513000000000     -0.134852000000000      0.429418000000000
N       4.831051000000000      0.293398000000000      0.077779000000000
H       5.551879000000000      0.124402000000000      0.766155000000000
H       4.885875000000000      1.234385000000000     -0.291591000000000
H      -1.866567000000000      0.367132000000000      1.653786000000000
C      -2.248345000000000      2.063894000000000      0.525474000000000
N      -1.622647000000000     -2.498101000000000     -0.784265000000000
H      -1.597094000000000     -2.228899000000000     -1.754603000000000
O      -2.306453000000000      2.552910000000000     -0.587578000000000
C      -2.656759000000000      2.839552000000000      1.770807000000000
H      -2.236470000000000      3.847934000000000      1.704247000000000
H      -3.749984000000000      2.929942000000000      1.779363000000000
H      -2.330109000000000      2.360150000000000      2.699543000000000
C      -1.728046000000000     -3.903973000000000     -0.441118000000000
H      -2.729490000000000     -4.147314000000000     -0.063235000000000
H      -1.524071000000000     -4.502234000000000     -1.333961000000000
H      -0.999615000000000     -4.154569000000000      0.337774000000000
H      -2.232960000000000      0.076887000000000     -1.162380000000000
H       0.039591000000000     -0.422455000000000     -1.847273000000000
H      -0.055713000000000      1.222670000000000     -1.213902000000000
H       1.032987000000000     -1.232480000000000      0.302475000000000
H       0.887550000000000      0.381131000000000      1.000087000000000
H       2.565043000000000     -0.300375000000000     -1.486614000000000
H       2.450816000000000      1.289303000000000     -0.732858000000000
H       3.518393000000000     -1.095609000000000      0.944839000000000
