
                                 *****************
                                 * O   R   C   A *
                                 *****************

                                            #,                                       
                                            ###                                      
                                            ####                                     
                                            #####                                    
                                            ######                                   
                                           ########,                                 
                                     ,,################,,,,,                         
                               ,,#################################,,                 
                          ,,##########################################,,             
                       ,#########################################, ''#####,          
                    ,#############################################,,   '####,        
                  ,##################################################,,,,####,       
                ,###########''''           ''''###############################       
              ,#####''   ,,,,##########,,,,          '''####'''          '####       
            ,##' ,,,,###########################,,,                        '##       
           ' ,,###''''                  '''############,,,                           
         ,,##''                                '''############,,,,        ,,,,,,###''
      ,#''                                            '''#######################'''  
     '                                                          ''''####''''         
             ,#######,   #######,   ,#######,      ##                                
            ,#'     '#,  ##    ##  ,#'     '#,    #''#        ######   ,####,        
            ##       ##  ##   ,#'  ##            #'  '#       #        #'  '#        
            ##       ##  #######   ##           ,######,      #####,   #    #        
            '#,     ,#'  ##    ##  '#,     ,#' ,#      #,         ##   #,  ,#        
             '#######'   ##     ##  '#######'  #'      '#     #####' # '####'        



                  #######################################################
                  #                        -***-                        #
                  #          Department of theory and spectroscopy      #
                  #    Directorship and core code : Frank Neese         #
                  #        Max Planck Institute fuer Kohlenforschung    #
                  #                Kaiser Wilhelm Platz 1               #
                  #                 D-45470 Muelheim/Ruhr               #
                  #                      Germany                        #
                  #                                                     #
                  #                  All rights reserved                #
                  #                        -***-                        #
                  #######################################################


                         Program Version 5.0.4 -  RELEASE  -


 With contributions from (in alphabetic order):
   Daniel Aravena         : Magnetic Suceptibility
   Michael Atanasov       : Ab Initio Ligand Field Theory (pilot matlab implementation)
   Alexander A. Auer      : GIAO ZORA, VPT2 properties, NMR spectrum
   Ute Becker             : Parallelization
   Giovanni Bistoni       : ED, misc. LED, open-shell LED, HFLD
   Martin Brehm           : Molecular dynamics
   Dmytro Bykov           : SCF Hessian
   Vijay G. Chilkuri      : MRCI spin determinant printing, contributions to CSF-ICE
   Dipayan Datta          : RHF DLPNO-CCSD density
   Achintya Kumar Dutta   : EOM-CC, STEOM-CC
   Dmitry Ganyushin       : Spin-Orbit,Spin-Spin,Magnetic field MRCI
   Miquel Garcia          : C-PCM and meta-GGA Hessian, CC/C-PCM, Gaussian charge scheme
   Yang Guo               : DLPNO-NEVPT2, F12-NEVPT2, CIM, IAO-localization
   Andreas Hansen         : Spin unrestricted coupled pair/coupled cluster methods
   Benjamin Helmich-Paris : MC-RPA, TRAH-SCF, COSX integrals
   Lee Huntington         : MR-EOM, pCC
   Robert Izsak           : Overlap fitted RIJCOSX, COSX-SCS-MP3, EOM
   Marcus Kettner         : VPT2
   Christian Kollmar      : KDIIS, OOCD, Brueckner-CCSD(T), CCSD density, CASPT2, CASPT2-K
   Simone Kossmann        : Meta GGA functionals, TD-DFT gradient, OOMP2, MP2 Hessian
   Martin Krupicka        : Initial AUTO-CI
   Lucas Lang             : DCDCAS
   Marvin Lechner         : AUTO-CI (C++ implementation), FIC-MRCC
   Dagmar Lenk            : GEPOL surface, SMD
   Dimitrios Liakos       : Extrapolation schemes; Compound Job, initial MDCI parallelization
   Dimitrios Manganas     : Further ROCIS development; embedding schemes
   Dimitrios Pantazis     : SARC Basis sets
   Anastasios Papadopoulos: AUTO-CI, single reference methods and gradients
   Taras Petrenko         : DFT Hessian,TD-DFT gradient, ASA, ECA, R-Raman, ABS, FL, XAS/XES, NRVS
   Peter Pinski           : DLPNO-MP2, DLPNO-MP2 Gradient
   Christoph Reimann      : Effective Core Potentials
   Marius Retegan         : Local ZFS, SOC
   Christoph Riplinger    : Optimizer, TS searches, QM/MM, DLPNO-CCSD(T), (RO)-DLPNO pert. Triples
   Tobias Risthaus        : Range-separated hybrids, TD-DFT gradient, RPA, STAB
   Michael Roemelt        : Original ROCIS implementation
   Masaaki Saitow         : Open-shell DLPNO-CCSD energy and density
   Barbara Sandhoefer     : DKH picture change effects
   Avijit Sen             : IP-ROCIS
   Kantharuban Sivalingam : CASSCF convergence, NEVPT2, FIC-MRCI
   Bernardo de Souza      : ESD, SOC TD-DFT
   Georgi Stoychev        : AutoAux, RI-MP2 NMR, DLPNO-MP2 response
   Willem Van den Heuvel  : Paramagnetic NMR
   Boris Wezisla          : Elementary symmetry handling
   Frank Wennmohs         : Technical directorship


 We gratefully acknowledge several colleagues who have allowed us to
 interface, adapt or use parts of their codes:
   Stefan Grimme, W. Hujo, H. Kruse, P. Pracht,  : VdW corrections, initial TS optimization,
                  C. Bannwarth, S. Ehlert          DFT functionals, gCP, sTDA/sTD-DF
   Ed Valeev, F. Pavosevic, A. Kumar             : LibInt (2-el integral package), F12 methods
   Garnet Chan, S. Sharma, J. Yang, R. Olivares  : DMRG
   Ulf Ekstrom                                   : XCFun DFT Library
   Mihaly Kallay                                 : mrcc  (arbitrary order and MRCC methods)
   Jiri Pittner, Ondrej Demel                    : Mk-CCSD
   Frank Weinhold                                : gennbo (NPA and NBO analysis)
   Christopher J. Cramer and Donald G. Truhlar   : smd solvation model
   Lars Goerigk                                  : TD-DFT with DH, B97 family of functionals
   V. Asgeirsson, H. Jonsson                     : NEB implementation
   FAccTs GmbH                                   : IRC, NEB, NEB-TS, DLPNO-Multilevel, CI-OPT
                                                   MM, QMMM, 2- and 3-layer-ONIOM, Crystal-QMMM,
                                                   LR-CPCM, SF, NACMEs, symmetry and pop. for TD-DFT,
                                                   nearIR, NL-DFT gradient (VV10), updates on ESD,
                                                   ML-optimized integration grids
   S Lehtola, MJT Oliveira, MAL Marques          : LibXC Library
   Liviu Ungur et al                             : ANISO software


 Your calculation uses the libint2 library for the computation of 2-el integrals
 For citations please refer to: http://libint.valeyev.net

 Your ORCA version has been built with support for libXC version: 5.1.0
 For citations please refer to: https://tddft.org/programs/libxc/

 This ORCA versions uses:
   CBLAS   interface :  Fast vector & matrix operations
   LAPACKE interface :  Fast linear algebra routines
   SCALAPACK package :  Parallel linear algebra routines
   Shared memory     :  Shared parallel matrices
   BLAS/LAPACK       :  OpenBLAS 0.3.15  USE64BITINT DYNAMIC_ARCH NO_AFFINITY Zen SINGLE_THREADED
        Core in use  :  Zen
   Copyright (c) 2011-2014, The OpenBLAS Project




***************************************
The coordinates will be read from file: model.xyz
***************************************


================================================================================

----- Orbital basis set information -----
Your calculation utilizes the basis: EPR-II
   V. Barone, in Recent Advances in Density Functional Methods, Part 1 (ed. D. P. Chong), World Scientific, Singapore, 1995, p. 287.

----- AuxJ basis set information -----
Your calculation utilizes the auxiliary basis: def2/J
   F. Weigend, Phys. Chem. Chem. Phys. 8, 1057 (2006).

================================================================================
                                        WARNINGS
                       Please study these warnings very carefully!
================================================================================


WARNING: your system is open-shell and RHF/RKS was chosen
  ===> : WILL SWITCH to UHF/UKS


WARNING: Geometry Optimization
  ===> : Switching off AutoStart
         For restart on a previous wavefunction, please use MOREAD

INFO   : the flag for use of the SHARK integral package has been found!

================================================================================
                                       INPUT FILE
================================================================================
NAME = opt.inp
|  1> ! B3LYP EPR-II OPT
|  2> %pal nprocs 16 end
|  3> *XYZFile 0 2 model.xyz
|  4> 
|  5>                          ****END OF INPUT****
================================================================================

                       *****************************
                       * Geometry Optimization Run *
                       *****************************

Geometry optimization settings:
Update method            Update   .... BFGS
Choice of coordinates    CoordSys .... Z-matrix Internals
Initial Hessian          InHess   .... Almoef's Model

Convergence Tolerances:
Energy Change            TolE     ....  5.0000e-06 Eh
Max. Gradient            TolMAXG  ....  3.0000e-04 Eh/bohr
RMS Gradient             TolRMSG  ....  1.0000e-04 Eh/bohr
Max. Displacement        TolMAXD  ....  4.0000e-03 bohr
RMS Displacement         TolRMSD  ....  2.0000e-03 bohr
Strict Convergence                ....  False
------------------------------------------------------------------------------
                        ORCA OPTIMIZATION COORDINATE SETUP
------------------------------------------------------------------------------

The optimization will be done in new redundant internal coordinates
Making redundant internal coordinates   ...  (new redundants) done
Evaluating the initial hessian          ...  (Almloef) done
Evaluating the coordinates              ...  done
Calculating the B-matrix                .... done
Calculating the G-matrix                .... done
Diagonalizing the G-matrix              .... done
Small eigenvalue found = 6.126e-03
Small eigenvalue found = 7.125e-03
Small eigenvalue found = 9.825e-03
Small eigenvalue found = 2.300e-02
Small eigenvalue found = 2.979e-02
The first mode is                       ....   64
The number of degrees of freedom        ....   90

    -----------------------------------------------------------------
                    Redundant Internal Coordinates


    -----------------------------------------------------------------
         Definition                    Initial Value    Approx d2E/dq
    -----------------------------------------------------------------
      1. B(C   1,N   0)                  1.4431         0.460364   
      2. B(C   2,C   1)                  1.5384         0.362231   
      3. B(O   3,C   2)                  1.2170         1.056595   
      4. B(C   4,C   1)                  1.5509         0.346028   
      5. B(C   5,C   4)                  1.5357         0.365891   
      6. B(C   6,C   5)                  1.5380         0.362731   
      7. B(C   7,C   6)                  1.5038         0.411260   
      8. B(N   8,C   7)                  1.3971         0.545145   
      9. B(H   9,N   8)                  1.0109         0.431205   
     10. B(H  10,N   8)                  1.0124         0.428954   
     11. B(H  11,N   0)                  1.0110         0.431127   
     12. B(C  12,N   0)                  1.3564         0.633175   
     13. B(N  13,C   2)                  1.3516         0.644477   
     14. B(H  14,N  13)                  1.0073         0.437001   
     15. B(O  15,C  12)                  1.2171         1.056047   
     16. B(C  16,C  12)                  1.5229         0.383411   
     17. B(H  17,C  16)                  1.0945         0.354210   
     18. B(H  18,C  16)                  1.0970         0.350972   
     19. B(H  19,C  16)                  1.0950         0.353515   
     20. B(C  20,N  13)                  1.4510         0.447291   
     21. B(H  21,C  20)                  1.0977         0.350083   
     22. B(H  22,C  20)                  1.0939         0.354934   
     23. B(H  23,C  20)                  1.0955         0.352919   
     24. B(H  24,C   1)                  1.0990         0.348421   
     25. B(H  25,C   4)                  1.1001         0.346962   
     26. B(H  26,C   4)                  1.0978         0.349958   
     27. B(H  27,C   5)                  1.1005         0.346496   
     28. B(H  28,C   5)                  1.0982         0.349406   
     29. B(H  29,C   6)                  1.1083         0.336692   
     30. B(H  30,C   6)                  1.1030         0.343305   
     31. B(H  31,C   7)                  1.0907         0.359179   
     32. A(H  11,N   0,C  12)          121.5732         0.359731   
     33. A(C   1,N   0,H  11)          115.9320         0.340888   
     34. A(C   1,N   0,C  12)          121.8223         0.407808   
     35. A(N   0,C   1,C   4)          112.3611         0.369365   
     36. A(N   0,C   1,H  24)          108.1627         0.331863   
     37. A(N   0,C   1,C   2)          107.3597         0.372284   
     38. A(C   4,C   1,H  24)          107.9989         0.318555   
     39. A(C   2,C   1,C   4)          111.4285         0.356761   
     40. A(C   2,C   1,H  24)          109.4604         0.320945   
     41. A(C   1,C   2,N  13)          115.3337         0.394697   
     42. A(C   1,C   2,O   3)          122.1590         0.430890   
     43. A(O   3,C   2,N  13)          122.4852         0.475307   
     44. A(H  25,C   4,H  26)          106.8790         0.287859   
     45. A(C   5,C   4,H  26)          110.4912         0.321705   
     46. A(C   5,C   4,H  25)          109.7929         0.321253   
     47. A(C   1,C   4,C   5)          113.9417         0.357371   
     48. A(C   1,C   4,H  26)          106.5089         0.318784   
     49. A(C   1,C   4,H  25)          108.9456         0.318337   
     50. A(C   4,C   5,H  28)          109.7681         0.321622   
     51. A(C   6,C   5,H  27)          109.1119         0.320727   
     52. A(C   6,C   5,H  28)          109.2744         0.321166   
     53. A(C   4,C   5,C   6)          112.0572         0.360250   
     54. A(C   4,C   5,H  27)          109.7836         0.321182   
     55. A(H  27,C   5,H  28)          106.6964         0.287727   
     56. A(H  29,C   6,H  30)          105.7425         0.285655   
     57. A(C   5,C   6,C   7)          112.4898         0.367522   
     58. A(C   7,C   6,H  30)          109.4726         0.326908   
     59. A(C   5,C   6,H  30)          109.1512         0.320242   
     60. A(C   7,C   6,H  29)          110.6572         0.325863   
     61. A(C   5,C   6,H  29)          109.0952         0.319226   
     62. A(C   6,C   7,H  31)          118.4621         0.329354   
     63. A(C   6,C   7,N   8)          117.1822         0.391912   
     64. A(N   8,C   7,H  31)          114.4748         0.343078   
     65. A(H   9,N   8,H  10)          111.4202         0.302667   
     66. A(C   7,N   8,H  10)          115.2426         0.350412   
     67. A(C   7,N   8,H   9)          115.5897         0.350722   
     68. A(O  15,C  12,C  16)          122.0300         0.435275   
     69. A(N   0,C  12,C  16)          115.6787         0.397417   
     70. A(N   0,C  12,O  15)          122.2879         0.473718   
     71. A(H  14,N  13,C  20)          119.2483         0.340019   
     72. A(C   2,N  13,C  20)          121.5026         0.407007   
     73. A(C   2,N  13,H  14)          119.0945         0.361651   
     74. A(H  18,C  16,H  19)          109.0710         0.288833   
     75. A(H  17,C  16,H  19)          109.9004         0.289249   
     76. A(C  12,C  16,H  19)          112.9898         0.324720   
     77. A(H  17,C  16,H  18)          107.8933         0.288922   
     78. A(C  12,C  16,H  18)          108.3972         0.324336   
     79. A(C  12,C  16,H  17)          108.4539         0.324825   
     80. A(H  21,C  20,H  22)          109.2596         0.288900   
     81. A(N  13,C  20,H  22)          108.8641         0.331298   
     82. A(N  13,C  20,H  21)          111.2527         0.330545   
     83. A(H  22,C  20,H  23)          109.3426         0.289265   
     84. A(H  21,C  20,H  23)          108.1295         0.288642   
     85. A(N  13,C  20,H  23)          109.9676         0.330986   
     86. D(H  24,C   1,N   0,H  11)    131.9397         0.018092   
     87. D(C   4,C   1,N   0,C  12)     80.3196         0.018092   
     88. D(H  24,C   1,N   0,C  12)    -38.7978         0.018092   
     89. D(C   2,C   1,N   0,C  12)   -156.8265         0.018092   
     90. D(C   4,C   1,N   0,H  11)   -108.9429         0.018092   
     91. D(C   2,C   1,N   0,H  11)     13.9110         0.018092   
     92. D(N  13,C   2,C   1,C   4)    -68.1345         0.009857   
     93. D(N  13,C   2,C   1,N   0)    168.4375         0.009857   
     94. D(O   3,C   2,C   1,N   0)    -13.2341         0.009857   
     95. D(N  13,C   2,C   1,H  24)     51.2543         0.009857   
     96. D(O   3,C   2,C   1,C   4)    110.1938         0.009857   
     97. D(O   3,C   2,C   1,H  24)   -130.4174         0.009857   
     98. D(C   5,C   4,C   1,C   2)    -54.5505         0.009665   
     99. D(C   5,C   4,C   1,N   0)     65.9829         0.009665   
    100. D(H  26,C   4,C   1,C   2)   -176.6293         0.009665   
    101. D(C   5,C   4,C   1,H  24)   -174.8039         0.009665   
    102. D(H  25,C   4,C   1,H  24)    -51.8384         0.009665   
    103. D(H  25,C   4,C   1,C   2)     68.4149         0.009665   
    104. D(H  25,C   4,C   1,N   0)   -171.0516         0.009665   
    105. D(H  26,C   4,C   1,H  24)     63.1174         0.009665   
    106. D(H  26,C   4,C   1,N   0)    -56.0958         0.009665   
    107. D(H  28,C   5,C   4,H  26)     65.6531         0.010717   
    108. D(H  28,C   5,C   4,H  25)   -176.7067         0.010717   
    109. D(H  28,C   5,C   4,C   1)    -54.2046         0.010717   
    110. D(H  27,C   5,C   4,H  26)   -177.3647         0.010717   
    111. D(H  27,C   5,C   4,H  25)    -59.7245         0.010717   
    112. D(H  27,C   5,C   4,C   1)     62.7775         0.010717   
    113. D(C   6,C   5,C   4,H  26)    -55.9536         0.010717   
    114. D(C   6,C   5,C   4,H  25)     61.6866         0.010717   
    115. D(C   6,C   5,C   4,C   1)   -175.8113         0.010717   
    116. D(C   7,C   6,C   5,C   4)   -178.6100         0.010545   
    117. D(H  30,C   6,C   5,H  27)   -178.5295         0.010545   
    118. D(H  30,C   6,C   5,C   4)     59.6740         0.010545   
    119. D(H  29,C   6,C   5,H  28)   -177.3130         0.010545   
    120. D(H  29,C   6,C   5,H  27)     66.3731         0.010545   
    121. D(H  29,C   6,C   5,C   4)    -55.4234         0.010545   
    122. D(C   7,C   6,C   5,H  28)     59.5004         0.010545   
    123. D(H  30,C   6,C   5,H  28)    -62.2156         0.010545   
    124. D(C   7,C   6,C   5,H  27)    -56.8135         0.010545   
    125. D(H  31,C   7,C   6,H  30)    164.6232         0.012524   
    126. D(H  31,C   7,C   6,H  29)    -79.2185         0.012524   
    127. D(H  31,C   7,C   6,C   5)     43.0901         0.012524   
    128. D(N   8,C   7,C   6,H  30)    -51.4614         0.012524   
    129. D(N   8,C   7,C   6,H  29)     64.6969         0.012524   
    130. D(N   8,C   7,C   6,C   5)   -172.9945         0.012524   
    131. D(H  10,N   8,C   7,H  31)   -172.3932         0.023664   
    132. D(H  10,N   8,C   7,C   6)     42.2812         0.023664   
    133. D(H   9,N   8,C   7,H  31)    -40.0586         0.023664   
    134. D(H   9,N   8,C   7,C   6)    174.6158         0.023664   
    135. D(C  16,C  12,N   0,H  11)      5.1034         0.032573   
    136. D(C  16,C  12,N   0,C   1)    175.3212         0.032573   
    137. D(O  15,C  12,N   0,H  11)   -174.2414         0.032573   
    138. D(O  15,C  12,N   0,C   1)     -4.0235         0.032573   
    139. D(C  20,N  13,C   2,O   3)      0.8318         0.033847   
    140. D(C  20,N  13,C   2,C   1)    179.1542         0.033847   
    141. D(H  14,N  13,C   2,O   3)    176.2773         0.033847   
    142. D(H  14,N  13,C   2,C   1)     -5.4004         0.033847   
    143. D(H  19,C  16,C  12,N   0)     14.2335         0.010958   
    144. D(H  18,C  16,C  12,O  15)     72.5720         0.010958   
    145. D(H  18,C  16,C  12,N   0)   -106.7745         0.010958   
    146. D(H  17,C  16,C  12,O  15)    -44.3216         0.010958   
    147. D(H  19,C  16,C  12,O  15)   -166.4200         0.010958   
    148. D(H  17,C  16,C  12,N   0)    136.3318         0.010958   
    149. D(H  23,C  20,N  13,H  14)    133.2913         0.017065   
    150. D(H  23,C  20,N  13,C   2)    -51.2701         0.017065   
    151. D(H  22,C  20,N  13,H  14)     13.5196         0.017065   
    152. D(H  22,C  20,N  13,C   2)   -171.0417         0.017065   
    153. D(H  21,C  20,N  13,H  14)   -106.9376         0.017065   
    154. D(H  21,C  20,N  13,C   2)     68.5010         0.017065   
    -----------------------------------------------------------------

Number of atoms                         .... 32
Number of degrees of freedom            .... 154

         *************************************************************
         *                GEOMETRY OPTIMIZATION CYCLE   1            *
         *************************************************************
---------------------------------
CARTESIAN COORDINATES (ANGSTROEM)
---------------------------------
  N     -1.829877    0.791097    0.736714
  C     -1.506701   -0.094858   -0.355660
  C     -1.649412   -1.535676    0.164276
  O     -1.747434   -1.789559    1.350442
  C     -0.087652    0.164005   -0.925247
  C      1.046977   -0.159666    0.057655
  C      2.427269    0.208906   -0.511949
  C      3.548513   -0.134852    0.429418
  N      4.831051    0.293398    0.077779
  H      5.551879    0.124402    0.766155
  H      4.885875    1.234385   -0.291591
  H     -1.866567    0.367132    1.653786
  C     -2.248345    2.063894    0.525474
  N     -1.622647   -2.498101   -0.784265
  H     -1.597094   -2.228899   -1.754603
  O     -2.306453    2.552910   -0.587578
  C     -2.656759    2.839552    1.770807
  H     -2.236470    3.847934    1.704247
  H     -3.749984    2.929942    1.779363
  H     -2.330109    2.360150    2.699543
  C     -1.728046   -3.903973   -0.441118
  H     -2.729490   -4.147314   -0.063235
  H     -1.524071   -4.502234   -1.333961
  H     -0.999615   -4.154569    0.337774
  H     -2.232960    0.076887   -1.162380
  H      0.039591   -0.422455   -1.847273
  H     -0.055713    1.222670   -1.213902
  H      1.032987   -1.232480    0.302475
  H      0.887550    0.381131    1.000087
  H      2.565043   -0.300375   -1.486614
  H      2.450816    1.289303   -0.732858
  H      3.518393   -1.095609    0.944839

----------------------------
CARTESIAN COORDINATES (A.U.)
----------------------------
  NO LB      ZA    FRAG     MASS         X           Y           Z
   0 N     7.0000    0    14.007   -3.457966    1.494957    1.392188
   1 C     6.0000    0    12.011   -2.847252   -0.179256   -0.672100
   2 C     6.0000    0    12.011   -3.116937   -2.902007    0.310437
   3 O     8.0000    0    15.999   -3.302172   -3.381776    2.551966
   4 C     6.0000    0    12.011   -0.165638    0.309925   -1.748463
   5 C     6.0000    0    12.011    1.978500   -0.301725    0.108952
   6 C     6.0000    0    12.011    4.586874    0.394775   -0.967443
   7 C     6.0000    0    12.011    6.705718   -0.254833    0.811482
   8 N     7.0000    0    14.007    9.129363    0.554442    0.146981
   9 H     1.0000    0     1.008   10.491531    0.235086    1.447823
  10 H     1.0000    0     1.008    9.232966    2.332650   -0.551027
  11 H     1.0000    0     1.008   -3.527300    0.693779    3.125203
  12 C     6.0000    0    12.011   -4.248756    3.900194    0.993002
  13 N     7.0000    0    14.007   -3.066358   -4.720727   -1.482046
  14 H     1.0000    0     1.008   -3.018070   -4.212009   -3.315719
  15 O     8.0000    0    15.999   -4.358565    4.824301   -1.110362
  16 C     6.0000    0    12.011   -5.020547    5.365976    3.346340
  17 H     1.0000    0     1.008   -4.226316    7.271541    3.220560
  18 H     1.0000    0     1.008   -7.086443    5.536788    3.362509
  19 H     1.0000    0     1.008   -4.403268    4.460037    5.101397
  20 C     6.0000    0    12.011   -3.265534   -7.377440   -0.833592
  21 H     1.0000    0     1.008   -5.157989   -7.837288   -0.119497
  22 H     1.0000    0     1.008   -2.880077   -8.507989   -2.520821
  23 H     1.0000    0     1.008   -1.888999   -7.850998    0.638300
  24 H     1.0000    0     1.008   -4.219683    0.145295   -2.196580
  25 H     1.0000    0     1.008    0.074816   -0.798324   -3.490840
  26 H     1.0000    0     1.008   -0.105282    2.310511   -2.293942
  27 H     1.0000    0     1.008    1.952063   -2.329050    0.571595
  28 H     1.0000    0     1.008    1.677226    0.720233    1.889891
  29 H     1.0000    0     1.008    4.847229   -0.567626   -2.809293
  30 H     1.0000    0     1.008    4.631371    2.436430   -1.384901
  31 H     1.0000    0     1.008    6.648799   -2.070401    1.785487

--------------------------------
INTERNAL COORDINATES (ANGSTROEM)
--------------------------------
 N      0   0   0     0.000000000000     0.00000000     0.00000000
 C      1   0   0     1.443135456178     0.00000000     0.00000000
 C      2   1   0     1.538394092143   107.35972880     0.00000000
 O      3   2   1     1.216985895452   122.15897429   346.76586068
 C      2   1   3     1.550851207479   112.36108671   237.14606448
 C      5   2   1     1.535656936131   113.94169533    65.98292216
 C      6   5   2     1.538018218769   112.05722915   184.18866255
 C      7   6   5     1.503838255528   112.48975533   181.38995257
 N      8   7   6     1.397122675453   117.18216645   187.00549209
 H      9   8   7     1.010947165274   115.58972528   174.61581178
 H      9   8   7     1.012371671890   115.24258572    42.28122462
 H      1   2   3     1.010996305883   115.93201239    13.91103340
 C      1   2   3     1.356373845160   121.82228197   203.17354854
 N      3   2   1     1.351557721494   115.33366591   168.43751456
 H     14   3   2     1.007312516976   119.09449190   354.59963957
 O     13   1   2     1.217126921329   122.28786369   355.97651286
 C     13   1   2     1.522925345921   115.67872158   175.32123005
 H     17  13   1     1.094489531720   108.45385200   136.33184231
 H     17  13   1     1.096988813918   108.39717313   253.22547514
 H     17  13   1     1.095023770427   112.98979263    14.23347010
 C     14   3   2     1.450977220081   121.50257514   179.15415503
 H     21  14   3     1.097679593099   111.25266016    68.50100362
 H     21  14   3     1.093933566262   108.86406123   188.95825561
 H     21  14   3     1.095482918462   109.96764096   308.72989157
 H      2   1   3     1.098974812498   108.16267734   118.02865652
 H      5   2   1     1.100117292531   108.94557877   188.94836529
 H      5   2   1     1.097776566962   106.50890113   303.90418306
 H      6   5   2     1.100482817265   109.78358647    62.77753740
 H      6   5   2     1.098206008981   109.76811723   305.79536028
 H      7   6   5     1.108296293534   109.09522164   304.57658599
 H      7   6   5     1.103001779282   109.15118924    59.67397269
 H      8   7   6     1.090697040745   118.46205986    43.09014086

---------------------------
INTERNAL COORDINATES (A.U.)
---------------------------
 N      0   0   0     0.000000000000     0.00000000     0.00000000
 C      1   0   0     2.727130786327     0.00000000     0.00000000
 C      2   1   0     2.907143520193   107.35972880     0.00000000
 O      3   2   1     2.299770051249   122.15897429   346.76586068
 C      2   1   3     2.930684056596   112.36108671   237.14606448
 C      5   2   1     2.901971044943   113.94169533    65.98292216
 C      6   5   2     2.906433222454   112.05722915   184.18866255
 C      7   6   5     2.841842452661   112.48975533   181.38995257
 N      8   7   6     2.640179232098   117.18216645   187.00549209
 H      9   8   7     1.910413278232   115.58972528   174.61581178
 H      9   8   7     1.913105205612   115.24258572    42.28122462
 H      1   2   3     1.910506140525   115.93201239    13.91103340
 C      1   2   3     2.563175102565   121.82228197   203.17354854
 N      3   2   1     2.554073947811   115.33366591   168.43751456
 H     14   3   2     1.903544788356   119.09449190   354.59963957
 O     13   1   2     2.300036551535   122.28786369   355.97651286
 C     13   1   2     2.877911826198   115.67872158   175.32123005
 H     17  13   1     2.068285471395   108.45385200   136.33184231
 H     17  13   1     2.073008430280   108.39717313   253.22547514
 H     17  13   1     2.069295036241   112.98979263    14.23347010
 C     14   3   2     2.741949572511   121.50257514   179.15415503
 H     21  14   3     2.074313813751   111.25266016    68.50100362
 H     21  14   3     2.067234848939   108.86406123   188.95825561
 H     21  14   3     2.070162700281   109.96764096   308.72989157
 H      2   1   3     2.076761423700   108.16267734   118.02865652
 H      5   2   1     2.078920398074   108.94557877   188.94836529
 H      5   2   1     2.074497067795   106.50890113   303.90418306
 H      6   5   2     2.079611139717   109.78358647    62.77753740
 H      6   5   2     2.075308595601   109.76811723   305.79536028
 H      7   6   5     2.094376470020   109.09522164   304.57658599
 H      7   6   5     2.084371288071   109.15118924    59.67397269
 H      8   7   6     2.061118702086   118.46205986    43.09014086

---------------------
BASIS SET INFORMATION
---------------------
There are 4 groups of distinct atoms

 Group   1 Type N   : 10s5p1d contracted to 6s2p1d pattern {511111/41/1}
 Group   2 Type C   : 10s5p1d contracted to 6s2p1d pattern {511111/41/1}
 Group   3 Type O   : 10s5p1d contracted to 6s2p1d pattern {511111/41/1}
 Group   4 Type H   : 6s1p contracted to 4s1p pattern {3111/1}

Atom   0N    basis set group =>   1
Atom   1C    basis set group =>   2
Atom   2C    basis set group =>   2
Atom   3O    basis set group =>   3
Atom   4C    basis set group =>   2
Atom   5C    basis set group =>   2
Atom   6C    basis set group =>   2
Atom   7C    basis set group =>   2
Atom   8N    basis set group =>   1
Atom   9H    basis set group =>   4
Atom  10H    basis set group =>   4
Atom  11H    basis set group =>   4
Atom  12C    basis set group =>   2
Atom  13N    basis set group =>   1
Atom  14H    basis set group =>   4
Atom  15O    basis set group =>   3
Atom  16C    basis set group =>   2
Atom  17H    basis set group =>   4
Atom  18H    basis set group =>   4
Atom  19H    basis set group =>   4
Atom  20C    basis set group =>   2
Atom  21H    basis set group =>   4
Atom  22H    basis set group =>   4
Atom  23H    basis set group =>   4
Atom  24H    basis set group =>   4
Atom  25H    basis set group =>   4
Atom  26H    basis set group =>   4
Atom  27H    basis set group =>   4
Atom  28H    basis set group =>   4
Atom  29H    basis set group =>   4
Atom  30H    basis set group =>   4
Atom  31H    basis set group =>   4
---------------------------------
AUXILIARY/J BASIS SET INFORMATION
---------------------------------
There are 4 groups of distinct atoms

 Group   1 Type N   : 12s5p4d2f1g contracted to 6s4p3d1f1g pattern {711111/2111/211/2/1}
 Group   2 Type C   : 12s5p4d2f1g contracted to 6s4p3d1f1g pattern {711111/2111/211/2/1}
 Group   3 Type O   : 12s5p4d2f1g contracted to 6s4p3d1f1g pattern {711111/2111/211/2/1}
 Group   4 Type H   : 5s2p1d contracted to 3s1p1d pattern {311/2/1}

Atom   0N    basis set group =>   1
Atom   1C    basis set group =>   2
Atom   2C    basis set group =>   2
Atom   3O    basis set group =>   3
Atom   4C    basis set group =>   2
Atom   5C    basis set group =>   2
Atom   6C    basis set group =>   2
Atom   7C    basis set group =>   2
Atom   8N    basis set group =>   1
Atom   9H    basis set group =>   4
Atom  10H    basis set group =>   4
Atom  11H    basis set group =>   4
Atom  12C    basis set group =>   2
Atom  13N    basis set group =>   1
Atom  14H    basis set group =>   4
Atom  15O    basis set group =>   3
Atom  16C    basis set group =>   2
Atom  17H    basis set group =>   4
Atom  18H    basis set group =>   4
Atom  19H    basis set group =>   4
Atom  20C    basis set group =>   2
Atom  21H    basis set group =>   4
Atom  22H    basis set group =>   4
Atom  23H    basis set group =>   4
Atom  24H    basis set group =>   4
Atom  25H    basis set group =>   4
Atom  26H    basis set group =>   4
Atom  27H    basis set group =>   4
Atom  28H    basis set group =>   4
Atom  29H    basis set group =>   4
Atom  30H    basis set group =>   4
Atom  31H    basis set group =>   4


           ************************************************************
           *        Program running with 16 parallel MPI-processes    *
           *              working on a common directory               *
           ************************************************************
------------------------------------------------------------------------------
                           ORCA GTO INTEGRAL CALCULATION
                           -- RI-GTO INTEGRALS CHOSEN --
------------------------------------------------------------------------------
------------------------------------------------------------------------------
                   ___                                                        
                  /   \      - P O W E R E D   B Y -                         
                 /     \                                                     
                 |  |  |   _    _      __       _____    __    __             
                 |  |  |  | |  | |    /  \     |  _  \  |  |  /  |          
                  \  \/   | |  | |   /    \    | | | |  |  | /  /          
                 / \  \   | |__| |  /  /\  \   | |_| |  |  |/  /          
                |  |  |   |  __  | /  /__\  \  |    /   |      \           
                |  |  |   | |  | | |   __   |  |    \   |  |\   \          
                \     /   | |  | | |  |  |  |  | |\  \  |  | \   \       
                 \___/    |_|  |_| |__|  |__|  |_| \__\ |__|  \__/        
                                                                              
                      - O R C A' S   B I G   F R I E N D -                    
                                      &                                       
                       - I N T E G R A L  F E E D E R -                       
                                                                              
 v1 FN, 2020, v2 2021                                                         
------------------------------------------------------------------------------


Reading SHARK input file opt.SHARKINP.tmp ... ok
----------------------
SHARK INTEGRAL PACKAGE
----------------------

Number of atoms                             ...     32
Number of basis functions                   ...    364
Number of shells                            ...    216
Maximum angular momentum                    ...      2
Integral batch strategy                     ... SHARK/LIBINT Hybrid
RI-J (if used) integral strategy            ... SPLIT-RIJ (Revised 2003 algorithm where possible)
Printlevel                                  ...      1
Contraction scheme used                     ... SEGMENTED contraction
Coulomb Range Separation                    ... NOT USED
Exchange Range Separation                   ... NOT USED
Finite Nucleus Model                        ... NOT USED
Auxiliary Coulomb fitting basis             ... AVAILABLE
   # of basis functions in Aux-J            ...    884
   # of shells in Aux-J                     ...    300
   Maximum angular momentum in Aux-J        ...      4
Auxiliary J/K fitting basis                 ... NOT available
Auxiliary Correlation fitting basis         ... NOT available
Auxiliary 'external' fitting basis          ... NOT available
Integral threshold                          ...     2.500000e-11
Primitive cut-off                           ...     2.500000e-12
Primitive pair pre-selection threshold      ...     2.500000e-12

Calculating pre-screening integrals         ... done (  0.0 sec) Dimension = 216
Organizing shell pair data                  ... done (  0.0 sec)
Shell pair information
Total number of shell pairs                 ...     23436
Shell pairs after pre-screening             ...     15384
Total number of primitive shell pairs       ...     61703
Primitive shell pairs kept                  ...     29418
          la=0 lb=0:   7213 shell pairs
          la=1 lb=0:   5242 shell pairs
          la=1 lb=1:    906 shell pairs
          la=2 lb=0:   1431 shell pairs
          la=2 lb=1:    512 shell pairs
          la=2 lb=2:     80 shell pairs

Calculating one electron integrals          ... done (  0.0 sec)
Calculating RI/J V-Matrix + Cholesky decomp.... done (  0.0 sec)
Calculating Nuclear repulsion               ... done (  0.0 sec) ENN=    921.979087077018 Eh

SHARK setup successfully completed in   0.2 seconds

Maximum memory used throughout the entire GTOINT-calculation: 22.2 MB


           ************************************************************
           *        Program running with 16 parallel MPI-processes    *
           *              working on a common directory               *
           ************************************************************
-------------------------------------------------------------------------------
                                 ORCA SCF
-------------------------------------------------------------------------------

------------
SCF SETTINGS
------------
Hamiltonian:
 Density Functional     Method          .... DFT(GTOs)
 Exchange Functional    Exchange        .... B88
   X-Alpha parameter    XAlpha          ....  0.666667
   Becke's b parameter  XBeta           ....  0.004200
 Correlation Functional Correlation     .... LYP
 LDA part of GGA corr.  LDAOpt          .... VWN-5
 Gradients option       PostSCFGGA      .... off
 Hybrid DFT is turned on
   Fraction HF Exchange ScalHFX         ....  0.200000
   Scaling of DF-GGA-X  ScalDFX         ....  0.720000
   Scaling of DF-GGA-C  ScalDFC         ....  0.810000
   Scaling of DF-LDA-C  ScalLDAC        ....  1.000000
   Perturbative correction              ....  0.000000
   Density functional embedding theory  .... OFF
   NL short-range parameter             ....  4.800000
 RI-approximation to the Coulomb term is turned on
   Number of AuxJ basis functions       .... 884
   RIJ-COSX (HFX calculated with COS-X)).... on


General Settings:
 Integral files         IntName         .... opt
 Hartree-Fock type      HFTyp           .... UHF
 Total Charge           Charge          ....    0
 Multiplicity           Mult            ....    2
 Number of Electrons    NEL             ....  109
 Basis Dimension        Dim             ....  364
 Nuclear Repulsion      ENuc            ....    921.9790870770 Eh

Convergence Acceleration:
 DIIS                   CNVDIIS         .... on
   Start iteration      DIISMaxIt       ....    12
   Startup error        DIISStart       ....  0.200000
   # of expansion vecs  DIISMaxEq       ....     5
   Bias factor          DIISBfac        ....   1.050
   Max. coefficient     DIISMaxC        ....  10.000
 Trust-Rad. Augm. Hess. CNVTRAH         .... auto
   Auto Start mean grad. ratio tolernc. ....  1.125000
   Auto Start start iteration           ....    20
   Auto Start num. interpolation iter.  ....    10
   Max. Number of Micro iterations      ....    16
   Max. Number of Macro iterations      .... Maxiter - #DIIS iter
   Number of Davidson start vectors     ....     2
   Converg. threshold I  (grad. norm)   ....   1.000e-05
   Converg. threshold II (energy diff.) ....   1.000e-08
   Grad. Scal. Fac. for Micro threshold ....   0.100
   Minimum threshold for Micro iter.    ....   0.010
   NR start threshold (gradient norm)   ....   0.001
   Initial trust radius                 ....   0.400
   Minimum AH scaling param. (alpha)    ....   1.000
   Maximum AH scaling param. (alpha)    .... 1000.000
   Orbital update algorithm             .... Taylor
   White noise on init. David. guess    .... on
   Maximum white noise                  ....   0.010
   Quad. conv. algorithm                .... NR
 SOSCF                  CNVSOSCF        .... off
 Level Shifting         CNVShift        .... on
   Level shift para.    LevelShift      ....    0.2500
   Turn off err/grad.   ShiftErr        ....    0.0010
 Zerner damping         CNVZerner       .... off
 Static damping         CNVDamp         .... on
   Fraction old density DampFac         ....    0.7000
   Max. Damping (<1)    DampMax         ....    0.9800
   Min. Damping (>=0)   DampMin         ....    0.0000
   Turn off err/grad.   DampErr         ....    0.1000
 Fernandez-Rico         CNVRico         .... off

SCF Procedure:
 Maximum # iterations   MaxIter         ....   125
 SCF integral mode      SCFMode         .... Direct
   Integral package                     .... SHARK and LIBINT hybrid scheme
 Reset frequency        DirectResetFreq ....    20
 Integral Threshold     Thresh          ....  2.500e-11 Eh
 Primitive CutOff       TCut            ....  2.500e-12 Eh

Convergence Tolerance:
 Convergence Check Mode ConvCheckMode   .... Total+1el-Energy
 Convergence forced     ConvForced      .... 0
 Energy Change          TolE            ....  1.000e-08 Eh
 1-El. energy change                    ....  1.000e-05 Eh
 DIIS Error             TolErr          ....  5.000e-07


Diagonalization of the overlap matrix:
Smallest eigenvalue                        ... 9.036e-04
Time for diagonalization                   ...    0.014 sec
Threshold for overlap eigenvalues          ... 1.000e-08
Number of eigenvalues below threshold      ... 0
Time for construction of square roots      ...    0.013 sec
Total time needed                          ...    0.028 sec

Time for model grid setup =    0.115 sec

------------------------------
INITIAL GUESS: MODEL POTENTIAL
------------------------------
Loading Hartree-Fock densities                     ... done
Calculating cut-offs                               ... done
Initializing the effective Hamiltonian             ... done
Setting up the integral package (SHARK)            ... done
Starting the Coulomb interaction                   ... done (   0.1 sec)
Reading the grid                                   ... done
Mapping shells                                     ... done
Starting the XC term evaluation                    ... done (   0.0 sec)
  promolecular density results
     # of electrons  =    108.985692386
     EX              =    -87.756790780
     EC              =     -3.661119351
     EX+EC           =    -91.417910132
Transforming the Hamiltonian                       ... done (   0.0 sec)
Diagonalizing the Hamiltonian                      ... done (   0.0 sec)
Back transforming the eigenvectors                 ... done (   0.0 sec)
Now organizing SCF variables                       ... done
                      ------------------
                      INITIAL GUESS DONE (   0.3 sec)
                      ------------------
-------------------
DFT GRID GENERATION
-------------------

General Integration Accuracy     IntAcc      ... 4.388
Radial Grid Type                 RadialGrid  ... OptM3 with GC (2021)
Angular Grid (max. ang.)         AngularGrid ... 4 (Lebedev-302)
Angular grid pruning method      GridPruning ... 4 (adaptive)
Weight generation scheme         WeightScheme... Becke
Basis function cutoff            BFCut       ... 1.0000e-11
Integration weight cutoff        WCut        ... 1.0000e-14
Angular grids for H and He will be reduced by one unit
Partially contracted basis set               ... off
Rotationally invariant grid construction     ... off

Total number of grid points                  ...   141583
Total number of batches                      ...     2228
Average number of points per batch           ...       63
Average number of grid points per atom       ...     4424
Time for grid setup =    0.587 sec

--------------------
COSX GRID GENERATION
--------------------

GRIDX 1
-------
General Integration Accuracy     IntAcc      ... 3.816
Radial Grid Type                 RadialGrid  ... OptM3 with GC (2021)
Angular Grid (max. ang.)         AngularGrid ... 1 (Lebedev-50)
Angular grid pruning method      GridPruning ... 4 (adaptive)
Weight generation scheme         WeightScheme... Becke
Basis function cutoff            BFCut       ... 1.0000e-11
Integration weight cutoff        WCut        ... 1.0000e-14
Angular grids for H and He will be reduced by one unit
Partially contracted basis set               ... on
Rotationally invariant grid construction     ... off

Total number of grid points                  ...    18102
Total number of batches                      ...      301
Average number of points per batch           ...       60
Average number of grid points per atom       ...      566
UseSFitting                                  ... on

GRIDX 2
-------
General Integration Accuracy     IntAcc      ... 4.020
Radial Grid Type                 RadialGrid  ... OptM3 with GC (2021)
Angular Grid (max. ang.)         AngularGrid ... 2 (Lebedev-110)
Angular grid pruning method      GridPruning ... 4 (adaptive)
Weight generation scheme         WeightScheme... Becke
Basis function cutoff            BFCut       ... 1.0000e-11
Integration weight cutoff        WCut        ... 1.0000e-14
Angular grids for H and He will be reduced by one unit
Partially contracted basis set               ... on
Rotationally invariant grid construction     ... off

Total number of grid points                  ...    38318
Total number of batches                      ...      614
Average number of points per batch           ...       62
Average number of grid points per atom       ...     1197
UseSFitting                                  ... on

GRIDX 3
-------
General Integration Accuracy     IntAcc      ... 4.338
Radial Grid Type                 RadialGrid  ... OptM3 with GC (2021)
Angular Grid (max. ang.)         AngularGrid ... 3 (Lebedev-194)
Angular grid pruning method      GridPruning ... 4 (adaptive)
Weight generation scheme         WeightScheme... Becke
Basis function cutoff            BFCut       ... 1.0000e-11
Integration weight cutoff        WCut        ... 1.0000e-14
Angular grids for H and He will be reduced by one unit
Partially contracted basis set               ... on
Rotationally invariant grid construction     ... off

Total number of grid points                  ...    83495
Total number of batches                      ...     1321
Average number of points per batch           ...       63
Average number of grid points per atom       ...     2609
UseSFitting                                  ... on

Time for X-Grid setup             =    0.745 sec

--------------
SCF ITERATIONS
--------------
ITER       Energy         Delta-E        Max-DP      RMS-DP      [F,P]     Damp
               ***  Starting incremental Fock matrix formation  ***
  0   -667.7044369574   0.000000000000 0.06252968  0.00097132  0.1304504 0.7000
  1   -667.9543572450  -0.249920287664 0.05270897  0.00069653  0.0515070 0.7000
                               ***Turning on DIIS***
  2   -668.0457595600  -0.091402315010 0.08384018  0.00108366  0.0181199 0.0000
  3   -668.1919895047  -0.146229944679 0.04674137  0.00051274  0.0289092 0.0000
  4   -668.2256519864  -0.033662481628 0.01804856  0.00017839  0.0074034 0.0000
  5   -668.2274719022  -0.001819915843 0.00813355  0.00007126  0.0054964 0.0000
  6   -668.2278593732  -0.000387470962 0.00497276  0.00004138  0.0008171 0.0000
               *** Restarting incremental Fock matrix formation ***
                                   *** Resetting DIIS ***
  7   -668.2278611401  -0.000001766953 0.00168214  0.00001929  0.0006412 0.0000
  8   -668.2278491882   0.000011951868 0.00111219  0.00001083  0.0009884 0.0000
  9   -668.2278721615  -0.000022973280 0.00023373  0.00000272  0.0001262 0.0000
 10   -668.2278721377   0.000000023837 0.00015980  0.00000167  0.0001827 0.0000
 11   -668.2278725386  -0.000000400889 0.00004073  0.00000058  0.0000259 0.0000
 12   -668.2278725454  -0.000000006873 0.00002148  0.00000029  0.0000139 0.0000
 13   -668.2278725649  -0.000000019498 0.00000809  0.00000007  0.0000043 0.0000
 14   -668.2278725563   0.000000008654 0.00000368  0.00000004  0.0000026 0.0000
                            ***DIIS convergence achieved***

               *****************************************************
               *                     SUCCESS                       *
               *           SCF CONVERGED AFTER  15 CYCLES          *
               *****************************************************

Old exchange energy                            =    -17.870605265 Eh
New exchange energy                            =    -17.870653638 Eh
Exchange energy change after final integration =     -0.000048373 Eh
Total energy after final integration           =   -668.227920945 Eh
Final COS-X integration done in                =     2.157 sec

----------------
TOTAL SCF ENERGY
----------------

Total Energy       :         -668.22792095 Eh          -18183.40616 eV

Components:
Nuclear Repulsion  :          921.97908708 Eh           25088.32643 eV
Electronic Energy  :        -1590.20700802 Eh          -43271.73258 eV
One Electron Energy:        -2738.06797838 Eh          -74506.61754 eV
Two Electron Energy:         1147.86097036 Eh           31234.88495 eV
Max COSX asymmetry :            0.00000101 Eh               0.00003 eV

Virial components:
Potential Energy   :        -1332.06745532 Eh          -36247.39824 eV
Kinetic Energy     :          663.83953438 Eh           18063.99209 eV
Virial Ratio       :            2.00661061


DFT components:
N(Alpha)           :       55.000015606051 electrons
N(Beta)            :       54.000022725625 electrons
N(Total)           :      109.000038331676 electrons
E(X)               :      -70.975742995923 Eh       
E(C)               :       -4.317502742587 Eh       
E(XC)              :      -75.293245738509 Eh       
DFET-embed. en.    :        0.000000000000 Eh       

---------------
SCF CONVERGENCE
---------------

  Last Energy change         ...   -1.6118e-08  Tolerance :   1.0000e-08
  Last MAX-Density change    ...    0.0000e+00  Tolerance :   1.0000e-07
  Last RMS-Density change    ...    0.0000e+00  Tolerance :   5.0000e-09
  Last DIIS Error            ...    9.6157e-07  Tolerance :   5.0000e-07

             **** THE GBW FILE WAS UPDATED (opt.gbw) ****
             **** DENSITY opt.scfp WAS UPDATED ****
             **** ENERGY FILE WAS UPDATED (opt.en.tmp) ****
----------------------
UHF SPIN CONTAMINATION
----------------------

Warning: in a DFT calculation there is little theoretical justification to 
         calculate <S**2> as in Hartree-Fock theory. We will do it anyways
         but you should keep in mind that the values have only limited relevance

Expectation value of <S**2>     :     0.753385
Ideal value S*(S+1) for S=0.5   :     0.750000
Deviation                       :     0.003385

             **** THE GBW FILE WAS UPDATED (opt.gbw) ****
             **** DENSITY opt.scfp WAS UPDATED ****
----------------
ORBITAL ENERGIES
----------------
                 SPIN UP ORBITALS
  NO   OCC          E(Eh)            E(eV) 
   0   1.0000     -19.119337      -520.2636 
   1   1.0000     -19.096608      -519.6451 
   2   1.0000     -14.367982      -390.9727 
   3   1.0000     -14.345091      -390.3498 
   4   1.0000     -14.333066      -390.0226 
   5   1.0000     -10.296743      -280.1886 
   6   1.0000     -10.282625      -279.8045 
   7   1.0000     -10.233442      -278.4661 
   8   1.0000     -10.224722      -278.2288 
   9   1.0000     -10.195424      -277.4316 
  10   1.0000     -10.186100      -277.1779 
  11   1.0000     -10.182937      -277.0918 
  12   1.0000     -10.180496      -277.0254 
  13   1.0000     -10.177618      -276.9471 
  14   1.0000      -1.051730       -28.6190 
  15   1.0000      -1.028097       -27.9759 
  16   1.0000      -0.932611       -25.3776 
  17   1.0000      -0.917826       -24.9753 
  18   1.0000      -0.898828       -24.4584 
  19   1.0000      -0.797401       -21.6984 
  20   1.0000      -0.758183       -20.6312 
  21   1.0000      -0.725363       -19.7381 
  22   1.0000      -0.708189       -19.2708 
  23   1.0000      -0.663321       -18.0499 
  24   1.0000      -0.611891       -16.6504 
  25   1.0000      -0.597883       -16.2692 
  26   1.0000      -0.581411       -15.8210 
  27   1.0000      -0.561494       -15.2790 
  28   1.0000      -0.536932       -14.6106 
  29   1.0000      -0.507887       -13.8203 
  30   1.0000      -0.479120       -13.0375 
  31   1.0000      -0.471218       -12.8225 
  32   1.0000      -0.467586       -12.7237 
  33   1.0000      -0.460901       -12.5418 
  34   1.0000      -0.450537       -12.2597 
  35   1.0000      -0.447680       -12.1820 
  36   1.0000      -0.440812       -11.9951 
  37   1.0000      -0.425417       -11.5762 
  38   1.0000      -0.409865       -11.1530 
  39   1.0000      -0.403526       -10.9805 
  40   1.0000      -0.401105       -10.9146 
  41   1.0000      -0.390100       -10.6152 
  42   1.0000      -0.382547       -10.4096 
  43   1.0000      -0.372901       -10.1472 
  44   1.0000      -0.364430        -9.9167 
  45   1.0000      -0.357286        -9.7222 
  46   1.0000      -0.338438        -9.2094 
  47   1.0000      -0.334913        -9.1134 
  48   1.0000      -0.325547        -8.8586 
  49   1.0000      -0.312764        -8.5107 
  50   1.0000      -0.269486        -7.3331 
  51   1.0000      -0.266641        -7.2557 
  52   1.0000      -0.246707        -6.7133 
  53   1.0000      -0.243854        -6.6356 
  54   1.0000      -0.137531        -3.7424 
  55   0.0000       0.009369         0.2549 
  56   0.0000       0.014428         0.3926 
  57   0.0000       0.027474         0.7476 
  58   0.0000       0.032021         0.8713 
  59   0.0000       0.035876         0.9762 
  60   0.0000       0.038271         1.0414 
  61   0.0000       0.049265         1.3406 
  62   0.0000       0.054175         1.4742 
  63   0.0000       0.064889         1.7657 
  64   0.0000       0.080984         2.2037 
  65   0.0000       0.093869         2.5543 
  66   0.0000       0.096108         2.6152 
  67   0.0000       0.117486         3.1970 
  68   0.0000       0.119356         3.2479 
  69   0.0000       0.153732         4.1833 
  70   0.0000       0.158528         4.3138 
  71   0.0000       0.164502         4.4763 
  72   0.0000       0.169375         4.6089 
  73   0.0000       0.175814         4.7842 
  74   0.0000       0.185463         5.0467 
  75   0.0000       0.188537         5.1304 
  76   0.0000       0.192565         5.2400 
  77   0.0000       0.194974         5.3055 
  78   0.0000       0.197799         5.3824 
  79   0.0000       0.208426         5.6715 
  80   0.0000       0.215903         5.8750 
  81   0.0000       0.222271         6.0483 
  82   0.0000       0.225054         6.1240 
  83   0.0000       0.236385         6.4324 
  84   0.0000       0.243645         6.6299 
  85   0.0000       0.249469         6.7884 
  86   0.0000       0.252121         6.8606 
  87   0.0000       0.255650         6.9566 
  88   0.0000       0.259835         7.0705 
  89   0.0000       0.265219         7.2170 
  90   0.0000       0.271799         7.3960 
  91   0.0000       0.282875         7.6974 
  92   0.0000       0.283554         7.7159 
  93   0.0000       0.286424         7.7940 
  94   0.0000       0.289538         7.8787 
  95   0.0000       0.295250         8.0342 
  96   0.0000       0.302865         8.2414 
  97   0.0000       0.313109         8.5201 
  98   0.0000       0.318683         8.6718 
  99   0.0000       0.323338         8.7985 
 100   0.0000       0.331767         9.0279 
 101   0.0000       0.337830         9.1928 
 102   0.0000       0.346167         9.4197 
 103   0.0000       0.354918         9.6578 
 104   0.0000       0.368730        10.0336 
 105   0.0000       0.377720        10.2783 
 106   0.0000       0.382791        10.4163 
 107   0.0000       0.394119        10.7245 
 108   0.0000       0.396290        10.7836 
 109   0.0000       0.411444        11.1960 
 110   0.0000       0.422928        11.5084 
 111   0.0000       0.432420        11.7668 
 112   0.0000       0.438622        11.9355 
 113   0.0000       0.446519        12.1504 
 114   0.0000       0.448761        12.2114 
 115   0.0000       0.463866        12.6224 
 116   0.0000       0.473015        12.8714 
 117   0.0000       0.488932        13.3045 
 118   0.0000       0.491210        13.3665 
 119   0.0000       0.510155        13.8820 
 120   0.0000       0.518349        14.1050 
 121   0.0000       0.527640        14.3578 
 122   0.0000       0.537781        14.6338 
 123   0.0000       0.552315        15.0292 
 124   0.0000       0.563745        15.3403 
 125   0.0000       0.573278        15.5997 
 126   0.0000       0.597633        16.2624 
 127   0.0000       0.602014        16.3816 
 128   0.0000       0.625310        17.0155 
 129   0.0000       0.638013        17.3612 
 130   0.0000       0.644320        17.5329 
 131   0.0000       0.662042        18.0151 
 132   0.0000       0.675640        18.3851 
 133   0.0000       0.688461        18.7340 
 134   0.0000       0.715635        19.4734 
 135   0.0000       0.722590        19.6627 
 136   0.0000       0.753792        20.5117 
 137   0.0000       0.771633        20.9972 
 138   0.0000       0.777931        21.1686 
 139   0.0000       0.801933        21.8217 
 140   0.0000       0.808761        22.0075 
 141   0.0000       0.818160        22.2633 
 142   0.0000       0.824037        22.4232 
 143   0.0000       0.825345        22.4588 
 144   0.0000       0.842203        22.9175 
 145   0.0000       0.851289        23.1648 
 146   0.0000       0.861172        23.4337 
 147   0.0000       0.863614        23.5001 
 148   0.0000       0.867554        23.6074 
 149   0.0000       0.877524        23.8786 
 150   0.0000       0.891925        24.2705 
 151   0.0000       0.897003        24.4087 
 152   0.0000       0.909267        24.7424 
 153   0.0000       0.918444        24.9921 
 154   0.0000       0.920855        25.0577 
 155   0.0000       0.922536        25.1035 
 156   0.0000       0.926207        25.2034 
 157   0.0000       0.941917        25.6309 
 158   0.0000       0.944613        25.7042 
 159   0.0000       0.947316        25.7778 
 160   0.0000       0.953580        25.9482 
 161   0.0000       0.970486        26.4083 
 162   0.0000       0.983637        26.7661 
 163   0.0000       0.988687        26.9035 
 164   0.0000       0.991973        26.9930 
 165   0.0000       1.008504        27.4428 
 166   0.0000       1.028957        27.9993 
 167   0.0000       1.044252        28.4155 
 168   0.0000       1.053366        28.6635 
 169   0.0000       1.062066        28.9003 
 170   0.0000       1.070407        29.1273 
 171   0.0000       1.080980        29.4150 
 172   0.0000       1.107558        30.1382 
 173   0.0000       1.128453        30.7068 
 174   0.0000       1.145921        31.1821 
 175   0.0000       1.149918        31.2909 
 176   0.0000       1.167043        31.7569 
 177   0.0000       1.169223        31.8162 
 178   0.0000       1.178580        32.0708 
 179   0.0000       1.194320        32.4991 
 180   0.0000       1.211240        32.9595 
 181   0.0000       1.225041        33.3351 
 182   0.0000       1.235383        33.6165 
 183   0.0000       1.241500        33.7829 
 184   0.0000       1.269685        34.5499 
 185   0.0000       1.283405        34.9232 
 186   0.0000       1.329173        36.1686 
 187   0.0000       1.335362        36.3370 
 188   0.0000       1.346701        36.6456 
 189   0.0000       1.362145        37.0658 
 190   0.0000       1.379483        37.5376 
 191   0.0000       1.391021        37.8516 
 192   0.0000       1.405545        38.2468 
 193   0.0000       1.412976        38.4490 
 194   0.0000       1.414780        38.4981 
 195   0.0000       1.417554        38.5736 
 196   0.0000       1.445722        39.3401 
 197   0.0000       1.462587        39.7990 
 198   0.0000       1.486494        40.4496 
 199   0.0000       1.497140        40.7393 
 200   0.0000       1.505283        40.9608 
 201   0.0000       1.523421        41.4544 
 202   0.0000       1.527342        41.5611 
 203   0.0000       1.540047        41.9068 
 204   0.0000       1.546932        42.0941 
 205   0.0000       1.571055        42.7506 
 206   0.0000       1.581840        43.0441 
 207   0.0000       1.593228        43.3539 
 208   0.0000       1.595198        43.4075 
 209   0.0000       1.602765        43.6134 
 210   0.0000       1.619215        44.0611 
 211   0.0000       1.625092        44.2210 
 212   0.0000       1.628232        44.3065 
 213   0.0000       1.636685        44.5365 
 214   0.0000       1.665641        45.3244 
 215   0.0000       1.669776        45.4369 
 216   0.0000       1.677001        45.6335 
 217   0.0000       1.687814        45.9277 
 218   0.0000       1.697973        46.2042 
 219   0.0000       1.704169        46.3728 
 220   0.0000       1.720784        46.8249 
 221   0.0000       1.727149        46.9981 
 222   0.0000       1.731780        47.1241 
 223   0.0000       1.734091        47.1870 
 224   0.0000       1.749284        47.6004 
 225   0.0000       1.754739        47.7489 
 226   0.0000       1.778927        48.4071 
 227   0.0000       1.782484        48.5038 
 228   0.0000       1.788500        48.6676 
 229   0.0000       1.806690        49.1625 
 230   0.0000       1.835458        49.9454 
 231   0.0000       1.846398        50.2430 
 232   0.0000       1.849494        50.3273 
 233   0.0000       1.870199        50.8907 
 234   0.0000       1.893563        51.5265 
 235   0.0000       1.914095        52.0852 
 236   0.0000       1.921055        52.2746 
 237   0.0000       1.937875        52.7323 
 238   0.0000       1.958708        53.2992 
 239   0.0000       1.975435        53.7543 
 240   0.0000       2.003231        54.5107 
 241   0.0000       2.023612        55.0653 
 242   0.0000       2.034184        55.3530 
 243   0.0000       2.044254        55.6270 
 244   0.0000       2.055903        55.9440 
 245   0.0000       2.066413        56.2300 
 246   0.0000       2.091392        56.9097 
 247   0.0000       2.100371        57.1540 
 248   0.0000       2.135821        58.1187 
 249   0.0000       2.150476        58.5174 
 250   0.0000       2.168685        59.0129 
 251   0.0000       2.174885        59.1816 
 252   0.0000       2.188413        59.5498 
 253   0.0000       2.209766        60.1308 
 254   0.0000       2.226468        60.5853 
 255   0.0000       2.253979        61.3339 
 256   0.0000       2.267249        61.6950 
 257   0.0000       2.279236        62.0212 
 258   0.0000       2.292347        62.3779 
 259   0.0000       2.314951        62.9930 
 260   0.0000       2.327833        63.3436 
 261   0.0000       2.349579        63.9353 
 262   0.0000       2.364609        64.3443 
 263   0.0000       2.379011        64.7362 
 264   0.0000       2.393487        65.1301 
 265   0.0000       2.397412        65.2369 
 266   0.0000       2.410594        65.5956 
 267   0.0000       2.428128        66.0727 
 268   0.0000       2.436353        66.2965 
 269   0.0000       2.444659        66.5226 
 270   0.0000       2.453398        66.7604 
 271   0.0000       2.464904        67.0734 
 272   0.0000       2.478043        67.4310 
 273   0.0000       2.493059        67.8396 
 274   0.0000       2.495422        67.9039 
 275   0.0000       2.516211        68.4696 
 276   0.0000       2.555786        69.5465 
 277   0.0000       2.570671        69.9515 
 278   0.0000       2.579345        70.1876 
 279   0.0000       2.620989        71.3207 
 280   0.0000       2.626176        71.4619 
 281   0.0000       2.629345        71.5481 
 282   0.0000       2.654559        72.2342 
 283   0.0000       2.689281        73.1791 
 284   0.0000       2.709036        73.7166 
 285   0.0000       2.728875        74.2565 
 286   0.0000       2.762263        75.1650 
 287   0.0000       2.771893        75.4270 
 288   0.0000       2.784577        75.7722 
 289   0.0000       2.805131        76.3315 
 290   0.0000       2.827606        76.9431 
 291   0.0000       2.956693        80.4557 
 292   0.0000       3.000640        81.6516 
 293   0.0000       3.044225        82.8376 
 294   0.0000       3.109269        84.6075 
 295   0.0000       3.131337        85.2080 
 296   0.0000       3.392747        92.3213 
 297   0.0000       3.442678        93.6800 
 298   0.0000       3.459996        94.1513 
 299   0.0000       3.465693        94.3063 
 300   0.0000       4.918752       133.8461 
 301   0.0000       4.977011       135.4314 
 302   0.0000       4.991313       135.8205 
 303   0.0000       4.992368       135.8492 
 304   0.0000       5.013144       136.4146 
 305   0.0000       5.017829       136.5421 
 306   0.0000       5.026972       136.7909 
 307   0.0000       5.064801       137.8203 
 308   0.0000       5.071906       138.0136 
 309   0.0000       5.103422       138.8712 
 310   0.0000       5.110573       139.0658 
 311   0.0000       5.148606       140.1007 
 312   0.0000       5.183558       141.0518 
 313   0.0000       5.229090       142.2908 
 314   0.0000       5.259290       143.1126 
 315   0.0000       5.267480       143.3354 
 316   0.0000       5.299216       144.1990 
 317   0.0000       5.314394       144.6120 
 318   0.0000       5.345303       145.4531 
 319   0.0000       5.362520       145.9216 
 320   0.0000       5.383287       146.4867 
 321   0.0000       5.438501       147.9891 
 322   0.0000       5.590981       152.1383 
 323   0.0000       5.636319       153.3720 
 324   0.0000       5.714957       155.5119 
 325   0.0000       5.743781       156.2962 
 326   0.0000       5.871672       159.7763 
 327   0.0000       7.253336       197.3733 
 328   0.0000       7.310454       198.9276 
 329   0.0000       7.346410       199.9060 
 330   0.0000       9.097014       247.5423 
 331   0.0000       9.127191       248.3635 
 332   0.0000      29.596540       805.3628 
 333   0.0000      29.642311       806.6083 
 334   0.0000      29.758814       809.7785 
 335   0.0000      29.862751       812.6068 
 336   0.0000      29.927859       814.3784 
 337   0.0000      30.048995       817.6747 
 338   0.0000      30.084286       818.6350 
 339   0.0000      30.154995       820.5591 
 340   0.0000      30.282295       824.0231 
 341   0.0000      36.525329       993.9047 
 342   0.0000      36.606195       996.1052 
 343   0.0000      36.611280       996.2436 
 344   0.0000      36.612197       996.2685 
 345   0.0000      36.632946       996.8331 
 346   0.0000      36.635746       996.9093 
 347   0.0000      36.668642       997.8045 
 348   0.0000      36.690879       998.4096 
 349   0.0000      36.704063       998.7683 
 350   0.0000      36.723837       999.3064 
 351   0.0000      36.737333       999.6737 
 352   0.0000      36.785473      1000.9836 
 353   0.0000      36.813155      1001.7369 
 354   0.0000      36.851907      1002.7914 
 355   0.0000      36.887507      1003.7601 
 356   0.0000      36.892983      1003.9091 
 357   0.0000      36.923124      1004.7293 
 358   0.0000      36.948960      1005.4323 
 359   0.0000      41.195765      1120.9937 
 360   0.0000      41.251697      1122.5157 
 361   0.0000      41.286656      1123.4670 
 362   0.0000      53.634884      1459.4794 
 363   0.0000      53.662003      1460.2173 

                 SPIN DOWN ORBITALS
  NO   OCC          E(Eh)            E(eV) 
   0   1.0000     -19.119337      -520.2636 
   1   1.0000     -19.096608      -519.6451 
   2   1.0000     -14.367982      -390.9727 
   3   1.0000     -14.345089      -390.3497 
   4   1.0000     -14.328962      -389.9109 
   5   1.0000     -10.296742      -280.1886 
   6   1.0000     -10.282626      -279.8045 
   7   1.0000     -10.233448      -278.4663 
   8   1.0000     -10.224722      -278.2288 
   9   1.0000     -10.186101      -277.1779 
  10   1.0000     -10.183327      -277.1024 
  11   1.0000     -10.182936      -277.0918 
  12   1.0000     -10.181046      -277.0404 
  13   1.0000     -10.177461      -276.9428 
  14   1.0000      -1.051730       -28.6190 
  15   1.0000      -1.028097       -27.9759 
  16   1.0000      -0.932611       -25.3776 
  17   1.0000      -0.917820       -24.9751 
  18   1.0000      -0.886927       -24.1345 
  19   1.0000      -0.796676       -21.6786 
  20   1.0000      -0.756110       -20.5748 
  21   1.0000      -0.725279       -19.7359 
  22   1.0000      -0.705161       -19.1884 
  23   1.0000      -0.658849       -17.9282 
  24   1.0000      -0.607208       -16.5230 
  25   1.0000      -0.597878       -16.2691 
  26   1.0000      -0.571648       -15.5553 
  27   1.0000      -0.560778       -15.2595 
  28   1.0000      -0.536894       -14.6096 
  29   1.0000      -0.504080       -13.7167 
  30   1.0000      -0.478801       -13.0288 
  31   1.0000      -0.470978       -12.8160 
  32   1.0000      -0.466796       -12.7022 
  33   1.0000      -0.459916       -12.5149 
  34   1.0000      -0.449026       -12.2186 
  35   1.0000      -0.444888       -12.1060 
  36   1.0000      -0.436675       -11.8825 
  37   1.0000      -0.425081       -11.5671 
  38   1.0000      -0.408144       -11.1062 
  39   1.0000      -0.403056       -10.9677 
  40   1.0000      -0.398111       -10.8331 
  41   1.0000      -0.389669       -10.6034 
  42   1.0000      -0.378771       -10.3069 
  43   1.0000      -0.371533       -10.1099 
  44   1.0000      -0.361885        -9.8474 
  45   1.0000      -0.354867        -9.6564 
  46   1.0000      -0.335075        -9.1179 
  47   1.0000      -0.330157        -8.9840 
  48   1.0000      -0.322697        -8.7810 
  49   1.0000      -0.282687        -7.6923 
  50   1.0000      -0.269477        -7.3328 
  51   1.0000      -0.266600        -7.2546 
  52   1.0000      -0.246645        -6.7116 
  53   1.0000      -0.243851        -6.6355 
  54   0.0000      -0.007652        -0.2082 
  55   0.0000       0.009486         0.2581 
  56   0.0000       0.014536         0.3956 
  57   0.0000       0.027615         0.7515 
  58   0.0000       0.032108         0.8737 
  59   0.0000       0.037746         1.0271 
  60   0.0000       0.039165         1.0657 
  61   0.0000       0.050368         1.3706 
  62   0.0000       0.055432         1.5084 
  63   0.0000       0.064977         1.7681 
  64   0.0000       0.081607         2.2206 
  65   0.0000       0.093999         2.5578 
  66   0.0000       0.097135         2.6432 
  67   0.0000       0.118152         3.2151 
  68   0.0000       0.119779         3.2593 
  69   0.0000       0.154194         4.1958 
  70   0.0000       0.158726         4.3192 
  71   0.0000       0.165756         4.5105 
  72   0.0000       0.169814         4.6209 
  73   0.0000       0.176448         4.8014 
  74   0.0000       0.186188         5.0664 
  75   0.0000       0.189419         5.1544 
  76   0.0000       0.192965         5.2508 
  77   0.0000       0.197059         5.3623 
  78   0.0000       0.198539         5.4025 
  79   0.0000       0.210169         5.7190 
  80   0.0000       0.217380         5.9152 
  81   0.0000       0.223758         6.0888 
  82   0.0000       0.225503         6.1362 
  83   0.0000       0.239532         6.5180 
  84   0.0000       0.245826         6.6893 
  85   0.0000       0.251787         6.8515 
  86   0.0000       0.253710         6.9038 
  87   0.0000       0.256214         6.9719 
  88   0.0000       0.260244         7.0816 
  89   0.0000       0.269635         7.3371 
  90   0.0000       0.277162         7.5420 
  91   0.0000       0.283207         7.7065 
  92   0.0000       0.285922         7.7803 
  93   0.0000       0.287145         7.8136 
  94   0.0000       0.292350         7.9552 
  95   0.0000       0.295917         8.0523 
  96   0.0000       0.307746         8.3742 
  97   0.0000       0.314766         8.5652 
  98   0.0000       0.320008         8.7079 
  99   0.0000       0.324557         8.8316 
 100   0.0000       0.333895         9.0858 
 101   0.0000       0.341421         9.2905 
 102   0.0000       0.355120         9.6633 
 103   0.0000       0.357722         9.7341 
 104   0.0000       0.369928        10.0662 
 105   0.0000       0.378418        10.2973 
 106   0.0000       0.385463        10.4890 
 107   0.0000       0.395774        10.7696 
 108   0.0000       0.407195        11.0803 
 109   0.0000       0.415962        11.3189 
 110   0.0000       0.423838        11.5332 
 111   0.0000       0.437455        11.9038 
 112   0.0000       0.440557        11.9882 
 113   0.0000       0.447169        12.1681 
 114   0.0000       0.449863        12.2414 
 115   0.0000       0.466073        12.6825 
 116   0.0000       0.474089        12.9006 
 117   0.0000       0.489802        13.3282 
 118   0.0000       0.494735        13.4624 
 119   0.0000       0.510838        13.9006 
 120   0.0000       0.525743        14.3062 
 121   0.0000       0.528724        14.3873 
 122   0.0000       0.539055        14.6684 
 123   0.0000       0.553035        15.0489 
 124   0.0000       0.565801        15.3962 
 125   0.0000       0.573655        15.6100 
 126   0.0000       0.601069        16.3559 
 127   0.0000       0.603844        16.4314 
 128   0.0000       0.630154        17.1474 
 129   0.0000       0.642084        17.4720 
 130   0.0000       0.647800        17.6275 
 131   0.0000       0.664271        18.0757 
 132   0.0000       0.677482        18.4352 
 133   0.0000       0.688758        18.7421 
 134   0.0000       0.716053        19.4848 
 135   0.0000       0.725616        19.7450 
 136   0.0000       0.754750        20.5378 
 137   0.0000       0.773652        21.0522 
 138   0.0000       0.779638        21.2150 
 139   0.0000       0.802652        21.8413 
 140   0.0000       0.810242        22.0478 
 141   0.0000       0.819487        22.2994 
 142   0.0000       0.826000        22.4766 
 143   0.0000       0.826744        22.4968 
 144   0.0000       0.843459        22.9517 
 145   0.0000       0.851551        23.1719 
 146   0.0000       0.862165        23.4607 
 147   0.0000       0.864232        23.5169 
 148   0.0000       0.867944        23.6180 
 149   0.0000       0.883698        24.0466 
 150   0.0000       0.892170        24.2772 
 151   0.0000       0.899323        24.4718 
 152   0.0000       0.911488        24.8029 
 153   0.0000       0.919424        25.0188 
 154   0.0000       0.923236        25.1225 
 155   0.0000       0.923523        25.1303 
 156   0.0000       0.927804        25.2468 
 157   0.0000       0.942480        25.6462 
 158   0.0000       0.948085        25.7987 
 159   0.0000       0.950871        25.8745 
 160   0.0000       0.954695        25.9786 
 161   0.0000       0.971274        26.4297 
 162   0.0000       0.985949        26.8290 
 163   0.0000       0.990693        26.9581 
 164   0.0000       0.993834        27.0436 
 165   0.0000       1.009077        27.4584 
 166   0.0000       1.029562        28.0158 
 167   0.0000       1.045093        28.4384 
 168   0.0000       1.053787        28.6750 
 169   0.0000       1.062156        28.9027 
 170   0.0000       1.071862        29.1668 
 171   0.0000       1.096369        29.8337 
 172   0.0000       1.108027        30.1510 
 173   0.0000       1.132973        30.8298 
 174   0.0000       1.147936        31.2369 
 175   0.0000       1.150988        31.3200 
 176   0.0000       1.167509        31.7695 
 177   0.0000       1.172060        31.8934 
 178   0.0000       1.180495        32.1229 
 179   0.0000       1.198195        32.6045 
 180   0.0000       1.212728        33.0000 
 181   0.0000       1.225498        33.3475 
 182   0.0000       1.239134        33.7185 
 183   0.0000       1.243860        33.8472 
 184   0.0000       1.269926        34.5564 
 185   0.0000       1.286219        34.9998 
 186   0.0000       1.330292        36.1991 
 187   0.0000       1.337319        36.3903 
 188   0.0000       1.359431        36.9920 
 189   0.0000       1.363123        37.0925 
 190   0.0000       1.380444        37.5638 
 191   0.0000       1.392345        37.8876 
 192   0.0000       1.405670        38.2502 
 193   0.0000       1.414269        38.4842 
 194   0.0000       1.417562        38.5738 
 195   0.0000       1.424688        38.7677 
 196   0.0000       1.446218        39.3536 
 197   0.0000       1.463068        39.8121 
 198   0.0000       1.486709        40.4554 
 199   0.0000       1.497590        40.7515 
 200   0.0000       1.505330        40.9621 
 201   0.0000       1.525578        41.5131 
 202   0.0000       1.532879        41.7118 
 203   0.0000       1.540917        41.9305 
 204   0.0000       1.549169        42.1550 
 205   0.0000       1.573132        42.8071 
 206   0.0000       1.582768        43.0693 
 207   0.0000       1.594213        43.3807 
 208   0.0000       1.597582        43.4724 
 209   0.0000       1.604234        43.6534 
 210   0.0000       1.625396        44.2293 
 211   0.0000       1.628424        44.3117 
 212   0.0000       1.630482        44.3677 
 213   0.0000       1.639386        44.6099 
 214   0.0000       1.670552        45.4580 
 215   0.0000       1.672446        45.5096 
 216   0.0000       1.678017        45.6612 
 217   0.0000       1.689865        45.9836 
 218   0.0000       1.698590        46.2210 
 219   0.0000       1.705595        46.4116 
 220   0.0000       1.723559        46.9004 
 221   0.0000       1.730214        47.0815 
 222   0.0000       1.732666        47.1482 
 223   0.0000       1.738885        47.3175 
 224   0.0000       1.752686        47.6930 
 225   0.0000       1.758397        47.8484 
 226   0.0000       1.781355        48.4731 
 227   0.0000       1.783998        48.5451 
 228   0.0000       1.794367        48.8272 
 229   0.0000       1.808026        49.1989 
 230   0.0000       1.837781        50.0086 
 231   0.0000       1.847266        50.2667 
 232   0.0000       1.851960        50.3944 
 233   0.0000       1.871864        50.9360 
 234   0.0000       1.893851        51.5343 
 235   0.0000       1.916090        52.1395 
[...]
  6 C s       :     2.875820  s :     2.875820
      pz      :     1.019283  p :     3.040753
      px      :     1.003229
      py      :     1.018240
      dz2     :     0.035492  d :     0.179997
      dxz     :     0.046368
      dyz     :     0.029484
      dx2y2   :     0.045054
      dxy     :     0.023599
  7 C s       :     2.929631  s :     2.929631
      pz      :     1.050627  p :     3.004511
      px      :     0.931363
      py      :     1.022521
      dz2     :     0.024130  d :     0.199706
      dxz     :     0.059795
      dyz     :     0.018405
      dx2y2   :     0.057505
      dxy     :     0.039871
  8 N s       :     3.124814  s :     3.124814
      pz      :     1.386454  p :     3.831641
      px      :     1.185268
      py      :     1.259919
      dz2     :     0.006270  d :     0.059546
      dxz     :     0.020123
      dyz     :     0.003058
      dx2y2   :     0.021186
      dxy     :     0.008909
  9 H s       :     0.798794  s :     0.798794
      pz      :     0.061347  p :     0.139633
      px      :     0.048545
      py      :     0.029742
 10 H s       :     0.796981  s :     0.796981
      pz      :     0.041757  p :     0.139803
      px      :     0.023561
      py      :     0.074485
 11 H s       :     0.755610  s :     0.755610
      pz      :     0.071099  p :     0.153978
      px      :     0.044116
      py      :     0.038763
 12 C s       :     2.842786  s :     2.842786
      pz      :     1.016460  p :     2.773088
      px      :     0.811000
      py      :     0.945628
      dz2     :     0.135948  d :     0.488832
      dxz     :     0.080460
      dyz     :     0.139482
      dx2y2   :     0.064904
      dxy     :     0.068038
 13 N s       :     3.063127  s :     3.063127
      pz      :     1.124714  p :     3.815002
      px      :     1.543010
      py      :     1.147278
      dz2     :     0.020722  d :     0.080526
      dxz     :     0.003810
      dyz     :     0.030495
      dx2y2   :     0.013917
      dxy     :     0.011582
 14 H s       :     0.774807  s :     0.774807
      pz      :     0.072212  p :     0.145858
      px      :     0.047933
      py      :     0.025713
 15 O s       :     3.585299  s :     3.585299
      pz      :     1.475616  p :     4.582856
      px      :     1.464271
      py      :     1.642969
      dz2     :     0.013085  d :     0.031868
      dxz     :     0.005393
      dyz     :     0.010816
      dx2y2   :     0.001374
      dxy     :     0.001200
 16 C s       :     2.872040  s :     2.872040
      pz      :     0.996033  p :     3.065351
      px      :     1.041589
      py      :     1.027729
      dz2     :     0.029920  d :     0.105726
      dxz     :     0.010676
      dyz     :     0.032628
      dx2y2   :     0.013493
      dxy     :     0.019009
 17 H s       :     0.864693  s :     0.864693
      pz      :     0.015743  p :     0.081572
      px      :     0.027609
      py      :     0.038220
 18 H s       :     0.864433  s :     0.864433
      pz      :     0.015962  p :     0.081543
      px      :     0.044753
      py      :     0.020829
 19 H s       :     0.884966  s :     0.884966
      pz      :     0.039499  p :     0.081428
      px      :     0.017475
      py      :     0.024454
 20 C s       :     2.856577  s :     2.856577
      pz      :     1.059359  p :     2.973407
      px      :     1.042898
      py      :     0.871150
      dz2     :     0.030845  d :     0.159268
      dxz     :     0.009815
      dyz     :     0.022526
      dx2y2   :     0.041887
      dxy     :     0.054195
 21 H s       :     0.889164  s :     0.889164
      pz      :     0.021178  p :     0.079256
      px      :     0.040867
      py      :     0.017211
 22 H s       :     0.889335  s :     0.889335
      pz      :     0.022105  p :     0.079245
      px      :     0.035765
      py      :     0.021375
 23 H s       :     0.860415  s :     0.860415
      pz      :     0.054298  p :     0.084534
      px      :     0.016816
      py      :     0.013420
 24 H s       :     0.850047  s :     0.850047
      pz      :     0.033083  p :     0.083012
      px      :     0.032793
      py      :     0.017136
 25 H s       :     0.878433  s :     0.878433
      pz      :     0.036634  p :     0.080149
      px      :     0.017062
      py      :     0.026452
 26 H s       :     0.858962  s :     0.858962
      pz      :     0.019571  p :     0.082568
      px      :     0.016400
      py      :     0.046596
 27 H s       :     0.872439  s :     0.872439
      pz      :     0.019923  p :     0.080274
      px      :     0.016249
      py      :     0.044102
 28 H s       :     0.867847  s :     0.867847
      pz      :     0.038411  p :     0.081523
      px      :     0.017053
      py      :     0.026059
 29 H s       :     0.873220  s :     0.873220
      pz      :     0.039548  p :     0.080283
      px      :     0.016448
      py      :     0.024286
 30 H s       :     0.876755  s :     0.876755
      pz      :     0.018341  p :     0.078233
      px      :     0.015949
      py      :     0.043943
 31 H s       :     0.877790  s :     0.877790
      pz      :     0.029437  p :     0.089099
      px      :     0.013339
      py      :     0.046322

SPIN
  0 N s       :     0.000025  s :     0.000025
      pz      :     0.000020  p :     0.000048
      px      :     0.000012
      py      :     0.000016
      dz2     :     0.000001  d :    -0.000002
      dxz     :    -0.000001
      dyz     :    -0.000000
      dx2y2   :    -0.000001
      dxy     :    -0.000001
  1 C s       :    -0.000028  s :    -0.000028
      pz      :     0.000017  p :    -0.000087
      px      :    -0.000135
      py      :     0.000031
      dz2     :     0.000024  d :     0.000084
      dxz     :     0.000035
      dyz     :     0.000020
      dx2y2   :     0.000002
      dxy     :     0.000004
  2 C s       :     0.000005  s :     0.000005
      pz      :    -0.000001  p :     0.000002
      px      :     0.000000
      py      :     0.000003
      dz2     :     0.000001  d :    -0.000005
      dxz     :    -0.000001
      dyz     :    -0.000000
      dx2y2   :     0.000001
      dxy     :    -0.000006
  3 O s       :     0.000003  s :     0.000003
      pz      :    -0.000000  p :    -0.000008
      px      :    -0.000009
      py      :     0.000001
      dz2     :     0.000000  d :     0.000000
      dxz     :     0.000000
      dyz     :     0.000000
      dx2y2   :     0.000000
      dxy     :     0.000000
  4 C s       :    -0.000062  s :    -0.000062
      pz      :     0.000569  p :     0.001020
      px      :     0.000147
      py      :     0.000304
      dz2     :    -0.000008  d :     0.000173
      dxz     :     0.000061
      dyz     :     0.000074
      dx2y2   :    -0.000017
      dxy     :     0.000063
  5 C s       :     0.003661  s :     0.003661
      pz      :     0.001103  p :     0.005688
      px      :     0.002840
      py      :     0.001745
      dz2     :     0.000178  d :    -0.000461
      dxz     :    -0.000271
      dyz     :    -0.000021
      dx2y2   :    -0.000204
      dxy     :    -0.000142
  6 C s       :     0.003464  s :     0.003464
      pz      :    -0.005983  p :    -0.016187
      px      :    -0.005914
      py      :    -0.004289
      dz2     :     0.015806  d :     0.029721
      dxz     :     0.002698
      dyz     :     0.006556
      dx2y2   :     0.000608
      dxy     :     0.004053
  7 C s       :     0.048326  s :     0.048326
      pz      :     0.363633  p :     0.664392
      px      :     0.038969
      py      :     0.261790
      dz2     :     0.002469  d :     0.005320
      dxz     :     0.002359
      dyz     :    -0.000122
      dx2y2   :    -0.000831
      dxy     :     0.001444
  8 N s       :     0.015089  s :     0.015089
      pz      :     0.090146  p :     0.144108
      px      :     0.016369
      py      :     0.037592
      dz2     :     0.001150  d :     0.010434
      dxz     :     0.004985
      dyz     :     0.000009
      dx2y2   :     0.001195
      dxy     :     0.003095
  9 H s       :     0.002623  s :     0.002623
      pz      :     0.002819  p :     0.006120
      px      :     0.000809
      py      :     0.002491
 10 H s       :     0.005760  s :     0.005760
      pz      :     0.004396  p :     0.006831
      px      :     0.000184
      py      :     0.002252
 11 H s       :     0.000001  s :     0.000001
      pz      :     0.000004  p :     0.000005
      px      :    -0.000000
      py      :     0.000001
 12 C s       :    -0.000000  s :    -0.000000
      pz      :     0.000000  p :    -0.000012
      px      :    -0.000010
      py      :    -0.000003
      dz2     :    -0.000000  d :     0.000001
      dxz     :    -0.000001
      dyz     :     0.000003
      dx2y2   :    -0.000000
      dxy     :    -0.000001
 13 N s       :    -0.000001  s :    -0.000001
      pz      :     0.000004  p :    -0.000006
      px      :    -0.000014
      py      :     0.000004
      dz2     :     0.000000  d :     0.000001
      dxz     :     0.000000
      dyz     :     0.000000
      dx2y2   :     0.000000
      dxy     :     0.000000
 14 H s       :     0.000015  s :     0.000015
      pz      :     0.000001  p :     0.000005
      px      :    -0.000000
      py      :     0.000004
 15 O s       :     0.000002  s :     0.000002
      pz      :     0.000004  p :     0.000001
      px      :    -0.000009
      py      :     0.000006
      dz2     :     0.000000  d :     0.000000
      dxz     :    -0.000000
      dyz     :    -0.000000
      dx2y2   :     0.000000
      dxy     :    -0.000000
 16 C s       :     0.000013  s :     0.000013
      pz      :     0.000001  p :     0.000003
      px      :    -0.000000
      py      :     0.000002
      dz2     :     0.000000  d :    -0.000001
      dxz     :    -0.000000
      dyz     :    -0.000000
      dx2y2   :    -0.000000
      dxy     :    -0.000000
 17 H s       :    -0.000000  s :    -0.000000
      pz      :     0.000000  p :     0.000000
      px      :    -0.000000
      py      :     0.000000
 18 H s       :    -0.000001  s :    -0.000001
      pz      :     0.000000  p :     0.000000
      px      :     0.000000
      py      :     0.000000
 19 H s       :     0.000000  s :     0.000000
      pz      :     0.000000  p :     0.000000
      px      :    -0.000000
      py      :     0.000000
 20 C s       :     0.000000  s :     0.000000
      pz      :     0.000000  p :     0.000003
      px      :     0.000000
      py      :     0.000002
      dz2     :     0.000000  d :    -0.000001
      dxz     :    -0.000000
      dyz     :     0.000000
      dx2y2   :    -0.000000
      dxy     :    -0.000001
 21 H s       :    -0.000001  s :    -0.000001
      pz      :     0.000000  p :     0.000000
      px      :     0.000000
      py      :     0.000000
 22 H s       :    -0.000001  s :    -0.000001
      pz      :     0.000000  p :     0.000000
      px      :     0.000000
      py      :     0.000000
 23 H s       :     0.000000  s :     0.000000
      pz      :     0.000000  p :     0.000000
      px      :     0.000000
      py      :     0.000000
 24 H s       :     0.000031  s :     0.000031
      pz      :     0.000001  p :    -0.000007
      px      :    -0.000009
      py      :     0.000001
 25 H s       :     0.000322  s :     0.000322
      pz      :    -0.000005  p :     0.000187
      px      :     0.000180
      py      :     0.000012
 26 H s       :     0.000071  s :     0.000071
      pz      :     0.000002  p :     0.000002
      px      :     0.000002
      py      :    -0.000003
 27 H s       :    -0.000160  s :    -0.000160
      pz      :     0.000010  p :     0.000215
      px      :     0.000183
      py      :     0.000022
 28 H s       :    -0.000295  s :    -0.000295
      pz      :     0.000562  p :     0.000568
      px      :    -0.000016
      py      :     0.000022
 29 H s       :     0.035544  s :     0.035544
      pz      :     0.000522  p :     0.000564
      px      :     0.000256
      py      :    -0.000214
 30 H s       :     0.012280  s :     0.012280
      pz      :    -0.000313  p :    -0.000721
      px      :    -0.000234
      py      :    -0.000174
 31 H s       :    -0.008732  s :    -0.008732
      pz      :     0.014277  p :     0.024043
      px      :     0.001035
      py      :     0.008731


                      *****************************
                      * MAYER POPULATION ANALYSIS *
                      *****************************

  NA   - Mulliken gross atomic population
  ZA   - Total nuclear charge
  QA   - Mulliken gross atomic charge
  VA   - Mayer's total valence
  BVA  - Mayer's bonded valence
  FA   - Mayer's free valence

  ATOM       NA         ZA         QA         VA         BVA        FA
  0 N      7.1155     7.0000    -0.1155     3.2765     3.2765    -0.0000
  1 C      6.1276     6.0000    -0.1276     4.0564     4.0564     0.0000
  2 C      5.9118     6.0000     0.0882     4.0306     4.0306     0.0000
  3 O      8.3332     8.0000    -0.3332     2.1110     2.1110     0.0000
  4 C      6.2807     6.0000    -0.2807     3.9296     3.9296     0.0000
  5 C      6.2581     6.0000    -0.2581     3.9649     3.9647     0.0002
  6 C      6.2420     6.0000    -0.2420     3.9601     3.9588     0.0014
  7 C      6.2554     6.0000    -0.2554     3.7521     3.1847     0.5674
  8 N      7.3991     7.0000    -0.3991     3.1364     3.1022     0.0342
  9 H      0.7727     1.0000     0.2273     0.9542     0.9542     0.0001
 10 H      0.7749     1.0000     0.2251     0.9561     0.9561     0.0001
 11 H      0.7478     1.0000     0.2522     0.9689     0.9689     0.0000
 12 C      5.8294     6.0000     0.1706     3.9726     3.9726     0.0000
 13 N      7.0914     7.0000    -0.0914     3.1806     3.1806    -0.0000
 14 H      0.7699     1.0000     0.2301     0.9628     0.9628     0.0000
 15 O      8.3284     8.0000    -0.3284     2.1117     2.1117     0.0000
 16 C      6.5537     6.0000    -0.5537     3.8593     3.8593     0.0000
 17 H      0.8155     1.0000     0.1845     0.9591     0.9591     0.0000
 18 H      0.8145     1.0000     0.1855     0.9590     0.9590     0.0000
 19 H      0.8512     1.0000     0.1488     0.9714     0.9714    -0.0000
 20 C      6.4584     6.0000    -0.4584     3.8931     3.8931     0.0000
 21 H      0.8361     1.0000     0.1639     0.9553     0.9553     0.0000
 22 H      0.8395     1.0000     0.1605     0.9574     0.9574     0.0000
 23 H      0.7998     1.0000     0.2002     0.9658     0.9658     0.0000
 24 H      0.8364     1.0000     0.1636     0.9490     0.9490     0.0000
 25 H      0.8739     1.0000     0.1261     0.9731     0.9731     0.0000
 26 H      0.8222     1.0000     0.1778     0.9636     0.9636     0.0000
 27 H      0.8522     1.0000     0.1478     0.9721     0.9721     0.0000
 28 H      0.8330     1.0000     0.1670     0.9671     0.9671     0.0000
 29 H      0.8624     1.0000     0.1376     0.9662     0.9637     0.0025
 30 H      0.8588     1.0000     0.1412     0.9677     0.9676     0.0002
 31 H      0.8546     1.0000     0.1454     0.9714     0.9701     0.0012

  Mayer bond orders larger than 0.100000
B(  0-N ,  1-C ) :   1.0213 B(  0-N , 11-H ) :   0.8930 B(  0-N , 12-C ) :   1.2097 
B(  1-C ,  2-C ) :   0.9000 B(  1-C ,  4-C ) :   0.9282 B(  1-C , 15-O ) :   0.1443 
B(  1-C , 24-H ) :   0.9723 B(  2-C ,  3-O ) :   1.8700 B(  2-C , 13-N ) :   1.1835 
B(  4-C ,  5-C ) :   0.9602 B(  4-C , 25-H ) :   0.9778 B(  4-C , 26-H ) :   0.9640 
B(  5-C ,  6-C ) :   0.9714 B(  5-C , 27-H ) :   0.9660 B(  5-C , 28-H ) :   0.9685 
B(  6-C ,  7-C ) :   0.9851 B(  6-C , 29-H ) :   0.9612 B(  6-C , 30-H ) :   0.9724 
B(  7-C ,  8-N ) :   1.1764 B(  7-C , 31-H ) :   0.9720 B(  8-N ,  9-H ) :   0.9420 
B(  8-N , 10-H ) :   0.9416 B( 12-C , 15-O ) :   1.8574 B( 12-C , 16-C ) :   0.8940 
B( 13-N , 14-H ) :   0.9300 B( 13-N , 20-C ) :   0.9708 B( 16-C , 17-H ) :   0.9592 
B( 16-C , 18-H ) :   0.9593 B( 16-C , 19-H ) :   0.9758 B( 20-C , 21-H ) :   0.9602 
B( 20-C , 22-H ) :   0.9596 B( 20-C , 23-H ) :   0.9431 

-------
TIMINGS
-------

Total SCF time: 0 days 0 hours 0 min 15 sec 

Total time                  ....      15.594 sec
Sum of individual times     ....      14.864 sec  ( 95.3%)

Fock matrix formation       ....      12.760 sec  ( 81.8%)
  Split-RI-J                ....       1.113 sec  (  8.7% of F)
  Chain of spheres X        ....       8.685 sec  ( 68.1% of F)
  XC integration            ....       2.674 sec  ( 21.0% of F)
    Basis function eval.    ....       0.287 sec  ( 10.7% of XC)
    Density eval.           ....       0.406 sec  ( 15.2% of XC)
    XC-Functional eval.     ....       0.064 sec  (  2.4% of XC)
    XC-Potential eval.      ....       0.249 sec  (  9.3% of XC)
Diagonalization             ....       0.446 sec  (  2.9%)
Density matrix formation    ....       0.027 sec  (  0.2%)
Population analysis         ....       0.069 sec  (  0.4%)
Initial guess               ....       0.058 sec  (  0.4%)
Orbital Transformation      ....       0.000 sec  (  0.0%)
Orbital Orthonormalization  ....       0.041 sec  (  0.3%)
DIIS solution               ....       0.220 sec  (  1.4%)
Grid generation             ....       1.285 sec  (  8.2%)

Maximum memory used throughout the entire SCF-calculation: 84.0 MB

-------------------------   --------------------
FINAL SINGLE POINT ENERGY      -668.229987192557
-------------------------   --------------------

                                *** OPTIMIZATION RUN DONE ***

                            ***************************************
                            *     ORCA property calculations      *
                            ***************************************

                                    ---------------------
                                    Active property flags
                                    ---------------------
   (+) Dipole Moment


------------------------------------------------------------------------------
                       ORCA ELECTRIC PROPERTIES CALCULATION
------------------------------------------------------------------------------

Dipole Moment Calculation                       ... on
Quadrupole Moment Calculation                   ... off
Polarizability Calculation                      ... off
GBWName                                         ... opt.gbw
Electron density                                ... opt.scfp
The origin for moment calculation is the CENTER OF MASS  = (-0.740856, -0.177307  0.221451)

-------------
DIPOLE MOMENT
-------------
                                X             Y             Z
Electronic contribution:     -7.52992       1.44738       0.62751
Nuclear contribution   :      8.11043      -2.36387      -0.81107
                        -----------------------------------------
Total Dipole Moment    :      0.58051      -0.91649      -0.18356
                        -----------------------------------------
Magnitude (a.u.)       :      1.10029
Magnitude (Debye)      :      2.79672



--------------------
Rotational spectrum 
--------------------
 
Rotational constants in cm-1:     0.019633     0.013267     0.008989 
Rotational constants in MHz :   588.584848   397.732901   269.485324 

 Dipole components along the rotational axes: 
x,y,z [a.u.] :     0.623473    -0.906588     0.004827 
x,y,z [Debye]:     1.584742    -2.304364     0.012268 

 

Timings for individual modules:

Sum of individual times         ...      864.529 sec (=  14.409 min)
GTO integral calculation        ...       75.468 sec (=   1.258 min)   8.7 %
SCF iterations                  ...      569.510 sec (=   9.492 min)  65.9 %
SCF Gradient evaluation         ...      218.273 sec (=   3.638 min)  25.2 %
Geometry relaxation             ...        1.277 sec (=   0.021 min)   0.1 %
                             ****ORCA TERMINATED NORMALLY****
TOTAL RUN TIME: 0 days 0 hours 15 minutes 32 seconds 834 msec
