
                                 *****************
                                 * O   R   C   A *
                                 *****************

                                            #,                                       
                                            ###                                      
                                            ####                                     
                                            #####                                    
                                            ######                                   
                                           ########,                                 
                                     ,,################,,,,,                         
                               ,,#################################,,                 
                          ,,##########################################,,             
                       ,#########################################, ''#####,          
                    ,#############################################,,   '####,        
                  ,##################################################,,,,####,       
                ,###########''''           ''''###############################       
              ,#####''   ,,,,##########,,,,          '''####'''          '####       
            ,##' ,,,,###########################,,,                        '##       
           ' ,,###''''                  '''############,,,                           
         ,,##''                                '''############,,,,        ,,,,,,###''
      ,#''                                            '''#######################'''  
     '                                                          ''''####''''         
             ,#######,   #######,   ,#######,      ##                                
            ,#'     '#,  ##    ##  ,#'     '#,    #''#        ######   ,####,        
            ##       ##  ##   ,#'  ##            #'  '#       #        #'  '#        
            ##       ##  #######   ##           ,######,      #####,   #    #        
            '#,     ,#'  ##    ##  '#,     ,#' ,#      #,         ##   #,  ,#        
             '#######'   ##     ##  '#######'  #'      '#     #####' # '####'        



                  #######################################################
                  #                        -***-                        #
                  #          Department of theory and spectroscopy      #
                  #    Directorship and core code : Frank Neese         #
                  #        Max Planck Institute fuer Kohlenforschung    #
                  #                Kaiser Wilhelm Platz 1               #
                  #                 D-45470 Muelheim/Ruhr               #
                  #                      Germany                        #
                  #                                                     #
                  #                  All rights reserved                #
                  #                        -***-                        #
                  #######################################################


                         Program Version 5.0.4 -  RELEASE  -


 With contributions from (in alphabetic order):
   Daniel Aravena         : Magnetic Suceptibility
   Michael Atanasov       : Ab Initio Ligand Field Theory (pilot matlab implementation)
   Alexander A. Auer      : GIAO ZORA, VPT2 properties, NMR spectrum
   Ute Becker             : Parallelization
   Giovanni Bistoni       : ED, misc. LED, open-shell LED, HFLD
   Martin Brehm           : Molecular dynamics
   Dmytro Bykov           : SCF Hessian
   Vijay G. Chilkuri      : MRCI spin determinant printing, contributions to CSF-ICE
   Dipayan Datta          : RHF DLPNO-CCSD density
   Achintya Kumar Dutta   : EOM-CC, STEOM-CC
   Dmitry Ganyushin       : Spin-Orbit,Spin-Spin,Magnetic field MRCI
   Miquel Garcia          : C-PCM and meta-GGA Hessian, CC/C-PCM, Gaussian charge scheme
   Yang Guo               : DLPNO-NEVPT2, F12-NEVPT2, CIM, IAO-localization
   Andreas Hansen         : Spin unrestricted coupled pair/coupled cluster methods
   Benjamin Helmich-Paris : MC-RPA, TRAH-SCF, COSX integrals
   Lee Huntington         : MR-EOM, pCC
   Robert Izsak           : Overlap fitted RIJCOSX, COSX-SCS-MP3, EOM
   Marcus Kettner         : VPT2
   Christian Kollmar      : KDIIS, OOCD, Brueckner-CCSD(T), CCSD density, CASPT2, CASPT2-K
   Simone Kossmann        : Meta GGA functionals, TD-DFT gradient, OOMP2, MP2 Hessian
   Martin Krupicka        : Initial AUTO-CI
   Lucas Lang             : DCDCAS
   Marvin Lechner         : AUTO-CI (C++ implementation), FIC-MRCC
   Dagmar Lenk            : GEPOL surface, SMD
   Dimitrios Liakos       : Extrapolation schemes; Compound Job, initial MDCI parallelization
   Dimitrios Manganas     : Further ROCIS development; embedding schemes
   Dimitrios Pantazis     : SARC Basis sets
   Anastasios Papadopoulos: AUTO-CI, single reference methods and gradients
   Taras Petrenko         : DFT Hessian,TD-DFT gradient, ASA, ECA, R-Raman, ABS, FL, XAS/XES, NRVS
   Peter Pinski           : DLPNO-MP2, DLPNO-MP2 Gradient
   Christoph Reimann      : Effective Core Potentials
   Marius Retegan         : Local ZFS, SOC
   Christoph Riplinger    : Optimizer, TS searches, QM/MM, DLPNO-CCSD(T), (RO)-DLPNO pert. Triples
   Tobias Risthaus        : Range-separated hybrids, TD-DFT gradient, RPA, STAB
   Michael Roemelt        : Original ROCIS implementation
   Masaaki Saitow         : Open-shell DLPNO-CCSD energy and density
   Barbara Sandhoefer     : DKH picture change effects
   Avijit Sen             : IP-ROCIS
   Kantharuban Sivalingam : CASSCF convergence, NEVPT2, FIC-MRCI
   Bernardo de Souza      : ESD, SOC TD-DFT
   Georgi Stoychev        : AutoAux, RI-MP2 NMR, DLPNO-MP2 response
   Willem Van den Heuvel  : Paramagnetic NMR
   Boris Wezisla          : Elementary symmetry handling
   Frank Wennmohs         : Technical directorship


 We gratefully acknowledge several colleagues who have allowed us to
 interface, adapt or use parts of their codes:
   Stefan Grimme, W. Hujo, H. Kruse, P. Pracht,  : VdW corrections, initial TS optimization,
                  C. Bannwarth, S. Ehlert          DFT functionals, gCP, sTDA/sTD-DF
   Ed Valeev, F. Pavosevic, A. Kumar             : LibInt (2-el integral package), F12 methods
   Garnet Chan, S. Sharma, J. Yang, R. Olivares  : DMRG
   Ulf Ekstrom                                   : XCFun DFT Library
   Mihaly Kallay                                 : mrcc  (arbitrary order and MRCC methods)
   Jiri Pittner, Ondrej Demel                    : Mk-CCSD
   Frank Weinhold                                : gennbo (NPA and NBO analysis)
   Christopher J. Cramer and Donald G. Truhlar   : smd solvation model
   Lars Goerigk                                  : TD-DFT with DH, B97 family of functionals
   V. Asgeirsson, H. Jonsson                     : NEB implementation
   FAccTs GmbH                                   : IRC, NEB, NEB-TS, DLPNO-Multilevel, CI-OPT
                                                   MM, QMMM, 2- and 3-layer-ONIOM, Crystal-QMMM,
                                                   LR-CPCM, SF, NACMEs, symmetry and pop. for TD-DFT,
                                                   nearIR, NL-DFT gradient (VV10), updates on ESD,
                                                   ML-optimized integration grids
   S Lehtola, MJT Oliveira, MAL Marques          : LibXC Library
   Liviu Ungur et al                             : ANISO software


 Your calculation uses the libint2 library for the computation of 2-el integrals
 For citations please refer to: http://libint.valeyev.net

 Your ORCA version has been built with support for libXC version: 5.1.0
 For citations please refer to: https://tddft.org/programs/libxc/

 This ORCA versions uses:
   CBLAS   interface :  Fast vector & matrix operations
   LAPACKE interface :  Fast linear algebra routines
   SCALAPACK package :  Parallel linear algebra routines
   Shared memory     :  Shared parallel matrices
   BLAS/LAPACK       :  OpenBLAS 0.3.15  USE64BITINT DYNAMIC_ARCH NO_AFFINITY Zen SINGLE_THREADED
        Core in use  :  Zen
   Copyright (c) 2011-2014, The OpenBLAS Project




***************************************
The coordinates will be read from file: opt.xyz
***************************************


================================================================================

----- Orbital basis set information -----
Your calculation utilizes the basis: EPR-II
   V. Barone, in Recent Advances in Density Functional Methods, Part 1 (ed. D. P. Chong), World Scientific, Singapore, 1995, p. 287.

----- AuxJ basis set information -----
Your calculation utilizes the AutoAux generation procedure.
  G. L. Stoychev, A. A. Auer, F. Neese, J. Chem. Theory Comput. 13, 554 (2017)

----- AuxC basis set information -----
Your calculation utilizes the AutoAux generation procedure.
  G. L. Stoychev, A. A. Auer, F. Neese, J. Chem. Theory Comput. 13, 554 (2017)

----- AuxJK basis set information -----
Your calculation utilizes the AutoAux generation procedure.
  G. L. Stoychev, A. A. Auer, F. Neese, J. Chem. Theory Comput. 13, 554 (2017)

================================================================================
                                        WARNINGS
                       Please study these warnings very carefully!
================================================================================


WARNING: your system is open-shell and RHF/RKS was chosen
  ===> : WILL SWITCH to UHF/UKS


INFO   : the flag for use of the SHARK integral package has been found!

================================================================================
                                       INPUT FILE
================================================================================
NAME = epr_info.inp
|  1> ! B3LYP EPR-II AUTOAUX
|  2> %pal nprocs 16 end
|  3> *XYZFile -1 2 opt.xyz
|  4> %EPRNMR
|  5>         GTENSOR   TRUE
|  6>         NUCLEI    = 1,4,7,8,10,11,12,14,15,16,25,26 {SHIFT, AISO, ADIP, AORB}
|  7>         ORI       GIAO
|  8> END
|  9> 
| 10>                          ****END OF INPUT****
================================================================================

                       ****************************
                       * Single Point Calculation *
                       ****************************

---------------------------------
CARTESIAN COORDINATES (ANGSTROEM)
---------------------------------
  N     -1.956213    0.056226   -0.349043
  C     -0.548821   -0.028117    0.044993
  C      0.071541    1.350862   -0.317221
  O     -0.515257    2.127691   -1.096093
  C      0.147659   -1.200663   -0.622397
  C      1.626082   -1.338837   -0.775019
  H      1.856769   -2.214616   -1.386046
  H      2.059502   -0.452311   -1.259433
  C      2.419369   -1.513246    0.605067
  O      2.354866   -0.513078    1.398127
  O      3.023772   -2.586385    0.764564
  H     -2.126413    0.786803   -1.031027
  C     -2.987746   -0.536305    0.302835
  N      1.248909    1.605190    0.275712
  H      1.721175    0.799812    0.790132
  O     -2.860567   -1.308073    1.257907
  C     -4.379894   -0.199066   -0.245740
  H     -4.982467    0.209880    0.570319
  H     -4.362937    0.512374   -1.076493
  H     -4.853824   -1.127928   -0.576506
  C      1.999677    2.806579   -0.048946
  H      1.472229    3.708648    0.283039
  H      2.965996    2.753778    0.458360
  H      2.165745    2.900876   -1.129339
  H     -0.503455   -0.150770    1.137599
  H     -0.453289   -2.108595   -0.644825

----------------------------
CARTESIAN COORDINATES (A.U.)
----------------------------
  NO LB      ZA    FRAG     MASS         X           Y           Z
   0 N     7.0000    0    14.007   -3.696706    0.106251   -0.659596
   1 C     6.0000    0    12.011   -1.037122   -0.053134    0.085025
   2 C     6.0000    0    12.011    0.135192    2.552759   -0.599461
   3 O     8.0000    0    15.999   -0.973695    4.020753   -2.071316
   4 C     6.0000    0    12.011    0.279034   -2.268924   -1.176161
   5 C     6.0000    0    12.011    3.072850   -2.530036   -1.464573
   6 H     1.0000    0     1.008    3.508784   -4.185018   -2.619248
   7 H     1.0000    0     1.008    3.891895   -0.854744   -2.379983
   8 C     6.0000    0    12.011    4.571945   -2.859620    1.143411
   9 O     8.0000    0    15.999    4.450052   -0.969577    2.642078
  10 O     8.0000    0    15.999    5.714100   -4.887560    1.444817
  11 H     1.0000    0     1.008   -4.018338    1.486842   -1.948359
  12 C     6.0000    0    12.011   -5.646021   -1.013469    0.572275
  13 N     7.0000    0    14.007    2.360095    3.033370    0.521020
  14 H     1.0000    0     1.008    3.252549    1.511425    1.493133
  15 O     8.0000    0    15.999   -5.405689   -2.471900    2.377100
  16 C     6.0000    0    12.011   -8.276800   -0.376180   -0.464382
  17 H     1.0000    0     1.008   -9.415499    0.396616    1.077746
  18 H     1.0000    0     1.008   -8.244756    0.968247   -2.034277
  19 H     1.0000    0     1.008   -9.172398   -2.131475   -1.089438
  20 C     6.0000    0    12.011    3.778842    5.303665   -0.092494
  21 H     1.0000    0     1.008    2.782109    7.008328    0.534866
  22 H     1.0000    0     1.008    5.604921    5.203887    0.866176
  23 H     1.0000    0     1.008    4.092665    5.481861   -2.134142
  24 H     1.0000    0     1.008   -0.951391   -0.284914    2.149751
  25 H     1.0000    0     1.008   -0.856593   -3.984667   -1.218542

--------------------------------
INTERNAL COORDINATES (ANGSTROEM)
--------------------------------
 N      0   0   0     0.000000000000     0.00000000     0.00000000
 C      1   0   0     1.463942926564     0.00000000     0.00000000
 C      2   1   0     1.554873398915   105.65049103     0.00000000
 O      3   2   1     1.246770691201   120.68621229   343.54890833
 C      2   1   3     1.518340536055   111.54138802   236.17859808
 C      5   2   1     1.492689345460   124.80291322   160.60596931
 H      6   5   2     1.092501704899   109.90893809   186.28850871
 H      6   5   2     1.099289736819   111.15602624   306.38146769
 C      6   5   2     1.601361646778   114.36904430    66.10512993
 O      9   6   5     1.278061226593   115.12168129   295.96139301
 O      9   6   5     1.241922066641   116.47958666   116.58570000
 H      1   2   3     1.013811000574   112.58024582    20.57167673
 C      1   2   3     1.356502248881   125.20803740   214.65312971
 N      3   2   1     1.342552489260   114.52012845   163.28969080
 H     14   3   2     1.065972838813   117.29245322    10.09387955
 O     13   1   2     1.234489215567   124.50837076   354.26624038
 C     13   1   2     1.533865148229   114.97813263   175.17467377
 H     17  13   1     1.093747828902   108.38421227   236.00209930
 H     17  13   1     1.093885214735   113.61170872   357.81224994
 H     17  13   1     1.093983557463   108.33939441   119.38161412
 C     14   3   2     1.453406365583   120.72624945   175.05237192
 H     21  14   3     1.096423365504   111.34260683    66.57959552
 H     21  14   3     1.092666357112   108.25059680   186.30386690
 H     21  14   3     1.097142097174   111.66628932   306.43969129
 H      2   1   3     1.100404436193   108.25882388   115.81628543
 H      5   2   1     1.089027983561   113.56325321   318.12000340

---------------------------
INTERNAL COORDINATES (A.U.)
---------------------------
 N      0   0   0     0.000000000000     0.00000000     0.00000000
 C      1   0   0     2.766451206898     0.00000000     0.00000000
 C      2   1   0     2.938284896868   105.65049103     0.00000000
 O      3   2   1     2.356055158169   120.68621229   343.54890833
 C      2   1   3     2.869247791175   111.54138802   236.17859808
 C      5   2   1     2.820774065942   124.80291322   160.60596931
 H      6   5   2     2.064529023101   109.90893809   186.28850871
 H      6   5   2     2.077356544418   111.15602624   306.38146769
 C      6   5   2     3.026134953775   114.36904430    66.10512993
 O      9   6   5     2.415185700644   115.12168129   295.96139301
 O      9   6   5     2.346892585625   116.47958666   116.58570000
 H      1   2   3     1.915825142641   112.58024582    20.57167673
 C      1   2   3     2.563417750433   125.20803740   214.65312971
 N      3   2   1     2.537056525115   114.52012845   163.28969080
 H     14   3   2     2.014396731554   117.29245322    10.09387955
 O     13   1   2     2.332846532701   124.50837076   354.26624038
 C     13   1   2     2.898585056519   114.97813263   175.17467377
 H     17  13   1     2.066883856195   108.38421227   236.00209930
 H     17  13   1     2.067143477794   113.61170872   357.81224994
 H     17  13   1     2.067329318617   108.33939441   119.38161412
 C     14   3   2     2.746539992250   120.72624945   175.05237192
 H     21  14   3     2.071939887635   111.34260683    66.57959552
 H     21  14   3     2.064840170692   108.25059680   186.30386690
 H     21  14   3     2.073298093654   111.66628932   306.43969129
 H      2   1   3     2.079463020956   108.25882388   115.81628543
 H      5   2   1     2.057964641107   113.56325321   318.12000340

---------------------
BASIS SET INFORMATION
---------------------
There are 4 groups of distinct atoms

 Group   1 Type N   : 10s5p1d contracted to 6s2p1d pattern {511111/41/1}
 Group   2 Type C   : 10s5p1d contracted to 6s2p1d pattern {511111/41/1}
 Group   3 Type O   : 10s5p1d contracted to 6s2p1d pattern {511111/41/1}
 Group   4 Type H   : 6s1p contracted to 4s1p pattern {3111/1}

Atom   0N    basis set group =>   1
Atom   1C    basis set group =>   2
Atom   2C    basis set group =>   2
Atom   3O    basis set group =>   3
Atom   4C    basis set group =>   2
Atom   5C    basis set group =>   2
Atom   6H    basis set group =>   4
Atom   7H    basis set group =>   4
Atom   8C    basis set group =>   2
Atom   9O    basis set group =>   3
Atom  10O    basis set group =>   3
Atom  11H    basis set group =>   4
Atom  12C    basis set group =>   2
Atom  13N    basis set group =>   1
Atom  14H    basis set group =>   4
Atom  15O    basis set group =>   3
Atom  16C    basis set group =>   2
Atom  17H    basis set group =>   4
Atom  18H    basis set group =>   4
Atom  19H    basis set group =>   4
Atom  20C    basis set group =>   2
Atom  21H    basis set group =>   4
Atom  22H    basis set group =>   4
Atom  23H    basis set group =>   4
Atom  24H    basis set group =>   4
Atom  25H    basis set group =>   4
---------------------------------
AUXILIARY/J BASIS SET INFORMATION
---------------------------------
There are 4 groups of distinct atoms

 Group   1 Type N   : 17s13p12d2f contracted to 17s13p12d2f pattern {11111111111111111/1111111111111/111111111111/11}
 Group   2 Type C   : 17s13p12d2f contracted to 17s13p12d2f pattern {11111111111111111/1111111111111/111111111111/11}
 Group   3 Type O   : 17s13p12d2f contracted to 17s13p12d2f pattern {11111111111111111/1111111111111/111111111111/11}
 Group   4 Type H   : 15s6p1d contracted to 15s6p1d pattern {111111111111111/111111/1}

Atom   0N    basis set group =>   1
Atom   1C    basis set group =>   2
Atom   2C    basis set group =>   2
Atom   3O    basis set group =>   3
Atom   4C    basis set group =>   2
Atom   5C    basis set group =>   2
Atom   6H    basis set group =>   4
Atom   7H    basis set group =>   4
Atom   8C    basis set group =>   2
Atom   9O    basis set group =>   3
Atom  10O    basis set group =>   3
Atom  11H    basis set group =>   4
Atom  12C    basis set group =>   2
Atom  13N    basis set group =>   1
Atom  14H    basis set group =>   4
Atom  15O    basis set group =>   3
Atom  16C    basis set group =>   2
Atom  17H    basis set group =>   4
Atom  18H    basis set group =>   4
Atom  19H    basis set group =>   4
Atom  20C    basis set group =>   2
Atom  21H    basis set group =>   4
Atom  22H    basis set group =>   4
Atom  23H    basis set group =>   4
Atom  24H    basis set group =>   4
Atom  25H    basis set group =>   4
---------------------------------
AUXILIARY/C BASIS SET INFORMATION
---------------------------------
There are 4 groups of distinct atoms

 Group   1 Type N   : 17s13p12d2f contracted to 17s13p12d2f pattern {11111111111111111/1111111111111/111111111111/11}
 Group   2 Type C   : 17s13p12d2f contracted to 17s13p12d2f pattern {11111111111111111/1111111111111/111111111111/11}
 Group   3 Type O   : 17s13p12d2f contracted to 17s13p12d2f pattern {11111111111111111/1111111111111/111111111111/11}
 Group   4 Type H   : 15s6p1d contracted to 15s6p1d pattern {111111111111111/111111/1}

Atom   0N    basis set group =>   1
Atom   1C    basis set group =>   2
Atom   2C    basis set group =>   2
Atom   3O    basis set group =>   3
Atom   4C    basis set group =>   2
Atom   5C    basis set group =>   2
Atom   6H    basis set group =>   4
Atom   7H    basis set group =>   4
Atom   8C    basis set group =>   2
Atom   9O    basis set group =>   3
Atom  10O    basis set group =>   3
Atom  11H    basis set group =>   4
Atom  12C    basis set group =>   2
Atom  13N    basis set group =>   1
Atom  14H    basis set group =>   4
Atom  15O    basis set group =>   3
Atom  16C    basis set group =>   2
Atom  17H    basis set group =>   4
Atom  18H    basis set group =>   4
Atom  19H    basis set group =>   4
Atom  20C    basis set group =>   2
Atom  21H    basis set group =>   4
Atom  22H    basis set group =>   4
Atom  23H    basis set group =>   4
Atom  24H    basis set group =>   4
Atom  25H    basis set group =>   4
----------------------------------
AUXILIARY/JK BASIS SET INFORMATION
----------------------------------
There are 4 groups of distinct atoms

 Group   1 Type N   : 17s13p12d2f contracted to 17s13p12d2f pattern {11111111111111111/1111111111111/111111111111/11}
 Group   2 Type C   : 17s13p12d2f contracted to 17s13p12d2f pattern {11111111111111111/1111111111111/111111111111/11}
 Group   3 Type O   : 17s13p12d2f contracted to 17s13p12d2f pattern {11111111111111111/1111111111111/111111111111/11}
 Group   4 Type H   : 15s6p1d contracted to 15s6p1d pattern {111111111111111/111111/1}

Atom   0N    basis set group =>   1
Atom   1C    basis set group =>   2
Atom   2C    basis set group =>   2
Atom   3O    basis set group =>   3
Atom   4C    basis set group =>   2
Atom   5C    basis set group =>   2
Atom   6H    basis set group =>   4
Atom   7H    basis set group =>   4
Atom   8C    basis set group =>   2
Atom   9O    basis set group =>   3
Atom  10O    basis set group =>   3
Atom  11H    basis set group =>   4
Atom  12C    basis set group =>   2
Atom  13N    basis set group =>   1
Atom  14H    basis set group =>   4
Atom  15O    basis set group =>   3
Atom  16C    basis set group =>   2
Atom  17H    basis set group =>   4
Atom  18H    basis set group =>   4
Atom  19H    basis set group =>   4
Atom  20C    basis set group =>   2
Atom  21H    basis set group =>   4
Atom  22H    basis set group =>   4
Atom  23H    basis set group =>   4
Atom  24H    basis set group =>   4
Atom  25H    basis set group =>   4


           ************************************************************
           *        Program running with 16 parallel MPI-processes    *
           *              working on a common directory               *
           ************************************************************
------------------------------------------------------------------------------
                           ORCA GTO INTEGRAL CALCULATION
                           -- RI-GTO INTEGRALS CHOSEN --
------------------------------------------------------------------------------
------------------------------------------------------------------------------
                   ___                                                        
                  /   \      - P O W E R E D   B Y -                         
                 /     \                                                     
                 |  |  |   _    _      __       _____    __    __             
                 |  |  |  | |  | |    /  \     |  _  \  |  |  /  |          
                  \  \/   | |  | |   /    \    | | | |  |  | /  /          
                 / \  \   | |__| |  /  /\  \   | |_| |  |  |/  /          
                |  |  |   |  __  | /  /__\  \  |    /   |      \           
                |  |  |   | |  | | |   __   |  |    \   |  |\   \          
                \     /   | |  | | |  |  |  |  | |\  \  |  | \   \       
                 \___/    |_|  |_| |__|  |__|  |_| \__\ |__|  \__/        
                                                                              
                      - O R C A' S   B I G   F R I E N D -                    
                                      &                                       
                       - I N T E G R A L  F E E D E R -                       
                                                                              
 v1 FN, 2020, v2 2021                                                         
------------------------------------------------------------------------------


Reading SHARK input file epr_info.SHARKINP.tmp ... ok
----------------------
SHARK INTEGRAL PACKAGE
----------------------

Number of atoms                             ...     26
Number of basis functions                   ...    322
Number of shells                            ...    186
Maximum angular momentum                    ...      2
Integral batch strategy                     ... SHARK/LIBINT Hybrid
RI-J (if used) integral strategy            ... SPLIT-RIJ (Revised 2003 algorithm where possible)
Printlevel                                  ...      1
Contraction scheme used                     ... SEGMENTED contraction
Coulomb Range Separation                    ... NOT USED
Exchange Range Separation                   ... NOT USED
Finite Nucleus Model                        ... NOT USED
Auxiliary Coulomb fitting basis             ... AVAILABLE
   # of basis functions in Aux-J            ...   2276
   # of shells in Aux-J                     ...    880
   Maximum angular momentum in Aux-J        ...      3
Auxiliary J/K fitting basis                 ... AVAILABLE
   # of basis functions in Aux-JK           ...   2276
   # of shells in Aux-JK                    ...    880
   Maximum angular momentum in Aux-JK       ...      3
Auxiliary Correlation fitting basis         ... AVAILABLE
   # of basis functions in Aux-C            ...   2276
   # of shells in Aux-C                     ...    880
   Maximum angular momentum in Aux-C        ...      3
Auxiliary 'external' fitting basis          ... NOT available
Integral threshold                          ...     1.000000e-10
Primitive cut-off                           ...     1.000000e-11
Primitive pair pre-selection threshold      ...     1.000000e-11

Calculating pre-screening integrals         ... done (  0.0 sec) Dimension = 186
Organizing shell pair data                  ... done (  0.0 sec)
Shell pair information
Total number of shell pairs                 ...     17391
Shell pairs after pre-screening             ...     12139
Total number of primitive shell pairs       ...     47846
Primitive shell pairs kept                  ...     24177
          la=0 lb=0:   5454 shell pairs
          la=1 lb=0:   4141 shell pairs
          la=1 lb=1:    725 shell pairs
          la=2 lb=0:   1264 shell pairs
          la=2 lb=1:    474 shell pairs
          la=2 lb=2:     81 shell pairs

Calculating one electron integrals          ... done (  0.0 sec)
Calculating RI/J V-Matrix + Cholesky decomp.... done (  0.3 sec)
Calculating RI/JK V-Matrix + Cholesky decomp... done (  0.3 sec)
Calculating RI/C V-Matrix + Cholesky decomp.... done (  0.3 sec)
Calculating Nuclear repulsion               ... done (  0.0 sec) ENN=    910.536602717298 Eh

SHARK setup successfully completed in   1.0 seconds

Maximum memory used throughout the entire GTOINT-calculation: 23.4 MB


           ************************************************************
           *        Program running with 16 parallel MPI-processes    *
           *              working on a common directory               *
           ************************************************************
-------------------------------------------------------------------------------
                                 ORCA SCF
-------------------------------------------------------------------------------

------------
SCF SETTINGS
------------
Hamiltonian:
 Density Functional     Method          .... DFT(GTOs)
 Exchange Functional    Exchange        .... B88
   X-Alpha parameter    XAlpha          ....  0.666667
   Becke's b parameter  XBeta           ....  0.004200
 Correlation Functional Correlation     .... LYP
 LDA part of GGA corr.  LDAOpt          .... VWN-5
 Gradients option       PostSCFGGA      .... off
 Hybrid DFT is turned on
   Fraction HF Exchange ScalHFX         ....  0.200000
   Scaling of DF-GGA-X  ScalDFX         ....  0.720000
   Scaling of DF-GGA-C  ScalDFC         ....  0.810000
   Scaling of DF-LDA-C  ScalLDAC        ....  1.000000
   Perturbative correction              ....  0.000000
   Density functional embedding theory  .... OFF
   NL short-range parameter             ....  4.800000
 RI-approximation to the Coulomb term is turned on
   Number of AuxJ basis functions       .... 2276
   RIJ-COSX (HFX calculated with COS-X)).... on


General Settings:
 Integral files         IntName         .... epr_info
 Hartree-Fock type      HFTyp           .... UHF
 Total Charge           Charge          ....   -1
 Multiplicity           Mult            ....    2
 Number of Electrons    NEL             ....  107
 Basis Dimension        Dim             ....  322
 Nuclear Repulsion      ENuc            ....    910.5366027173 Eh

Convergence Acceleration:
 DIIS                   CNVDIIS         .... on
   Start iteration      DIISMaxIt       ....    12
   Startup error        DIISStart       ....  0.200000
   # of expansion vecs  DIISMaxEq       ....     5
   Bias factor          DIISBfac        ....   1.050
   Max. coefficient     DIISMaxC        ....  10.000
 Trust-Rad. Augm. Hess. CNVTRAH         .... auto
   Auto Start mean grad. ratio tolernc. ....  1.125000
   Auto Start start iteration           ....    20
   Auto Start num. interpolation iter.  ....    10
   Max. Number of Micro iterations      ....    16
   Max. Number of Macro iterations      .... Maxiter - #DIIS iter
   Number of Davidson start vectors     ....     2
   Converg. threshold I  (grad. norm)   ....   5.000e-05
   Converg. threshold II (energy diff.) ....   1.000e-06
   Grad. Scal. Fac. for Micro threshold ....   0.100
   Minimum threshold for Micro iter.    ....   0.010
   NR start threshold (gradient norm)   ....   0.001
   Initial trust radius                 ....   0.400
   Minimum AH scaling param. (alpha)    ....   1.000
   Maximum AH scaling param. (alpha)    .... 1000.000
   Orbital update algorithm             .... Taylor
   White noise on init. David. guess    .... on
   Maximum white noise                  ....   0.010
   Quad. conv. algorithm                .... NR
 SOSCF                  CNVSOSCF        .... off
 Level Shifting         CNVShift        .... on
   Level shift para.    LevelShift      ....    0.2500
   Turn off err/grad.   ShiftErr        ....    0.0010
 Zerner damping         CNVZerner       .... off
 Static damping         CNVDamp         .... on
   Fraction old density DampFac         ....    0.7000
   Max. Damping (<1)    DampMax         ....    0.9800
   Min. Damping (>=0)   DampMin         ....    0.0000
   Turn off err/grad.   DampErr         ....    0.1000
 Fernandez-Rico         CNVRico         .... off

SCF Procedure:
 Maximum # iterations   MaxIter         ....   125
 SCF integral mode      SCFMode         .... Direct
   Integral package                     .... SHARK and LIBINT hybrid scheme
 Reset frequency        DirectResetFreq ....    20
 Integral Threshold     Thresh          ....  1.000e-10 Eh
 Primitive CutOff       TCut            ....  1.000e-11 Eh

Convergence Tolerance:
 Convergence Check Mode ConvCheckMode   .... Total+1el-Energy
 Convergence forced     ConvForced      .... 0
 Energy Change          TolE            ....  1.000e-06 Eh
 1-El. energy change                    ....  1.000e-03 Eh
 DIIS Error             TolErr          ....  1.000e-06


Diagonalization of the overlap matrix:
Smallest eigenvalue                        ... 1.011e-03
Time for diagonalization                   ...    0.011 sec
Threshold for overlap eigenvalues          ... 1.000e-08
Number of eigenvalues below threshold      ... 0
Time for construction of square roots      ...    0.008 sec
Total time needed                          ...    0.020 sec

Time for model grid setup =    0.096 sec

------------------------------
INITIAL GUESS: MODEL POTENTIAL
------------------------------
Loading Hartree-Fock densities                     ... done
Calculating cut-offs                               ... done
Initializing the effective Hamiltonian             ... done
Setting up the integral package (SHARK)            ... done
Starting the Coulomb interaction                   ... done (   0.0 sec)
Reading the grid                                   ... done
Mapping shells                                     ... done
Starting the XC term evaluation                    ... done (   0.0 sec)
  promolecular density results
     # of electrons  =    105.993033370
     EX              =    -90.552039132
     EC              =     -3.646855829
     EX+EC           =    -94.198894961
Transforming the Hamiltonian                       ... done (   0.0 sec)
Diagonalizing the Hamiltonian                      ... done (   0.0 sec)
Back transforming the eigenvectors                 ... done (   0.0 sec)
Now organizing SCF variables                       ... done
                      ------------------
                      INITIAL GUESS DONE (   0.2 sec)
                      ------------------
-------------------
DFT GRID GENERATION
-------------------

General Integration Accuracy     IntAcc      ... 4.388
Radial Grid Type                 RadialGrid  ... OptM3 with GC (2021)
Angular Grid (max. ang.)         AngularGrid ... 4 (Lebedev-302)
Angular grid pruning method      GridPruning ... 4 (adaptive)
Weight generation scheme         WeightScheme... Becke
Basis function cutoff            BFCut       ... 1.0000e-10
Integration weight cutoff        WCut        ... 1.0000e-14
Angular grids for H and He will be reduced by one unit
Partially contracted basis set               ... off
Rotationally invariant grid construction     ... off

Total number of grid points                  ...   122681
Total number of batches                      ...     1929
Average number of points per batch           ...       63
Average number of grid points per atom       ...     4718
Time for grid setup =    0.516 sec

--------------------
COSX GRID GENERATION
--------------------

GRIDX 1
-------
General Integration Accuracy     IntAcc      ... 3.816
Radial Grid Type                 RadialGrid  ... OptM3 with GC (2021)
Angular Grid (max. ang.)         AngularGrid ... 1 (Lebedev-50)
Angular grid pruning method      GridPruning ... 4 (adaptive)
Weight generation scheme         WeightScheme... Becke
Basis function cutoff            BFCut       ... 1.0000e-10
Integration weight cutoff        WCut        ... 1.0000e-14
Angular grids for H and He will be reduced by one unit
Partially contracted basis set               ... on
Rotationally invariant grid construction     ... off

Total number of grid points                  ...    15605
Total number of batches                      ...      257
Average number of points per batch           ...       60
Average number of grid points per atom       ...      600
UseSFitting                                  ... on

GRIDX 2
-------
General Integration Accuracy     IntAcc      ... 4.020
Radial Grid Type                 RadialGrid  ... OptM3 with GC (2021)
Angular Grid (max. ang.)         AngularGrid ... 2 (Lebedev-110)
Angular grid pruning method      GridPruning ... 4 (adaptive)
Weight generation scheme         WeightScheme... Becke
Basis function cutoff            BFCut       ... 1.0000e-10
Integration weight cutoff        WCut        ... 1.0000e-14
Angular grids for H and He will be reduced by one unit
Partially contracted basis set               ... on
Rotationally invariant grid construction     ... off

Total number of grid points                  ...    34009
Total number of batches                      ...      545
Average number of points per batch           ...       62
Average number of grid points per atom       ...     1308
UseSFitting                                  ... on

GRIDX 3
-------
General Integration Accuracy     IntAcc      ... 4.338
Radial Grid Type                 RadialGrid  ... OptM3 with GC (2021)
Angular Grid (max. ang.)         AngularGrid ... 3 (Lebedev-194)
Angular grid pruning method      GridPruning ... 4 (adaptive)
Weight generation scheme         WeightScheme... Becke
Basis function cutoff            BFCut       ... 1.0000e-10
Integration weight cutoff        WCut        ... 1.0000e-14
Angular grids for H and He will be reduced by one unit
Partially contracted basis set               ... on
Rotationally invariant grid construction     ... off

Total number of grid points                  ...    74483
Total number of batches                      ...     1178
Average number of points per batch           ...       63
Average number of grid points per atom       ...     2865
UseSFitting                                  ... on

Time for X-Grid setup             =    0.576 sec

--------------
SCF ITERATIONS
--------------
ITER       Energy         Delta-E        Max-DP      RMS-DP      [F,P]     Damp
               ***  Starting incremental Fock matrix formation  ***
  0   -721.7432690224   0.000000000000 0.06516071  0.00122539  0.1298748 0.7000
  1   -722.0174273928  -0.274158370404 0.06798084  0.00089768  0.0548995 0.7000
                               ***Turning on DIIS***
  2   -722.1123074077  -0.094880014891 0.10151544  0.00143734  0.0188863 0.0000
  3   -722.2753066632  -0.162999255506 0.06087876  0.00064812  0.0302594 0.0000
  4   -722.3070408511  -0.031734187852 0.02193060  0.00023455  0.0078880 0.0000
  5   -722.3096886689  -0.002647817843 0.00895860  0.00008990  0.0032189 0.0000
  6   -722.3099160397  -0.000227370798 0.00804210  0.00006830  0.0008148 0.0000
               *** Restarting incremental Fock matrix formation ***
                                   *** Resetting DIIS ***
  7   -722.3100186490  -0.000102609307 0.00166638  0.00002271  0.0010518 0.0000
  8   -722.3100188206  -0.000000171561 0.00075493  0.00000876  0.0012120 0.0000
  9   -722.3100385979  -0.000019777330 0.00046709  0.00000642  0.0002022 0.0000
 10   -722.3100405749  -0.000001976948 0.00032310  0.00000327  0.0001491 0.0000
                 **** Energy Check signals convergence ****

               *****************************************************
               *                     SUCCESS                       *
               *           SCF CONVERGED AFTER  11 CYCLES          *
               *****************************************************

Old exchange energy                            =    -18.398037665 Eh
New exchange energy                            =    -18.398053190 Eh
Exchange energy change after final integration =     -0.000015525 Eh
Total energy after final integration           =   -722.310056491 Eh
Final COS-X integration done in                =     1.652 sec

----------------
TOTAL SCF ENERGY
----------------

Total Energy       :         -722.31005649 Eh          -19655.05588 eV

Components:
Nuclear Repulsion  :          910.53660272 Eh           24776.96060 eV
Electronic Energy  :        -1632.84665921 Eh          -44432.01648 eV
One Electron Energy:        -2808.77470899 Eh          -76430.64549 eV
Two Electron Energy:         1175.92804978 Eh           31998.62901 eV
Max COSX asymmetry :            0.00000067 Eh               0.00002 eV

Virial components:
Potential Energy   :        -1439.85125415 Eh          -39180.34452 eV
Kinetic Energy     :          717.54119766 Eh           19525.28863 eV
Virial Ratio       :            2.00664611


DFT components:
N(Alpha)           :       54.000099666871 electrons
N(Beta)            :       53.000100052050 electrons
N(Total)           :      107.000199718920 electrons
E(X)               :      -73.190197468669 Eh       
E(C)               :       -4.326198120734 Eh       
E(XC)              :      -77.516395589403 Eh       
DFET-embed. en.    :        0.000000000000 Eh       

---------------
SCF CONVERGENCE
---------------

  Last Energy change         ...   -3.9096e-07  Tolerance :   1.0000e-06
  Last MAX-Density change    ...    0.0000e+00  Tolerance :   1.0000e-05
  Last RMS-Density change    ...    0.0000e+00  Tolerance :   1.0000e-06
  Last DIIS Error            ...    1.0140e-04  Tolerance :   1.0000e-06

             **** THE GBW FILE WAS UPDATED (epr_info.gbw) ****
             **** DENSITY epr_info.scfp WAS UPDATED ****
             **** ENERGY FILE WAS UPDATED (epr_info.en.tmp) ****
----------------------
UHF SPIN CONTAMINATION
----------------------

Warning: in a DFT calculation there is little theoretical justification to 
         calculate <S**2> as in Hartree-Fock theory. We will do it anyways
         but you should keep in mind that the values have only limited relevance

Expectation value of <S**2>     :     0.754647
Ideal value S*(S+1) for S=0.5   :     0.750000
Deviation                       :     0.004647

             **** THE GBW FILE WAS UPDATED (epr_info.gbw) ****
             **** DENSITY epr_info.scfp WAS UPDATED ****
----------------
ORBITAL ENERGIES
----------------
                 SPIN UP ORBITALS
  NO   OCC          E(Eh)            E(eV) 
   0   1.0000     -18.993365      -516.8357 
   1   1.0000     -18.992041      -516.7997 
   2   1.0000     -18.939806      -515.3783 
   3   1.0000     -18.935575      -515.2632 
   4   1.0000     -14.238609      -387.4522 
   5   1.0000     -14.215173      -386.8145 
   6   1.0000     -10.183360      -277.1033 
   7   1.0000     -10.167349      -276.6676 
   8   1.0000     -10.132962      -275.7319 
   9   1.0000     -10.113817      -275.2110 
  10   1.0000     -10.102127      -274.8928 
  11   1.0000     -10.094761      -274.6924 
  12   1.0000     -10.069370      -274.0015 
  13   1.0000     -10.049640      -273.4646 
  14   1.0000      -0.915908       -24.9231 
  15   1.0000      -0.906004       -24.6536 
  16   1.0000      -0.871581       -23.7169 
  17   1.0000      -0.804197       -21.8833 
  18   1.0000      -0.794520       -21.6200 
  19   1.0000      -0.781038       -21.2531 
  20   1.0000      -0.666398       -18.1336 
  21   1.0000      -0.629181       -17.1209 
  22   1.0000      -0.599166       -16.3041 
  23   1.0000      -0.563017       -15.3205 
  24   1.0000      -0.485823       -13.2199 
  25   1.0000      -0.458992       -12.4898 
  26   1.0000      -0.436665       -11.8823 
  27   1.0000      -0.413263       -11.2455 
  28   1.0000      -0.367649       -10.0042 
  29   1.0000      -0.358641        -9.7591 
  30   1.0000      -0.352123        -9.5818 
  31   1.0000      -0.339340        -9.2339 
  32   1.0000      -0.337135        -9.1739 
  33   1.0000      -0.331739        -9.0271 
  34   1.0000      -0.315601        -8.5879 
  35   1.0000      -0.303855        -8.2683 
  36   1.0000      -0.299611        -8.1528 
  37   1.0000      -0.291433        -7.9303 
  38   1.0000      -0.279843        -7.6149 
  39   1.0000      -0.268966        -7.3189 
  40   1.0000      -0.265172        -7.2157 
  41   1.0000      -0.254065        -6.9135 
  42   1.0000      -0.250503        -6.8165 
  43   1.0000      -0.240584        -6.5466 
  44   1.0000      -0.220404        -5.9975 
  45   1.0000      -0.210402        -5.7253 
  46   1.0000      -0.148639        -4.0447 
  47   1.0000      -0.143814        -3.9134 
  48   1.0000      -0.139425        -3.7939 
  49   1.0000      -0.129486        -3.5235 
  50   1.0000      -0.111577        -3.0362 
  51   1.0000      -0.102565        -2.7909 
  52   1.0000      -0.088205        -2.4002 
  53   1.0000      -0.045348        -1.2340 
  54   0.0000       0.105903         2.8818 
  55   0.0000       0.118746         3.2312 
  56   0.0000       0.133798         3.6408 
  57   0.0000       0.144999         3.9456 
  58   0.0000       0.155286         4.2256 
  59   0.0000       0.167228         4.5505 
  60   0.0000       0.177437         4.8283 
  61   0.0000       0.181194         4.9305 
  62   0.0000       0.205398         5.5892 
  63   0.0000       0.208365         5.6699 
  64   0.0000       0.217926         5.9301 
  65   0.0000       0.232887         6.3372 
  66   0.0000       0.242684         6.6038 
  67   0.0000       0.253848         6.9076 
  68   0.0000       0.277896         7.5619 
  69   0.0000       0.283844         7.7238 
  70   0.0000       0.293344         7.9823 
  71   0.0000       0.293910         7.9977 
  72   0.0000       0.302693         8.2367 
  73   0.0000       0.307507         8.3677 
  74   0.0000       0.317040         8.6271 
  75   0.0000       0.329097         8.9552 
  76   0.0000       0.334046         9.0898 
  77   0.0000       0.340331         9.2609 
  78   0.0000       0.345906         9.4126 
  79   0.0000       0.351501         9.5648 
  80   0.0000       0.367017         9.9870 
  81   0.0000       0.371768        10.1163 
  82   0.0000       0.375964        10.2305 
  83   0.0000       0.382322        10.4035 
  84   0.0000       0.384642        10.4667 
  85   0.0000       0.399229        10.8636 
  86   0.0000       0.401322        10.9205 
  87   0.0000       0.407795        11.0967 
  88   0.0000       0.412580        11.2269 
  89   0.0000       0.423751        11.5309 
  90   0.0000       0.425466        11.5775 
  91   0.0000       0.439468        11.9585 
  92   0.0000       0.443596        12.0709 
  93   0.0000       0.464080        12.6282 
  94   0.0000       0.465362        12.6631 
  95   0.0000       0.490055        13.3351 
  96   0.0000       0.500723        13.6254 
  97   0.0000       0.509046        13.8518 
  98   0.0000       0.515275        14.0213 
  99   0.0000       0.518062        14.0972 
 100   0.0000       0.533438        14.5156 
 101   0.0000       0.541339        14.7306 
 102   0.0000       0.546760        14.8781 
 103   0.0000       0.556243        15.1361 
 104   0.0000       0.562556        15.3079 
 105   0.0000       0.576738        15.6938 
 106   0.0000       0.586977        15.9724 
 107   0.0000       0.596240        16.2245 
 108   0.0000       0.605976        16.4894 
 109   0.0000       0.610427        16.6106 
 110   0.0000       0.623831        16.9753 
 111   0.0000       0.633069        17.2267 
 112   0.0000       0.643795        17.5186 
 113   0.0000       0.653584        17.7849 
 114   0.0000       0.665263        18.1027 
 115   0.0000       0.675473        18.3805 
 116   0.0000       0.692810        18.8523 
 117   0.0000       0.714193        19.4342 
 118   0.0000       0.737364        20.0647 
 119   0.0000       0.742799        20.2126 
 120   0.0000       0.783321        21.3152 
 121   0.0000       0.800226        21.7752 
 122   0.0000       0.823368        22.4050 
 123   0.0000       0.840411        22.8687 
 124   0.0000       0.868150        23.6236 
 125   0.0000       0.878969        23.9180 
 126   0.0000       0.896426        24.3930 
 127   0.0000       0.903638        24.5892 
 128   0.0000       0.913360        24.8538 
 129   0.0000       0.923515        25.1301 
 130   0.0000       0.930983        25.3333 
 131   0.0000       0.940777        25.5998 
 132   0.0000       0.956377        26.0243 
 133   0.0000       0.969066        26.3696 
 134   0.0000       0.971856        26.4455 
 135   0.0000       0.976763        26.5791 
 136   0.0000       0.981881        26.7183 
 137   0.0000       1.006094        27.3772 
 138   0.0000       1.008340        27.4383 
 139   0.0000       1.013858        27.5885 
 140   0.0000       1.024025        27.8651 
 141   0.0000       1.029401        28.0114 
 142   0.0000       1.035306        28.1721 
 143   0.0000       1.045794        28.4575 
 144   0.0000       1.066788        29.0288 
 145   0.0000       1.072661        29.1886 
 146   0.0000       1.078942        29.3595 
 147   0.0000       1.085431        29.5361 
 148   0.0000       1.093536        29.7566 
 149   0.0000       1.106973        30.1223 
 150   0.0000       1.117574        30.4107 
 151   0.0000       1.124484        30.5988 
 152   0.0000       1.131064        30.7778 
 153   0.0000       1.154562        31.4172 
 154   0.0000       1.172514        31.9057 
 155   0.0000       1.177301        32.0360 
 156   0.0000       1.195953        32.5435 
 157   0.0000       1.215755        33.0824 
 158   0.0000       1.239524        33.7292 
 159   0.0000       1.269331        34.5403 
 160   0.0000       1.279371        34.8134 
 161   0.0000       1.289552        35.0905 
 162   0.0000       1.304671        35.5019 
 163   0.0000       1.315242        35.7895 
 164   0.0000       1.327930        36.1348 
 165   0.0000       1.346614        36.6432 
 166   0.0000       1.368093        37.2277 
 167   0.0000       1.396752        38.0076 
 168   0.0000       1.429966        38.9114 
 169   0.0000       1.448280        39.4097 
 170   0.0000       1.464435        39.8493 
 171   0.0000       1.472142        40.0590 
 172   0.0000       1.482912        40.3521 
 173   0.0000       1.498972        40.7891 
 174   0.0000       1.506223        40.9864 
 175   0.0000       1.506865        41.0039 
 176   0.0000       1.522481        41.4288 
 177   0.0000       1.549452        42.1627 
 178   0.0000       1.582396        43.0592 
 179   0.0000       1.584405        43.1139 
 180   0.0000       1.591134        43.2970 
 181   0.0000       1.612981        43.8915 
 182   0.0000       1.623555        44.1792 
 183   0.0000       1.629768        44.3482 
 184   0.0000       1.636657        44.5357 
 185   0.0000       1.663830        45.2751 
 186   0.0000       1.667562        45.3767 
 187   0.0000       1.682186        45.7746 
 188   0.0000       1.703285        46.3487 
 189   0.0000       1.712357        46.5956 
 190   0.0000       1.732263        47.1373 
 191   0.0000       1.736717        47.2585 
 192   0.0000       1.744398        47.4675 
 193   0.0000       1.765240        48.0346 
 194   0.0000       1.784018        48.5456 
 195   0.0000       1.802191        49.0401 
 196   0.0000       1.815820        49.4110 
 197   0.0000       1.846669        50.2504 
 198   0.0000       1.857564        50.5469 
 199   0.0000       1.858035        50.5597 
 200   0.0000       1.866226        50.7826 
 201   0.0000       1.890391        51.4401 
 202   0.0000       1.906628        51.8820 
 203   0.0000       1.911119        52.0042 
 204   0.0000       1.925182        52.3869 
 205   0.0000       1.940397        52.8009 
 206   0.0000       1.948949        53.0336 
 207   0.0000       1.979095        53.8539 
 208   0.0000       1.997255        54.3481 
 209   0.0000       2.014426        54.8153 
 210   0.0000       2.029331        55.2209 
 211   0.0000       2.034315        55.3565 
 212   0.0000       2.054969        55.9186 
 213   0.0000       2.077358        56.5278 
 214   0.0000       2.107223        57.3405 
 215   0.0000       2.137798        58.1724 
 216   0.0000       2.148922        58.4752 
 217   0.0000       2.149440        58.4892 
 218   0.0000       2.168140        58.9981 
 219   0.0000       2.200978        59.8917 
 220   0.0000       2.215807        60.2952 
 221   0.0000       2.228264        60.6342 
 222   0.0000       2.247468        61.1567 
 223   0.0000       2.270298        61.7780 
 224   0.0000       2.304804        62.7169 
 225   0.0000       2.326525        63.3080 
 226   0.0000       2.340878        63.6985 
 227   0.0000       2.375479        64.6401 
 228   0.0000       2.399355        65.2898 
 229   0.0000       2.417399        65.7808 
 230   0.0000       2.427306        66.0504 
 231   0.0000       2.463339        67.0309 
 232   0.0000       2.483119        67.5691 
 233   0.0000       2.490873        67.7801 
 234   0.0000       2.504227        68.1435 
 235   0.0000       2.557605        69.5960 
 236   0.0000       2.578388        70.1615 
 237   0.0000       2.581796        70.2543 
 238   0.0000       2.593981        70.5858 
 239   0.0000       2.607574        70.9557 
 240   0.0000       2.620286        71.3016 
 241   0.0000       2.652532        72.1791 
 242   0.0000       2.667466        72.5855 
 243   0.0000       2.708283        73.6961 
 244   0.0000       2.735137        74.4269 
 245   0.0000       2.786727        75.8307 
 246   0.0000       2.801452        76.2314 
 247   0.0000       2.805018        76.3284 
 248   0.0000       2.823724        76.8374 
 249   0.0000       2.858566        77.7855 
 250   0.0000       2.861211        77.8575 
 251   0.0000       2.866686        78.0065 
 252   0.0000       2.879273        78.3490 
 253   0.0000       2.911151        79.2164 
 254   0.0000       2.914669        79.3122 
 255   0.0000       3.036846        82.6368 
 256   0.0000       3.111978        84.6812 
 257   0.0000       3.128001        85.1172 
 258   0.0000       3.201705        87.1228 
 259   0.0000       3.220048        87.6220 
 260   0.0000       3.239152        88.1418 
 261   0.0000       3.336495        90.7906 
 262   0.0000       3.354262        91.2741 
 263   0.0000       3.451118        93.9097 
 264   0.0000       3.496415        95.1423 
 265   0.0000       3.521692        95.8301 
 266   0.0000       3.541736        96.3755 
 267   0.0000       3.557006        96.7910 
 268   0.0000       3.589459        97.6741 
 269   0.0000       3.688167       100.3601 
 270   0.0000       5.077781       138.1734 
 271   0.0000       5.104283       138.8946 
 272   0.0000       5.107121       138.9718 
 273   0.0000       5.121703       139.3686 
 274   0.0000       5.132034       139.6497 
 275   0.0000       5.175497       140.8324 
 276   0.0000       5.212501       141.8394 
 277   0.0000       5.273525       143.4999 
 278   0.0000       5.297510       144.1526 
 279   0.0000       5.337121       145.2305 
 280   0.0000       5.376323       146.2972 
 281   0.0000       5.409042       147.1875 
 282   0.0000       5.423972       147.5938 
 283   0.0000       5.443245       148.1182 
 284   0.0000       5.470608       148.8628 
 285   0.0000       5.583225       151.9273 
 286   0.0000       5.719676       155.6403 
 287   0.0000       5.788503       157.5132 
 288   0.0000       5.823443       158.4639 
 289   0.0000       5.918625       161.0540 
 290   0.0000       7.415220       201.7784 
 291   0.0000       7.497850       204.0269 
 292   0.0000       9.141755       248.7598 
 293   0.0000       9.175388       249.6750 
 294   0.0000       9.230153       251.1652 
 295   0.0000       9.325176       253.7509 
 296   0.0000      29.665523       807.2399 
 297   0.0000      29.730291       809.0024 
 298   0.0000      29.785842       810.5140 
 299   0.0000      29.983595       815.8951 
 300   0.0000      30.068250       818.1987 
 301   0.0000      30.154340       820.5413 
 302   0.0000      30.245615       823.0250 
 303   0.0000      30.314299       824.8940 
 304   0.0000      36.700176       998.6626 
 305   0.0000      36.728755       999.4402 
 306   0.0000      36.729803       999.4687 
 307   0.0000      36.744091       999.8576 
 308   0.0000      36.794035      1001.2166 
 309   0.0000      36.840573      1002.4829 
 310   0.0000      36.884867      1003.6882 
 311   0.0000      36.918112      1004.5929 
 312   0.0000      36.942986      1005.2697 
 313   0.0000      37.012133      1007.1514 
 314   0.0000      37.012964      1007.1739 
 315   0.0000      37.038788      1007.8767 
 316   0.0000      41.351935      1125.2433 
 317   0.0000      41.434052      1127.4779 
 318   0.0000      53.681331      1460.7433 
 319   0.0000      53.712692      1461.5966 
 320   0.0000      53.764992      1463.0198 
 321   0.0000      53.860034      1465.6060 

                 SPIN DOWN ORBITALS
  NO   OCC          E(Eh)            E(eV) 
   0   1.0000     -18.993291      -516.8337 
   1   1.0000     -18.991984      -516.7982 
   2   1.0000     -18.939371      -515.3665 
   3   1.0000     -18.934627      -515.2374 
   4   1.0000     -14.238229      -387.4419 
   5   1.0000     -14.215137      -386.8136 
   6   1.0000     -10.183399      -277.1044 
   7   1.0000     -10.167037      -276.6591 
   8   1.0000     -10.131454      -275.6909 
   9   1.0000     -10.114550      -275.2309 
  10   1.0000     -10.102112      -274.8924 
  11   1.0000     -10.094745      -274.6920 
  12   1.0000     -10.056488      -273.6509 
  13   1.0000     -10.050245      -273.4811 
  14   1.0000      -0.915700       -24.9175 
  15   1.0000      -0.905836       -24.6490 
  16   1.0000      -0.869701       -23.6658 
  17   1.0000      -0.803303       -21.8590 
  18   1.0000      -0.793474       -21.5915 
  19   1.0000      -0.780133       -21.2285 
  20   1.0000      -0.659307       -17.9407 
  21   1.0000      -0.623811       -16.9748 
  22   1.0000      -0.595422       -16.2023 
  23   1.0000      -0.561679       -15.2841 
  24   1.0000      -0.478348       -13.0165 
  25   1.0000      -0.453312       -12.3353 
  26   1.0000      -0.430424       -11.7124 
  27   1.0000      -0.412140       -11.2149 
  28   1.0000      -0.367048        -9.9879 
  29   1.0000      -0.353174        -9.6104 
  30   1.0000      -0.349771        -9.5178 
  31   1.0000      -0.338367        -9.2074 
  32   1.0000      -0.336266        -9.1503 
  33   1.0000      -0.328139        -8.9291 
  34   1.0000      -0.312581        -8.5058 
  35   1.0000      -0.301712        -8.2100 
  36   1.0000      -0.298402        -8.1199 
  37   1.0000      -0.288724        -7.8566 
  38   1.0000      -0.278253        -7.5716 
  39   1.0000      -0.267288        -7.2733 
  40   1.0000      -0.262263        -7.1365 
  41   1.0000      -0.252937        -6.8828 
  42   1.0000      -0.248249        -6.7552 
  43   1.0000      -0.237917        -6.4741 
  44   1.0000      -0.217711        -5.9242 
  45   1.0000      -0.207235        -5.6392 
  46   1.0000      -0.147273        -4.0075 
  47   1.0000      -0.142676        -3.8824 
  48   1.0000      -0.137045        -3.7292 
  49   1.0000      -0.128668        -3.5012 
  50   1.0000      -0.101892        -2.7726 
  51   1.0000      -0.095301        -2.5933 
  52   1.0000      -0.080510        -2.1908 
  53   0.0000       0.074024         2.0143 
  54   0.0000       0.106669         2.9026 
  55   0.0000       0.118768         3.2319 
  56   0.0000       0.135924         3.6987 
  57   0.0000       0.145686         3.9643 
  58   0.0000       0.156258         4.2520 
  59   0.0000       0.168091         4.5740 
  60   0.0000       0.178896         4.8680 
  61   0.0000       0.181871         4.9490 
  62   0.0000       0.207606         5.6493 
  63   0.0000       0.208669         5.6782 
  64   0.0000       0.221436         6.0256 
  65   0.0000       0.234471         6.3803 
  66   0.0000       0.243529         6.6268 
  67   0.0000       0.254503         6.9254 
  68   0.0000       0.278128         7.5683 
  69   0.0000       0.284901         7.7526 
  70   0.0000       0.294084         8.0024 
  71   0.0000       0.294657         8.0180 
  72   0.0000       0.304125         8.2757 
  73   0.0000       0.308119         8.3844 
  74   0.0000       0.318413         8.6645 
  75   0.0000       0.330547         8.9947 
  76   0.0000       0.336304         9.1513 
  77   0.0000       0.341809         9.3011 
  78   0.0000       0.350475         9.5369 
  79   0.0000       0.352656         9.5962 
  80   0.0000       0.368137        10.0175 
  81   0.0000       0.375206        10.2099 
  82   0.0000       0.377980        10.2854 
  83   0.0000       0.385147        10.4804 
  84   0.0000       0.387119        10.5340 
  85   0.0000       0.401953        10.9377 
  86   0.0000       0.402970        10.9654 
  87   0.0000       0.410188        11.1618 
  88   0.0000       0.414567        11.2809 
  89   0.0000       0.424791        11.5592 
  90   0.0000       0.429386        11.6842 
  91   0.0000       0.441115        12.0034 
  92   0.0000       0.446215        12.1421 
  93   0.0000       0.466472        12.6934 
  94   0.0000       0.467098        12.7104 
  95   0.0000       0.494039        13.4435 
  96   0.0000       0.503672        13.7056 
  97   0.0000       0.512352        13.9418 
  98   0.0000       0.517847        14.0913 
  99   0.0000       0.524092        14.2613 
 100   0.0000       0.535353        14.5677 
 101   0.0000       0.541864        14.7449 
 102   0.0000       0.550192        14.9715 
 103   0.0000       0.557729        15.1766 
 104   0.0000       0.564754        15.3677 
 105   0.0000       0.578832        15.7508 
 106   0.0000       0.593538        16.1510 
 107   0.0000       0.597495        16.2587 
 108   0.0000       0.610913        16.6238 
 109   0.0000       0.616236        16.7686 
 110   0.0000       0.625890        17.0313 
 111   0.0000       0.644093        17.5267 
 112   0.0000       0.646436        17.5904 
 113   0.0000       0.657242        17.8845 
 114   0.0000       0.667821        18.1723 
 115   0.0000       0.680821        18.5261 
 116   0.0000       0.695163        18.9163 
 117   0.0000       0.717590        19.5266 
 118   0.0000       0.740063        20.1381 
 119   0.0000       0.745913        20.2973 
 120   0.0000       0.784893        21.3580 
 121   0.0000       0.802261        21.8306 
 122   0.0000       0.827024        22.5045 
 123   0.0000       0.842442        22.9240 
 124   0.0000       0.870655        23.6917 
 125   0.0000       0.879589        23.9348 
 126   0.0000       0.897261        24.4157 
 127   0.0000       0.905739        24.6464 
 128   0.0000       0.913814        24.8662 
 129   0.0000       0.924195        25.1486 
 130   0.0000       0.931736        25.3538 
 131   0.0000       0.942328        25.6420 
 132   0.0000       0.957211        26.0470 
 133   0.0000       0.969357        26.3775 
 134   0.0000       0.974148        26.5079 
 135   0.0000       0.977694        26.6044 
 136   0.0000       0.982463        26.7342 
 137   0.0000       1.008287        27.4369 
 138   0.0000       1.009400        27.4672 
 139   0.0000       1.015688        27.6383 
 140   0.0000       1.026414        27.9301 
 141   0.0000       1.031918        28.0799 
 142   0.0000       1.035914        28.1887 
 143   0.0000       1.047263        28.4975 
 144   0.0000       1.068546        29.0766 
 145   0.0000       1.076037        29.2805 
 146   0.0000       1.081099        29.4182 
 147   0.0000       1.088373        29.6161 
 148   0.0000       1.098131        29.8817 
 149   0.0000       1.108313        30.1587 
 150   0.0000       1.119200        30.4550 
 151   0.0000       1.125782        30.6341 
 152   0.0000       1.132604        30.8197 
 153   0.0000       1.158371        31.5209 
 154   0.0000       1.174986        31.9730 
 155   0.0000       1.182261        32.1709 
 156   0.0000       1.196703        32.5639 
 157   0.0000       1.219557        33.1858 
 158   0.0000       1.240987        33.7690 
 159   0.0000       1.269909        34.5560 
 160   0.0000       1.280399        34.8414 
 161   0.0000       1.294247        35.2183 
 162   0.0000       1.306454        35.5504 
 163   0.0000       1.318614        35.8813 
 164   0.0000       1.330283        36.1989 
 165   0.0000       1.347993        36.6808 
 166   0.0000       1.372082        37.3362 
 167   0.0000       1.399363        38.0786 
 168   0.0000       1.434378        39.0314 
 169   0.0000       1.452242        39.5175 
 170   0.0000       1.466373        39.9020 
 171   0.0000       1.473972        40.1088 
 172   0.0000       1.496947        40.7340 
 173   0.0000       1.500651        40.8348 
 174   0.0000       1.507470        41.0203 
 175   0.0000       1.510679        41.1077 
 176   0.0000       1.523270        41.4503 
 177   0.0000       1.553371        42.2694 
 178   0.0000       1.583816        43.0978 
 179   0.0000       1.587725        43.2042 
 180   0.0000       1.592786        43.3419 
 181   0.0000       1.614451        43.9315 
 182   0.0000       1.625826        44.2410 
 183   0.0000       1.631757        44.4024 
 184   0.0000       1.637725        44.5648 
 185   0.0000       1.666286        45.3419 
 186   0.0000       1.668722        45.4082 
 187   0.0000       1.686521        45.8926 
 188   0.0000       1.709216        46.5101 
 189   0.0000       1.715072        46.6695 
 190   0.0000       1.735285        47.2195 
 191   0.0000       1.741078        47.3771 
 192   0.0000       1.753508        47.7154 
 193   0.0000       1.767366        48.0925 
 194   0.0000       1.785840        48.5952 
 195   0.0000       1.803995        49.0892 
 196   0.0000       1.817354        49.4527 
 197   0.0000       1.848770        50.3076 
 198   0.0000       1.859280        50.5936 
 199   0.0000       1.867119        50.8069 
 200   0.0000       1.869334        50.8672 
 201   0.0000       1.893237        51.5176 
 202   0.0000       1.909935        51.9720 
 203   0.0000       1.914320        52.0913 
 204   0.0000       1.926469        52.4219 
 205   0.0000       1.942982        52.8712 
 206   0.0000       1.952368        53.1266 
 207   0.0000       1.982058        53.9345 
 208   0.0000       1.998903        54.3929 
 209   0.0000       2.016999        54.8853 
 210   0.0000       2.033125        55.3241 
 211   0.0000       2.036137        55.4061 
 212   0.0000       2.061006        56.0828 
 213   0.0000       2.079565        56.5878 
 214   0.0000       2.109076        57.3909 
 215   0.0000       2.138234        58.1843 
 216   0.0000       2.149957        58.5033 
 217   0.0000       2.152465        58.5716 
 218   0.0000       2.171920        59.1009 
 219   0.0000       2.203270        59.9540 
 220   0.0000       2.217788        60.3491 
 221   0.0000       2.233212        60.7688 
 222   0.0000       2.252080        61.2822 
 223   0.0000       2.275091        61.9084 
 224   0.0000       2.306012        62.7498 
 225   0.0000       2.328702        63.3672 
 226   0.0000       2.343176        63.7611 
 227   0.0000       2.376579        64.6700 
 228   0.0000       2.400195        65.3126 
 229   0.0000       2.422053        65.9074 
 230   0.0000       2.431513        66.1648 
 231   0.0000       2.465473        67.0889 
 232   0.0000       2.483627        67.5829 
 233   0.0000       2.491228        67.7898 
 234   0.0000       2.505244        68.1712 
 235   0.0000       2.558432        69.6185 
 236   0.0000       2.580080        70.2076 
 237   0.0000       2.582544        70.2746 
 238   0.0000       2.595663        70.6316 
 239   0.0000       2.609113        70.9976 
 240   0.0000       2.622282        71.3559 
 241   0.0000       2.655411        72.2574 
 242   0.0000       2.670314        72.6629 
 243   0.0000       2.708702        73.7075 
 244   0.0000       2.737525        74.4918 
 245   0.0000       2.789365        75.9025 
 246   0.0000       2.802127        76.2497 
 247   0.0000       2.807142        76.3862 
 248   0.0000       2.824821        76.8673 
 249   0.0000       2.859852        77.8205 
 250   0.0000       2.862070        77.8809 
 251   0.0000       2.867749        78.0354 
 252   0.0000       2.880168        78.3734 
 253   0.0000       2.911883        79.2364 
 254   0.0000       2.915710        79.3405 
 255   0.0000       3.037738        82.6610 
 256   0.0000       3.112657        84.6997 
 257   0.0000       3.128378        85.1275 
 258   0.0000       3.201890        87.1279 
 259   0.0000       3.220356        87.6303 
 260   0.0000       3.240854        88.1881 
 261   0.0000       3.338220        90.8376 
 262   0.0000       3.355877        91.3181 
 263   0.0000       3.451852        93.9297 
 264   0.0000       3.496747        95.1513 
 265   0.0000       3.521995        95.8384 
 266   0.0000       3.541891        96.3797 
 267   0.0000       3.557805        96.8128 
 268   0.0000       3.590583        97.7047 
 269   0.0000       3.690251       100.4168 
 270   0.0000       5.077766       138.1730 
 271   0.0000       5.104582       138.9027 
 272   0.0000       5.107196       138.9739 
 273   0.0000       5.124102       139.4339 
 274   0.0000       5.132887       139.6729 
 275   0.0000       5.179381       140.9381 
 276   0.0000       5.219505       142.0300 
 277   0.0000       5.273566       143.5010 
 278   0.0000       5.302609       144.2913 
 279   0.0000       5.337196       145.2325 
 280   0.0000       5.377272       146.3230 
 281   0.0000       5.410566       147.2290 
 282   0.0000       5.425774       147.6428 
 283   0.0000       5.445458       148.1785 
 284   0.0000       5.475169       148.9869 
 285   0.0000       5.594957       152.2465 
 286   0.0000       5.720215       155.6550 
 287   0.0000       5.788477       157.5125 
 288   0.0000       5.823404       158.4629 
 289   0.0000       5.927994       161.3089 
 290   0.0000       7.415936       201.7979 
 291   0.0000       7.497942       204.0294 
 292   0.0000       9.143230       248.7999 
 293   0.0000       9.175560       249.6797 
 294   0.0000       9.230346       251.1705 
 295   0.0000       9.326596       253.7896 
 296   0.0000      29.670220       807.3677 
 297   0.0000      29.730619       809.0113 
 298   0.0000      29.787128       810.5490 
 299   0.0000      29.988440       816.0269 
 300   0.0000      30.072883       818.3248 
 301   0.0000      30.154375       820.5423 
 302   0.0000      30.245108       823.0112 
 303   0.0000      30.318902       825.0193 
 304   0.0000      36.700148       998.6618 
 305   0.0000      36.728738       999.4398 
 306   0.0000      36.729780       999.4681 
 307   0.0000      36.744104       999.8579 
 308   0.0000      36.800838      1001.4017 
 309   0.0000      36.841430      1002.5063 
 310   0.0000      36.879858      1003.5520 
 311   0.0000      36.919846      1004.6401 
 312   0.0000      36.953763      1005.5630 
 313   0.0000      37.013966      1007.2012 
 314   0.0000      37.014702      1007.2213 
 315   0.0000      37.043896      1008.0157 
 316   0.0000      41.352401      1125.2560 
 317   0.0000      41.434109      1127.4794 
 318   0.0000      53.682112      1460.7645 
 319   0.0000      53.712785      1461.5992 
 320   0.0000      53.765095      1463.0226 
 321   0.0000      53.860809      1465.6271 

                    ********************************
                    * MULLIKEN POPULATION ANALYSIS *
                    ********************************

--------------------------------------------
MULLIKEN ATOMIC CHARGES AND SPIN POPULATIONS
--------------------------------------------
   0 N :   -0.102484    0.010301
   1 C :   -0.110382   -0.030197
   2 C :    0.055919    0.007679
   3 O :   -0.408569    0.000628
   4 C :   -0.154952    0.930872
   5 C :   -0.357386   -0.057992
   6 H :    0.133690    0.005611
   7 H :    0.144778    0.029054
   8 C :    0.125200    0.044841
   9 O :   -0.418545    0.020520
  10 O :   -0.393800    0.036104
  11 H :    0.237093    0.000721
  12 C :    0.148536   -0.006945
  13 N :   -0.047504   -0.000226
  14 H :    0.272688   -0.000113
  15 O :   -0.337332    0.001980
  16 C :   -0.576626    0.001803
  17 H :    0.173246   -0.000090
  18 H :    0.145611   -0.000046
  19 H :    0.174114   -0.000024
  20 C :   -0.479629    0.001212
  21 H :    0.155471   -0.000039
  22 H :    0.149031   -0.000040
  23 H :    0.156668   -0.000060
  24 H :    0.191278    0.043395
  25 H :    0.123886   -0.038949
Sum of atomic charges         :   -1.0000000
Sum of atomic spin populations:    1.0000000

-----------------------------------------------------
MULLIKEN REDUCED ORBITAL CHARGES AND SPIN POPULATIONS
-----------------------------------------------------
CHARGE
  0 N s       :     3.365883  s :     3.365883
      pz      :     1.330110  p :     3.702130
      px      :     0.991328
      py      :     1.380691
      dz2     :     0.003772  d :     0.034471
      dxz     :     0.008933
      dyz     :     0.005435
      dx2y2   :     0.008979
      dxy     :     0.007353
  1 C s       :     3.184265  s :     3.184265
      pz      :     1.056005  p :     2.820699
      px      :     0.826803
      py      :     0.937891
      dz2     :     0.029736  d :     0.105418
      dxz     :     0.015781
      dyz     :     0.011040
      dx2y2   :     0.026100
      dxy     :     0.022762
  2 C s       :     3.098286  s :     3.098286
      pz      :     0.835204  p :     2.654188
      px      :     0.896172
      py      :     0.922812
      dz2     :     0.039859  d :     0.191607
      dxz     :     0.035557
      dyz     :     0.026288
      dx2y2   :     0.053482
      dxy     :     0.036420
  3 O s       :     3.924099  s :     3.924099
      pz      :     1.376367  p :     4.467523
      px      :     1.584227
      py      :     1.506929
      dz2     :     0.003387  d :     0.016947
      dxz     :     0.003094
      dyz     :     0.004680
      dx2y2   :     0.002217
      dxy     :     0.003569
  4 C s       :     3.237186  s :     3.237186
      pz      :     1.003301  p :     2.858015
      px      :     0.918951
      py      :     0.935762
      dz2     :     0.006488  d :     0.059752
      dxz     :     0.008428
      dyz     :     0.005570
      dx2y2   :     0.015924
      dxy     :     0.023341
  5 C s       :     3.214890  s :     3.214890
      pz      :     0.998831  p :     3.069484
      px      :     0.953938
      py      :     1.116716
      dz2     :     0.008845  d :     0.073011
      dxz     :     0.017241
      dyz     :     0.017145
      dx2y2   :     0.017076
      dxy     :     0.012704
  6 H s       :     0.847359  s :     0.847359
      pz      :     0.006201  p :     0.018951
      px      :     0.004762
      py      :     0.007989
  7 H s       :     0.835049  s :     0.835049
      pz      :     0.006333  p :     0.020172
      px      :     0.006089
      py      :     0.007751
  8 C s       :     3.080422  s :     3.080422
      pz      :     0.909756  p :     2.565351
      px      :     0.841573
      py      :     0.814022
      dz2     :     0.042084  d :     0.229026
      dxz     :     0.030281
      dyz     :     0.058945
      dx2y2   :     0.050784
      dxy     :     0.046932
  9 O s       :     3.875030  s :     3.875030
      pz      :     1.517972  p :     4.529538
      px      :     1.650334
      py      :     1.361232
      dz2     :     0.002375  d :     0.013977
      dxz     :     0.001673
      dyz     :     0.005795
      dx2y2   :     0.002390
      dxy     :     0.001745
 10 O s       :     3.905409  s :     3.905409
      pz      :     1.704434  p :     4.471782
      px      :     1.458129
      py      :     1.309219
      dz2     :     0.002251  d :     0.016609
      dxz     :     0.000968
      dyz     :     0.002908
      dx2y2   :     0.004704
      dxy     :     0.005778
 11 H s       :     0.719990  s :     0.719990
      pz      :     0.015338  p :     0.042917
      px      :     0.010071
      py      :     0.017509
 12 C s       :     3.047605  s :     3.047605
      pz      :     0.846718  p :     2.607727
      px      :     0.916632
      py      :     0.844376
      dz2     :     0.043680  d :     0.196132
      dxz     :     0.057568
      dyz     :     0.022318
      dx2y2   :     0.031013
      dxy     :     0.041553
 13 N s       :     3.381941  s :     3.381941
      pz      :     1.397576  p :     3.631767
      px      :     1.098748
      py      :     1.135443
      dz2     :     0.003168  d :     0.033797
      dxz     :     0.006345
      dyz     :     0.005578
      dx2y2   :     0.009315
      dxy     :     0.009391
 14 H s       :     0.665964  s :     0.665964
      pz      :     0.016409  p :     0.061348
      px      :     0.014644
      py      :     0.030295
 15 O s       :     3.902306  s :     3.902306
      pz      :     1.299964  p :     4.417070
      px      :     1.760094
      py      :     1.357012
      dz2     :     0.005098  d :     0.017957
      dxz     :     0.002325
      dyz     :     0.006643
      dx2y2   :     0.002330
      dxy     :     0.001560
 16 C s       :     3.228560  s :     3.228560
      pz      :     1.114789  p :     3.286336
      px      :     1.041869
      py      :     1.129679
      dz2     :     0.007551  d :     0.061729
      dxz     :     0.013399
      dyz     :     0.018098
      dx2y2   :     0.011345
      dxy     :     0.011335
 17 H s       :     0.808032  s :     0.808032
      pz      :     0.007332  p :     0.018722
      px      :     0.006364
      py      :     0.005026
 18 H s       :     0.835569  s :     0.835569
      pz      :     0.007519  p :     0.018820
      px      :     0.004646
      py      :     0.006656
 19 H s       :     0.807098  s :     0.807098
      pz      :     0.004849  p :     0.018788
      px      :     0.005815
      py      :     0.008124
 20 C s       :     3.199147  s :     3.199147
      pz      :     1.131168  p :     3.188771
      px      :     1.079445
      py      :     0.978158
      dz2     :     0.023081  d :     0.091710
      dxz     :     0.014570
      dyz     :     0.012782
      dx2y2   :     0.020975
      dxy     :     0.020302
 21 H s       :     0.827624  s :     0.827624
      pz      :     0.004752  p :     0.016905
      px      :     0.005503
      py      :     0.006651
 22 H s       :     0.833539  s :     0.833539
      pz      :     0.005643  p :     0.017429
      px      :     0.008248
      py      :     0.003539
 23 H s       :     0.826249  s :     0.826249
      pz      :     0.009653  p :     0.017084
      px      :     0.004139
      py      :     0.003291
 24 H s       :     0.788493  s :     0.788493
      pz      :     0.011270  p :     0.020230
      px      :     0.003731
      py      :     0.005229
 25 H s       :     0.854179  s :     0.854179
      pz      :     0.006587  p :     0.021935
      px      :     0.006655
      py      :     0.008693

SPIN
  0 N s       :     0.006480  s :     0.006480
      pz      :    -0.000166  p :     0.003936
      px      :     0.003235
      py      :     0.000868
      dz2     :     0.000052  d :    -0.000115
      dxz     :    -0.000108
      dyz     :     0.000000
      dx2y2   :    -0.000024
      dxy     :    -0.000035
  1 C s       :    -0.002140  s :    -0.002140
      pz      :    -0.019727  p :    -0.040518
      px      :    -0.005107
      py      :    -0.015684
      dz2     :     0.009268  d :     0.012460
      dxz     :     0.000791
      dyz     :     0.001812
      dx2y2   :     0.000114
      dxy     :     0.000475
  2 C s       :     0.006228  s :     0.006228
      pz      :     0.001373  p :     0.001738
      px      :    -0.001058
      py      :     0.001423
      dz2     :    -0.000016  d :    -0.000287
      dxz     :    -0.000077
      dyz     :    -0.000136
      dx2y2   :    -0.000068
      dxy     :     0.000009
  3 O s       :    -0.001600  s :    -0.001600
      pz      :     0.000848  p :     0.002221
      px      :     0.001301
      py      :     0.000072
      dz2     :     0.000002  d :     0.000007
[...]
                 1.8945               1.4421               1.9064
                 1.7581               1.9034              -1.3727

 A(FC)          -0.2431              -0.2431              -0.2431
 A(SD)          -1.3719              -2.6445               4.0164
 A(ORB+DIA)     -0.0018              -0.0009               0.0027    A(PC) =   0.0000
 A(ORB)         -0.0024              -0.0013               0.0024    A(PC) =  -0.0005
 A(DIA)          0.0007               0.0004               0.0004    A(PC) =   0.0005
             ----------           ----------           ----------
 A(Tot)         -1.6168              -2.8885               3.7760    A(iso)=   -0.2431
 Orientation: 
  X          -0.6481783           -0.5887520            0.4829451
  Y           0.6492586           -0.0958871            0.7544992
  Z          -0.3979047            0.8026062            0.4444042

Notes:  (1) The A matrix conforms to the "SAI" spin Hamiltonian convention.
        (2) Tensor is right-handed.

 -----------------------------------------------------------
 Nucleus  15O : A:ISTP=    1 I=  0.5 P=533.5514 MHz/au**3
                Q:ISTP=    2 I=  1.0 Q=  0.0029 barn     
 -----------------------------------------------------------
 Solving for nuclear perturbation:
Forming RHS of the CP-SCF equations         ... 
Calc. nucleus orbit integrals (SHARK)       ... done

------------------------------------------------------------------------------
                           ORCA CP-SCF CALCULATION
------------------------------------------------------------------------------

Input orbitals are from        ... epr_info.gbw
Input Perturbation             ... epr_info.pin.tmp
Wavefunction output            ... epr_info.pout.tmp
Perturbation mode              ... Imaginary perturbation
Solver                         ... POPLE
Max. number of iterations      ... 64
Convergence tolerance          ... 1.000e-03
Integral handling              ... Direct
DFT GridXC                     ... 1
COSX GridX                     ... 1
COSX IntAccX                   ... 3.067
COSX Algorithm                 ... Auto
Number of perturbations        ... 3
Number of operators            ... 2
Orbital ranges used for CP-SCF:
 Operator 0:  Orbitals   0... 53  to  54...321
 Operator 1:  Orbitals   0... 52  to  53...321
Variables per perturbation     ... 28729
DFT calculation                         ... on
XC functional terms                     ... off
Hybrid DFT                              ... on
   Exchange mixing (SCF)                ...  0.200
   Exchange mixing (CP-SCF)             ...  0.200
   GGA exch. scaling(SCF)               ...  0.720
   GGA exch. scaling (CP-SCF)           ...  0.720
   GGA corr. scaling (SCF)              ...  0.810
   GGA corr. scaling (CP-SCF)           ...  0.810

CP-SCF GRID
-----------

General Integration Accuracy     IntAcc      ... 3.467
Radial Grid Type                 RadialGrid  ... OptM3 with GC (2021)
Angular Grid (max. ang.)         AngularGrid ... 1 (Lebedev-50)
Angular grid pruning method      GridPruning ... 4 (adaptive)
Weight generation scheme         WeightScheme... Becke
Basis function cutoff            BFCut       ... 1.0000e-10
Integration weight cutoff        WCut        ... 1.0000e-14
Angular grids for H and He will be reduced by one unit
Partially contracted basis set               ... off
Rotationally invariant grid construction     ... off

Total number of grid points                  ...    17797
Total number of batches                      ...      290
Average number of points per batch           ...       61
Average number of grid points per atom       ...      684

CP-SCF GRIDX
------------

General Integration Accuracy     IntAcc      ... 3.067
Radial Grid Type                 RadialGrid  ... OptM3 with GC (2021)
Angular Grid (max. ang.)         AngularGrid ... 1 (Lebedev-50)
Angular grid pruning method      GridPruning ... 4 (adaptive)
Weight generation scheme         WeightScheme... Becke
Basis function cutoff            BFCut       ... 1.0000e-10
Integration weight cutoff        WCut        ... 1.0000e-14
Angular grids for H and He will be reduced by one unit
Partially contracted basis set               ... on
Rotationally invariant grid construction     ... off

Total number of grid points                  ...     8252
Total number of batches                      ...      143
Average number of points per batch           ...       57
Average number of grid points per atom       ...      317

Memory available               ... 931.5 MB
Memory needed per perturbation ...   6.5 MB
Perturbations treated per batch... 3
Number of batches              ... 1
     CP-SCF ITERATION   0:   3.1595e+00 (   0.4 sec   0/  3 done)
     CP-SCF ITERATION   1:   9.8238e-02 (   0.3 sec   0/  3 done)
     CP-SCF ITERATION   2:   4.2883e-03 (   0.3 sec   0/  3 done)
     CP-SCF ITERATION   3:   2.7802e-04 (   0.3 sec   3/  3 done)
                    *** THE CP-SCF HAS CONVERGED ***

Forming final perturbed densities           ... done
Transforming perturbed density to AO basis  ... done

 Raw HFC matrix (all values in MHz): 
 -----------------------------------
                 1.8264               2.7639               0.3097
                 2.7653               2.5521               3.8351
                 0.3057               3.8444               2.4482

 A(FC)           2.2654               2.2654               2.2654
 A(SD)          -0.5228              -4.4874               5.0102
 A(ORB+DIA)      0.0055               0.0256              -0.0007    A(PC) =   0.0101
 A(ORB)          0.0053               0.0256              -0.0007    A(PC) =   0.0101
 A(DIA)          0.0002               0.0000               0.0000    A(PC) =   0.0001
             ----------           ----------           ----------
 A(Tot)          1.7481              -2.1963               7.2749    A(iso)=    2.2756
 Orientation: 
  X           0.8094950            0.4368063           -0.3923241
  Y           0.0378261           -0.7056218           -0.7075783
  Z          -0.5859070            0.5579410           -0.5877200

Notes:  (1) The A matrix conforms to the "SAI" spin Hamiltonian convention.
        (2) Tensor is right-handed.

 -----------------------------------------------------------
 Nucleus  24H : A:ISTP=    1 I=  0.5 P=533.5514 MHz/au**3
                Q:ISTP=    2 I=  1.0 Q=  0.0029 barn     
 -----------------------------------------------------------
 Solving for nuclear perturbation:
Forming RHS of the CP-SCF equations         ... 
Calc. nucleus orbit integrals (SHARK)       ... done

------------------------------------------------------------------------------
                           ORCA CP-SCF CALCULATION
------------------------------------------------------------------------------

Input orbitals are from        ... epr_info.gbw
Input Perturbation             ... epr_info.pin.tmp
Wavefunction output            ... epr_info.pout.tmp
Perturbation mode              ... Imaginary perturbation
Solver                         ... POPLE
Max. number of iterations      ... 64
Convergence tolerance          ... 1.000e-03
Integral handling              ... Direct
DFT GridXC                     ... 1
COSX GridX                     ... 1
COSX IntAccX                   ... 3.067
COSX Algorithm                 ... Auto
Number of perturbations        ... 3
Number of operators            ... 2
Orbital ranges used for CP-SCF:
 Operator 0:  Orbitals   0... 53  to  54...321
 Operator 1:  Orbitals   0... 52  to  53...321
Variables per perturbation     ... 28729
DFT calculation                         ... on
XC functional terms                     ... off
Hybrid DFT                              ... on
   Exchange mixing (SCF)                ...  0.200
   Exchange mixing (CP-SCF)             ...  0.200
   GGA exch. scaling(SCF)               ...  0.720
   GGA exch. scaling (CP-SCF)           ...  0.720
   GGA corr. scaling (SCF)              ...  0.810
   GGA corr. scaling (CP-SCF)           ...  0.810

CP-SCF GRID
-----------

General Integration Accuracy     IntAcc      ... 3.467
Radial Grid Type                 RadialGrid  ... OptM3 with GC (2021)
Angular Grid (max. ang.)         AngularGrid ... 1 (Lebedev-50)
Angular grid pruning method      GridPruning ... 4 (adaptive)
Weight generation scheme         WeightScheme... Becke
Basis function cutoff            BFCut       ... 1.0000e-10
Integration weight cutoff        WCut        ... 1.0000e-14
Angular grids for H and He will be reduced by one unit
Partially contracted basis set               ... off
Rotationally invariant grid construction     ... off

Total number of grid points                  ...    17797
Total number of batches                      ...      290
Average number of points per batch           ...       61
Average number of grid points per atom       ...      684

CP-SCF GRIDX
------------

General Integration Accuracy     IntAcc      ... 3.067
Radial Grid Type                 RadialGrid  ... OptM3 with GC (2021)
Angular Grid (max. ang.)         AngularGrid ... 1 (Lebedev-50)
Angular grid pruning method      GridPruning ... 4 (adaptive)
Weight generation scheme         WeightScheme... Becke
Basis function cutoff            BFCut       ... 1.0000e-10
Integration weight cutoff        WCut        ... 1.0000e-14
Angular grids for H and He will be reduced by one unit
Partially contracted basis set               ... on
Rotationally invariant grid construction     ... off

Total number of grid points                  ...     8252
Total number of batches                      ...      143
Average number of points per batch           ...       57
Average number of grid points per atom       ...      317

Memory available               ... 931.2 MB
Memory needed per perturbation ...   6.5 MB
Perturbations treated per batch... 3
Number of batches              ... 1
     CP-SCF ITERATION   0:   4.4555e-02 (   0.3 sec   0/  3 done)
     CP-SCF ITERATION   1:   1.5979e-03 (   0.4 sec   0/  3 done)
     CP-SCF ITERATION   2:   1.2416e-04 (   0.4 sec   3/  3 done)
                    *** THE CP-SCF HAS CONVERGED ***

Forming final perturbed densities           ... done
Transforming perturbed density to AO basis  ... done

 Raw HFC matrix (all values in MHz): 
 -----------------------------------
               104.2650              -3.7053              -1.9896
                -3.7053             106.9315               4.4073
                -1.9919               4.4057             109.9901

 A(FC)         107.0612             107.0612             107.0612
 A(SD)          -5.5429              -1.9454               7.4884
 A(ORB+DIA)     -0.0027               0.0035               0.0022    A(PC) =   0.0010
 A(ORB)         -0.0035               0.0026               0.0018    A(PC) =   0.0003
 A(DIA)          0.0008               0.0008               0.0004    A(PC) =   0.0007
             ----------           ----------           ----------
 A(Tot)        101.5156             105.1193             114.5518    A(iso)=  107.0622
 Orientation: 
  X           0.7506585           -0.5583707           -0.3531769
  Y           0.6416533            0.4887290            0.5911218
  Z          -0.1574573           -0.6703478            0.7251490

Notes:  (1) The A matrix conforms to the "SAI" spin Hamiltonian convention.
        (2) Tensor is right-handed.

 -----------------------------------------------------------
 Nucleus  25H : A:ISTP=    1 I=  0.5 P=533.5514 MHz/au**3
                Q:ISTP=    2 I=  1.0 Q=  0.0029 barn     
 -----------------------------------------------------------
 Solving for nuclear perturbation:
Forming RHS of the CP-SCF equations         ... 
Calc. nucleus orbit integrals (SHARK)       ... done

------------------------------------------------------------------------------
                           ORCA CP-SCF CALCULATION
------------------------------------------------------------------------------

Input orbitals are from        ... epr_info.gbw
Input Perturbation             ... epr_info.pin.tmp
Wavefunction output            ... epr_info.pout.tmp
Perturbation mode              ... Imaginary perturbation
Solver                         ... POPLE
Max. number of iterations      ... 64
Convergence tolerance          ... 1.000e-03
Integral handling              ... Direct
DFT GridXC                     ... 1
COSX GridX                     ... 1
COSX IntAccX                   ... 3.067
COSX Algorithm                 ... Auto
Number of perturbations        ... 3
Number of operators            ... 2
Orbital ranges used for CP-SCF:
 Operator 0:  Orbitals   0... 53  to  54...321
 Operator 1:  Orbitals   0... 52  to  53...321
Variables per perturbation     ... 28729
DFT calculation                         ... on
XC functional terms                     ... off
Hybrid DFT                              ... on
   Exchange mixing (SCF)                ...  0.200
   Exchange mixing (CP-SCF)             ...  0.200
   GGA exch. scaling(SCF)               ...  0.720
   GGA exch. scaling (CP-SCF)           ...  0.720
   GGA corr. scaling (SCF)              ...  0.810
   GGA corr. scaling (CP-SCF)           ...  0.810

CP-SCF GRID
-----------

General Integration Accuracy     IntAcc      ... 3.467
Radial Grid Type                 RadialGrid  ... OptM3 with GC (2021)
Angular Grid (max. ang.)         AngularGrid ... 1 (Lebedev-50)
Angular grid pruning method      GridPruning ... 4 (adaptive)
Weight generation scheme         WeightScheme... Becke
Basis function cutoff            BFCut       ... 1.0000e-10
Integration weight cutoff        WCut        ... 1.0000e-14
Angular grids for H and He will be reduced by one unit
Partially contracted basis set               ... off
Rotationally invariant grid construction     ... off

Total number of grid points                  ...    17797
Total number of batches                      ...      290
Average number of points per batch           ...       61
Average number of grid points per atom       ...      684

CP-SCF GRIDX
------------

General Integration Accuracy     IntAcc      ... 3.067
Radial Grid Type                 RadialGrid  ... OptM3 with GC (2021)
Angular Grid (max. ang.)         AngularGrid ... 1 (Lebedev-50)
Angular grid pruning method      GridPruning ... 4 (adaptive)
Weight generation scheme         WeightScheme... Becke
Basis function cutoff            BFCut       ... 1.0000e-10
Integration weight cutoff        WCut        ... 1.0000e-14
Angular grids for H and He will be reduced by one unit
Partially contracted basis set               ... on
Rotationally invariant grid construction     ... off

Total number of grid points                  ...     8252
Total number of batches                      ...      143
Average number of points per batch           ...       57
Average number of grid points per atom       ...      317

Memory available               ... 930.8 MB
Memory needed per perturbation ...   6.5 MB
Perturbations treated per batch... 3
Number of batches              ... 1
     CP-SCF ITERATION   0:   6.5315e-02 (   0.3 sec   0/  3 done)
     CP-SCF ITERATION   1:   2.3697e-03 (   0.4 sec   0/  3 done)
     CP-SCF ITERATION   2:   1.8362e-04 (   0.4 sec   3/  3 done)
                    *** THE CP-SCF HAS CONVERGED ***

Forming final perturbed densities           ... done
Transforming perturbed density to AO basis  ... done

 Raw HFC matrix (all values in MHz): 
 -----------------------------------
               -59.9940              30.9431               8.7717
                30.9452             -31.9228              -5.2963
                 8.7707              -5.2947             -53.6082

 A(FC)         -48.5174             -48.5174             -48.5174
 A(SD)          36.5333              -1.5756             -34.9577
 A(ORB+DIA)      0.0064              -0.0028               0.0235    A(PC) =   0.0090
 A(ORB)          0.0016               0.0005               0.0241    A(PC) =   0.0087
 A(DIA)          0.0048              -0.0033              -0.0006    A(PC) =   0.0003
             ----------           ----------           ----------
 A(Tot)        -11.9777             -50.0957             -83.4516    A(iso)=  -48.5083
 Orientation: 
  X           0.5426472           -0.2688416           -0.7957752
  Y           0.8399275            0.1821059            0.5112331
  Z           0.0074746           -0.9458127            0.3246266

Notes:  (1) The A matrix conforms to the "SAI" spin Hamiltonian convention.
        (2) Tensor is right-handed.


--------------------------------------------------------------------------------
----------------------------------------------------------------------------
                           ORCA EULER ANGLE PROGRAM
----------------------------------------------------------------------------

Only g-tensor available        -->  using g-tensor as reference tensor

Reference tensor               ...  g

g-tensor ordering              ...  |g_min> --> |gx>
                                    |g_mid> --> |gy>
                                    |g_max> --> |gz>

A- and EFG-tensor ordering     ...  the axes |Ax>, |Qx>, |Ay>, etc. are assigned
                                    such that the Euler rotation is minimal. You
                                    can find the respective eigenvalues as Ax,
                                    EFGx, Ay, etc. in the tables below.
                                    The relation of |Ax>, |Ay>,  etc. to Amin, Amid, etc.
                                    (as printed in the ORCA EPR/NMR CALCULATION Output)
                                    is obtained in the detailed printout.

Euler rotation around          ...  z - y - z
   First rotation              -->  by alpha around z
   Second rotation             -->  by beta around y'
   Third rotation              -->  by gamma around z''
   Positive / Negative angle   -->  clockwise / counterclockwise rotation

Plot EFG-tensors                    (-)
Plot HFC-tensors                    (-)
Detailed Printout                   (-)

-------------------------------------------------------------------------
          Euler rotation of hyperfine tensor to g-tensor
-------------------------------------------------------------------------

-------------------------------------------------------------------
 Atom  |   Alpha    Beta    Gamma   |   Ax       Ay       Az 
       |          [degrees]         |           [MHz]         
-------------------------------------------------------------------
  0N      -44.6     43.7     85.7     109.65   111.03   137.15
  3O       33.9     48.2    -38.7       7.87    -0.95    -4.06
  6H      116.9     43.6   -124.4       9.37    20.89     8.09
  7H      146.8     14.5    169.8      63.60    63.41    76.34
  9O      156.3      7.4   -177.8      61.30    -6.83   -11.24
 10O      122.5     23.5   -122.1     122.97    -8.85   -21.16
 11H       72.3     32.1    -98.1      -3.22     4.21    -3.85
 13N      -48.7     40.9     41.2      11.12    19.66    12.10
 14H       37.9     45.0    -76.1      -2.89    -1.62     3.78
 15O     -110.0     40.6    138.9      -2.20     7.27     1.75
 24H      162.7     25.4   -139.0     105.12   114.55   101.52
 25H      112.0     39.4   -114.3     -50.10   -83.45   -11.98
-------------------------------------------------------------------


Maximum memory used throughout the entire EPRNMR-calculation: 120.8 MB

Timings for individual modules:

Sum of individual times         ...      316.896 sec (=   5.282 min)
GTO integral calculation        ...        3.311 sec (=   0.055 min)   1.0 %
Spin-Orbit-Coupling Matrices    ...        4.266 sec (=   0.071 min)   1.3 %
SCF iterations                  ...       20.513 sec (=   0.342 min)   6.5 %
EPR/NMR calculation             ...      288.807 sec (=   4.813 min)  91.1 %
                             ****ORCA TERMINATED NORMALLY****
TOTAL RUN TIME: 0 days 0 hours 5 minutes 19 seconds 466 msec
