
                                 *****************
                                 * O   R   C   A *
                                 *****************

                                            #,                                       
                                            ###                                      
                                            ####                                     
                                            #####                                    
                                            ######                                   
                                           ########,                                 
                                     ,,################,,,,,                         
                               ,,#################################,,                 
                          ,,##########################################,,             
                       ,#########################################, ''#####,          
                    ,#############################################,,   '####,        
                  ,##################################################,,,,####,       
                ,###########''''           ''''###############################       
              ,#####''   ,,,,##########,,,,          '''####'''          '####       
            ,##' ,,,,###########################,,,                        '##       
           ' ,,###''''                  '''############,,,                           
         ,,##''                                '''############,,,,        ,,,,,,###''
      ,#''                                            '''#######################'''  
     '                                                          ''''####''''         
             ,#######,   #######,   ,#######,      ##                                
            ,#'     '#,  ##    ##  ,#'     '#,    #''#        ######   ,####,        
            ##       ##  ##   ,#'  ##            #'  '#       #        #'  '#        
            ##       ##  #######   ##           ,######,      #####,   #    #        
            '#,     ,#'  ##    ##  '#,     ,#' ,#      #,         ##   #,  ,#        
             '#######'   ##     ##  '#######'  #'      '#     #####' # '####'        



                  #######################################################
                  #                        -***-                        #
                  #          Department of theory and spectroscopy      #
                  #    Directorship and core code : Frank Neese         #
                  #        Max Planck Institute fuer Kohlenforschung    #
                  #                Kaiser Wilhelm Platz 1               #
                  #                 D-45470 Muelheim/Ruhr               #
                  #                      Germany                        #
                  #                                                     #
                  #                  All rights reserved                #
                  #                        -***-                        #
                  #######################################################


                         Program Version 5.0.4 -  RELEASE  -


 With contributions from (in alphabetic order):
   Daniel Aravena         : Magnetic Suceptibility
   Michael Atanasov       : Ab Initio Ligand Field Theory (pilot matlab implementation)
   Alexander A. Auer      : GIAO ZORA, VPT2 properties, NMR spectrum
   Ute Becker             : Parallelization
   Giovanni Bistoni       : ED, misc. LED, open-shell LED, HFLD
   Martin Brehm           : Molecular dynamics
   Dmytro Bykov           : SCF Hessian
   Vijay G. Chilkuri      : MRCI spin determinant printing, contributions to CSF-ICE
   Dipayan Datta          : RHF DLPNO-CCSD density
   Achintya Kumar Dutta   : EOM-CC, STEOM-CC
   Dmitry Ganyushin       : Spin-Orbit,Spin-Spin,Magnetic field MRCI
   Miquel Garcia          : C-PCM and meta-GGA Hessian, CC/C-PCM, Gaussian charge scheme
   Yang Guo               : DLPNO-NEVPT2, F12-NEVPT2, CIM, IAO-localization
   Andreas Hansen         : Spin unrestricted coupled pair/coupled cluster methods
   Benjamin Helmich-Paris : MC-RPA, TRAH-SCF, COSX integrals
   Lee Huntington         : MR-EOM, pCC
   Robert Izsak           : Overlap fitted RIJCOSX, COSX-SCS-MP3, EOM
   Marcus Kettner         : VPT2
   Christian Kollmar      : KDIIS, OOCD, Brueckner-CCSD(T), CCSD density, CASPT2, CASPT2-K
   Simone Kossmann        : Meta GGA functionals, TD-DFT gradient, OOMP2, MP2 Hessian
   Martin Krupicka        : Initial AUTO-CI
   Lucas Lang             : DCDCAS
   Marvin Lechner         : AUTO-CI (C++ implementation), FIC-MRCC
   Dagmar Lenk            : GEPOL surface, SMD
   Dimitrios Liakos       : Extrapolation schemes; Compound Job, initial MDCI parallelization
   Dimitrios Manganas     : Further ROCIS development; embedding schemes
   Dimitrios Pantazis     : SARC Basis sets
   Anastasios Papadopoulos: AUTO-CI, single reference methods and gradients
   Taras Petrenko         : DFT Hessian,TD-DFT gradient, ASA, ECA, R-Raman, ABS, FL, XAS/XES, NRVS
   Peter Pinski           : DLPNO-MP2, DLPNO-MP2 Gradient
   Christoph Reimann      : Effective Core Potentials
   Marius Retegan         : Local ZFS, SOC
   Christoph Riplinger    : Optimizer, TS searches, QM/MM, DLPNO-CCSD(T), (RO)-DLPNO pert. Triples
   Tobias Risthaus        : Range-separated hybrids, TD-DFT gradient, RPA, STAB
   Michael Roemelt        : Original ROCIS implementation
   Masaaki Saitow         : Open-shell DLPNO-CCSD energy and density
   Barbara Sandhoefer     : DKH picture change effects
   Avijit Sen             : IP-ROCIS
   Kantharuban Sivalingam : CASSCF convergence, NEVPT2, FIC-MRCI
   Bernardo de Souza      : ESD, SOC TD-DFT
   Georgi Stoychev        : AutoAux, RI-MP2 NMR, DLPNO-MP2 response
   Willem Van den Heuvel  : Paramagnetic NMR
   Boris Wezisla          : Elementary symmetry handling
   Frank Wennmohs         : Technical directorship


 We gratefully acknowledge several colleagues who have allowed us to
 interface, adapt or use parts of their codes:
   Stefan Grimme, W. Hujo, H. Kruse, P. Pracht,  : VdW corrections, initial TS optimization,
                  C. Bannwarth, S. Ehlert          DFT functionals, gCP, sTDA/sTD-DF
   Ed Valeev, F. Pavosevic, A. Kumar             : LibInt (2-el integral package), F12 methods
   Garnet Chan, S. Sharma, J. Yang, R. Olivares  : DMRG
   Ulf Ekstrom                                   : XCFun DFT Library
   Mihaly Kallay                                 : mrcc  (arbitrary order and MRCC methods)
   Jiri Pittner, Ondrej Demel                    : Mk-CCSD
   Frank Weinhold                                : gennbo (NPA and NBO analysis)
   Christopher J. Cramer and Donald G. Truhlar   : smd solvation model
   Lars Goerigk                                  : TD-DFT with DH, B97 family of functionals
   V. Asgeirsson, H. Jonsson                     : NEB implementation
   FAccTs GmbH                                   : IRC, NEB, NEB-TS, DLPNO-Multilevel, CI-OPT
                                                   MM, QMMM, 2- and 3-layer-ONIOM, Crystal-QMMM,
                                                   LR-CPCM, SF, NACMEs, symmetry and pop. for TD-DFT,
                                                   nearIR, NL-DFT gradient (VV10), updates on ESD,
                                                   ML-optimized integration grids
   S Lehtola, MJT Oliveira, MAL Marques          : LibXC Library
   Liviu Ungur et al                             : ANISO software


 Your calculation uses the libint2 library for the computation of 2-el integrals
 For citations please refer to: http://libint.valeyev.net

 Your ORCA version has been built with support for libXC version: 5.1.0
 For citations please refer to: https://tddft.org/programs/libxc/

 This ORCA versions uses:
   CBLAS   interface :  Fast vector & matrix operations
   LAPACKE interface :  Fast linear algebra routines
   SCALAPACK package :  Parallel linear algebra routines
   Shared memory     :  Shared parallel matrices
   BLAS/LAPACK       :  OpenBLAS 0.3.15  USE64BITINT DYNAMIC_ARCH NO_AFFINITY Zen SINGLE_THREADED
        Core in use  :  Zen
   Copyright (c) 2011-2014, The OpenBLAS Project




***************************************
The coordinates will be read from file: opt.xyz
***************************************


XCFun DFT library Copyright 2009-2010 Ulf Ekstrom and contributors.
See http://admol.org/xcfun for more information.
This is free software; see the source code for copying conditions.
There is ABSOLUTELY NO WARRANTY; not even for MERCHANTABILITY or FITNESS FOR A PARTICULAR PURPOSE.
For details see the documentation.
Scientific users of this library should cite U. Ekstrom, L. Visscher, R. Bast, A. J. Thorvaldsen and K. Ruud;
J.Chem.Theor.Comp. 2010, DOI: 10.1021/ct100117s
XCFun Version 0.99 

================================================================================

----- Orbital basis set information -----
Your calculation utilizes the basis: def2-TZVP
   F. Weigend and R. Ahlrichs, Phys. Chem. Chem. Phys. 7, 3297 (2005).

----- AuxJ basis set information -----
Your calculation utilizes the auxiliary basis: def2/J
   F. Weigend, Phys. Chem. Chem. Phys. 8, 1057 (2006).

================================================================================
                                        WARNINGS
                       Please study these warnings very carefully!
================================================================================


WARNING: your system is open-shell and RHF/RKS was chosen
  ===> : WILL SWITCH to UHF/UKS


WARNING: Geometry Optimization
  ===> : Switching off AutoStart
         For restart on a previous wavefunction, please use MOREAD

WARNING: Minnesota functionals are quite sensitive to the integration grid.
         see SE Wheeler, KN Houk, JCTC 2010, 6, 395,
             N Mardirossian, M Head-Gordon, JCTC 2016, 12, 4303.
         DEFGRID3 seems to be a minimum grid for reliable results with these functionals!
  ===> : Please increase the integration grid!


INFO   : the flag for use of the SHARK integral package has been found!

================================================================================
                                       INPUT FILE
================================================================================
NAME = freq.inp
|  1> ! M062X def2-TZVP OPT FREQ
|  2> %pal nprocs 16 end
|  3> *XYZFile -1 2 opt.xyz
|  4> 
|  5>                          ****END OF INPUT****
================================================================================

                       *****************************
                       * Geometry Optimization Run *
                       *****************************

Geometry optimization settings:
Update method            Update   .... BFGS
Choice of coordinates    CoordSys .... Z-matrix Internals
Initial Hessian          InHess   .... Almoef's Model

Convergence Tolerances:
Energy Change            TolE     ....  5.0000e-06 Eh
Max. Gradient            TolMAXG  ....  3.0000e-04 Eh/bohr
RMS Gradient             TolRMSG  ....  1.0000e-04 Eh/bohr
Max. Displacement        TolMAXD  ....  4.0000e-03 bohr
RMS Displacement         TolRMSD  ....  2.0000e-03 bohr
Strict Convergence                ....  False
------------------------------------------------------------------------------
                        ORCA OPTIMIZATION COORDINATE SETUP
------------------------------------------------------------------------------

The optimization will be done in new redundant internal coordinates
Making redundant internal coordinates   ...  (new redundants) done
Evaluating the initial hessian          ...  (Almloef) done
Evaluating the coordinates              ...  done
Calculating the B-matrix                .... done
Calculating the G-matrix                .... done
Diagonalizing the G-matrix              .... done
Small eigenvalue found = 7.673e-03
Small eigenvalue found = 1.343e-02
Small eigenvalue found = 1.891e-02
The first mode is                       ....   45
The number of degrees of freedom        ....   72

    -----------------------------------------------------------------
                    Redundant Internal Coordinates


    -----------------------------------------------------------------
         Definition                    Initial Value    Approx d2E/dq
    -----------------------------------------------------------------
      1. B(C   1,N   0)                  1.4639         0.426485   
      2. B(C   2,C   1)                  1.5549         0.340952   
      3. B(O   3,C   2)                  1.2468         0.947084   
      4. B(C   4,C   1)                  1.5183         0.389924   
      5. B(C   5,C   4)                  1.4927         0.428454   
      6. B(H   6,C   5)                  1.0925         0.356806   
      7. B(H   7,C   5)                  1.0993         0.348018   
      8. B(C   8,C   5)                  1.6014         0.287425   
      9. B(O   9,C   8)                  1.2781         0.844241   
     10. B(O  10,C   8)                  1.2419         0.964105   
     11. B(H  11,N   0)                  1.0138         0.426692   
     12. B(C  12,N   0)                  1.3565         0.632877   
     13. B(N  13,C   2)                  1.3426         0.666154   
     14. B(H  14,N  13)                  1.0660         0.352285   
     15. B(O  15,C  12)                  1.2345         0.990793   
     16. B(C  16,C  12)                  1.5339         0.368308   
     17. B(H  17,C  16)                  1.0937         0.355176   
     18. B(H  18,C  16)                  1.0939         0.354997   
     19. B(H  19,C  16)                  1.0940         0.354869   
     20. B(C  20,N  13)                  1.4534         0.443317   
     21. B(H  21,C  20)                  1.0964         0.351702   
     22. B(H  22,C  20)                  1.0927         0.356590   
     23. B(H  23,C  20)                  1.0971         0.350775   
     24. B(H  24,C   1)                  1.1004         0.346596   
     25. B(H  25,C   4)                  1.0890         0.361388   
     26. A(C   1,N   0,C  12)          125.2080         0.402306   
     27. A(C   1,N   0,H  11)          112.5802         0.335989   
     28. A(H  11,N   0,C  12)          120.6891         0.359069   
     29. A(C   4,C   1,H  24)          109.3568         0.324564   
     30. A(N   0,C   1,C   2)          105.6505         0.363636   
     31. A(N   0,C   1,C   4)          111.5414         0.372106   
     32. A(C   2,C   1,C   4)          113.5458         0.360354   
     33. A(C   2,C   1,H  24)          108.2828         0.317517   
     34. A(N   0,C   1,H  24)          108.2588         0.327414   
     35. A(C   1,C   2,N  13)          114.5201         0.392803   
     36. A(O   3,C   2,N  13)          124.7931         0.468690   
     37. A(C   1,C   2,O   3)          120.6862         0.417988   
     38. A(C   1,C   4,C   5)          124.8029         0.374753   
     39. A(C   1,C   4,H  25)          113.5633         0.326803   
     40. A(C   5,C   4,H  25)          117.8570         0.331930   
     41. A(C   4,C   5,H   7)          111.1560         0.329866   
     42. A(C   4,C   5,H   6)          109.9089         0.331229   
     43. A(H   7,C   5,C   8)          105.8004         0.309056   
     44. A(H   6,C   5,C   8)          106.8639         0.310301   
     45. A(C   4,C   5,C   8)          114.3690         0.355693   
     46. A(H   6,C   5,H   7)          108.4674         0.288870   
     47. A(O   9,C   8,O  10)          128.3952         0.491224   
     48. A(C   5,C   8,O  10)          116.4796         0.406792   
     49. A(C   5,C   8,O   9)          115.1217         0.397385   
     50. A(O  15,C  12,C  16)          120.5073         0.427221   
     51. A(N   0,C  12,C  16)          114.9781         0.394591   
     52. A(N   0,C  12,O  15)          124.5084         0.468163   
     53. A(H  14,N  13,C  20)          120.2298         0.327587   
     54. A(C   2,N  13,C  20)          120.7262         0.408750   
     55. A(C   2,N  13,H  14)          117.2925         0.350623   
     56. A(H  18,C  16,H  19)          109.2269         0.289523   
     57. A(H  17,C  16,H  19)          107.7208         0.289546   
     58. A(C  12,C  16,H  19)          108.3394         0.322788   
     59. A(H  17,C  16,H  18)          109.3904         0.289562   
     60. A(C  12,C  16,H  18)          113.6117         0.322807   
     61. A(C  12,C  16,H  17)          108.3842         0.322834   
     62. A(H  22,C  20,H  23)          109.1163         0.289200   
     63. A(H  21,C  20,H  23)          107.4738         0.288576   
     64. A(N  13,C  20,H  23)          111.6663         0.330165   
     65. A(H  21,C  20,H  22)          108.9422         0.289320   
     66. A(N  13,C  20,H  22)          108.2506         0.331064   
     67. A(N  13,C  20,H  21)          111.3426         0.330309   
     68. D(H  24,C   1,N   0,C  12)    -29.5306         0.015508   
     69. D(C   4,C   1,N   0,H  11)   -103.2497         0.015508   
     70. D(C   2,C   1,N   0,H  11)     20.5717         0.015508   
     71. D(H  24,C   1,N   0,H  11)    136.3880         0.015508   
     72. D(C   4,C   1,N   0,C  12)     90.8317         0.015508   
     73. D(C   2,C   1,N   0,C  12)   -145.3469         0.015508   
     74. D(O   3,C   2,C   1,N   0)    -16.4511         0.008828   
     75. D(N  13,C   2,C   1,N   0)    163.2897         0.008828   
     76. D(O   3,C   2,C   1,H  24)   -132.2510         0.008828   
     77. D(N  13,C   2,C   1,C   4)    -74.1612         0.008828   
     78. D(N  13,C   2,C   1,H  24)     47.4897         0.008828   
     79. D(O   3,C   2,C   1,C   4)    106.0980         0.008828   
     80. D(C   5,C   4,C   1,C   2)     41.3717         0.011312   
     81. D(C   5,C   4,C   1,H  24)    -79.6784         0.011312   
     82. D(C   5,C   4,C   1,N   0)    160.6060         0.011312   
     83. D(H  25,C   4,C   1,H  24)     77.8356         0.011312   
     84. D(H  25,C   4,C   1,C   2)   -161.1143         0.011312   
     85. D(H  25,C   4,C   1,N   0)    -41.8800         0.011312   
     86. D(C   8,C   5,C   4,H  25)    -90.5342         0.013560   
     87. D(C   8,C   5,C   4,C   1)     66.1051         0.013560   
     88. D(H   7,C   5,C   4,H  25)    149.7421         0.013560   
     89. D(H   7,C   5,C   4,C   1)    -53.6185         0.013560   
     90. D(H   6,C   5,C   4,H  25)     29.6492         0.013560   
     91. D(H   6,C   5,C   4,C   1)   -173.7115         0.013560   
     92. D(O  10,C   8,C   5,H   7)   -120.7342         0.006571   
     93. D(O  10,C   8,C   5,H   6)     -5.2808         0.006571   
     94. D(O  10,C   8,C   5,C   4)    116.5857         0.006571   
     95. D(O   9,C   8,C   5,H   7)     58.6415         0.006571   
     96. D(O   9,C   8,C   5,H   6)    174.0949         0.006571   
     97. D(O   9,C   8,C   5,C   4)    -64.0386         0.006571   
     98. D(O  15,C  12,N   0,C   1)     -5.7338         0.032540   
     99. D(C  16,C  12,N   0,H  11)     10.3181         0.032540   
    100. D(C  16,C  12,N   0,C   1)    175.1747         0.032540   
    101. D(O  15,C  12,N   0,H  11)   -170.5903         0.032540   
    102. D(C  20,N  13,C   2,O   3)     -5.2191         0.036375   
    103. D(C  20,N  13,C   2,C   1)    175.0524         0.036375   
    104. D(H  14,N  13,C   2,O   3)   -170.1776         0.036375   
    105. D(H  14,N  13,C   2,C   1)     10.0939         0.036375   
    106. D(H  19,C  16,C  12,O  15)    -59.7495         0.010165   
    107. D(H  19,C  16,C  12,N   0)    119.3816         0.010165   
    108. D(H  18,C  16,C  12,O  15)    178.6811         0.010165   
    109. D(H  18,C  16,C  12,N   0)     -2.1878         0.010165   
    110. D(H  17,C  16,C  12,O  15)     56.8710         0.010165   
    111. D(H  17,C  16,C  12,N   0)   -123.9979         0.010165   
    112. D(H  23,C  20,N  13,H  14)    110.9582         0.016760   
    113. D(H  23,C  20,N  13,C   2)    -53.5603         0.016760   
    114. D(H  22,C  20,N  13,H  14)     -9.1776         0.016760   
    115. D(H  22,C  20,N  13,C   2)   -173.6961         0.016760   
    116. D(H  21,C  20,N  13,H  14)   -128.9019         0.016760   
    117. D(H  21,C  20,N  13,C   2)     66.5796         0.016760   
    -----------------------------------------------------------------

Number of atoms                         .... 26
Number of degrees of freedom            .... 117

         *************************************************************
         *                GEOMETRY OPTIMIZATION CYCLE   1            *
         *************************************************************
---------------------------------
CARTESIAN COORDINATES (ANGSTROEM)
---------------------------------
  N     -1.956213    0.056226   -0.349043
  C     -0.548821   -0.028117    0.044993
  C      0.071541    1.350862   -0.317221
  O     -0.515257    2.127691   -1.096093
  C      0.147659   -1.200663   -0.622397
  C      1.626082   -1.338837   -0.775019
  H      1.856769   -2.214616   -1.386046
  H      2.059502   -0.452311   -1.259433
  C      2.419369   -1.513246    0.605067
  O      2.354866   -0.513078    1.398127
  O      3.023772   -2.586385    0.764564
  H     -2.126413    0.786803   -1.031027
  C     -2.987746   -0.536305    0.302835
  N      1.248909    1.605190    0.275712
  H      1.721175    0.799812    0.790132
  O     -2.860567   -1.308073    1.257907
  C     -4.379894   -0.199066   -0.245740
  H     -4.982467    0.209880    0.570319
  H     -4.362937    0.512374   -1.076493
  H     -4.853824   -1.127928   -0.576506
  C      1.999677    2.806579   -0.048946
  H      1.472229    3.708648    0.283039
  H      2.965996    2.753778    0.458360
  H      2.165745    2.900876   -1.129339
  H     -0.503455   -0.150770    1.137599
  H     -0.453289   -2.108595   -0.644825

----------------------------
CARTESIAN COORDINATES (A.U.)
----------------------------
  NO LB      ZA    FRAG     MASS         X           Y           Z
   0 N     7.0000    0    14.007   -3.696706    0.106251   -0.659596
   1 C     6.0000    0    12.011   -1.037122   -0.053134    0.085025
   2 C     6.0000    0    12.011    0.135192    2.552759   -0.599461
   3 O     8.0000    0    15.999   -0.973695    4.020753   -2.071316
   4 C     6.0000    0    12.011    0.279034   -2.268924   -1.176161
   5 C     6.0000    0    12.011    3.072850   -2.530036   -1.464573
   6 H     1.0000    0     1.008    3.508784   -4.185018   -2.619248
   7 H     1.0000    0     1.008    3.891895   -0.854744   -2.379983
   8 C     6.0000    0    12.011    4.571945   -2.859620    1.143411
   9 O     8.0000    0    15.999    4.450052   -0.969577    2.642078
  10 O     8.0000    0    15.999    5.714100   -4.887560    1.444817
  11 H     1.0000    0     1.008   -4.018338    1.486842   -1.948359
  12 C     6.0000    0    12.011   -5.646021   -1.013469    0.572275
  13 N     7.0000    0    14.007    2.360095    3.033370    0.521020
  14 H     1.0000    0     1.008    3.252549    1.511425    1.493133
  15 O     8.0000    0    15.999   -5.405689   -2.471900    2.377100
  16 C     6.0000    0    12.011   -8.276800   -0.376180   -0.464382
  17 H     1.0000    0     1.008   -9.415499    0.396616    1.077746
  18 H     1.0000    0     1.008   -8.244756    0.968247   -2.034277
  19 H     1.0000    0     1.008   -9.172398   -2.131475   -1.089438
  20 C     6.0000    0    12.011    3.778842    5.303665   -0.092494
  21 H     1.0000    0     1.008    2.782109    7.008328    0.534866
  22 H     1.0000    0     1.008    5.604921    5.203887    0.866176
  23 H     1.0000    0     1.008    4.092665    5.481861   -2.134142
  24 H     1.0000    0     1.008   -0.951391   -0.284914    2.149751
  25 H     1.0000    0     1.008   -0.856593   -3.984667   -1.218542

--------------------------------
INTERNAL COORDINATES (ANGSTROEM)
--------------------------------
 N      0   0   0     0.000000000000     0.00000000     0.00000000
 C      1   0   0     1.463942926564     0.00000000     0.00000000
 C      2   1   0     1.554873398915   105.65049103     0.00000000
 O      3   2   1     1.246770691201   120.68621229   343.54890833
 C      2   1   3     1.518340536055   111.54138802   236.17859808
 C      5   2   1     1.492689345460   124.80291322   160.60596931
 H      6   5   2     1.092501704899   109.90893809   186.28850871
 H      6   5   2     1.099289736819   111.15602624   306.38146769
 C      6   5   2     1.601361646778   114.36904430    66.10512993
 O      9   6   5     1.278061226593   115.12168129   295.96139301
 O      9   6   5     1.241922066641   116.47958666   116.58570000
 H      1   2   3     1.013811000574   112.58024582    20.57167673
 C      1   2   3     1.356502248881   125.20803740   214.65312971
 N      3   2   1     1.342552489260   114.52012845   163.28969080
 H     14   3   2     1.065972838813   117.29245322    10.09387955
 O     13   1   2     1.234489215567   124.50837076   354.26624038
 C     13   1   2     1.533865148229   114.97813263   175.17467377
 H     17  13   1     1.093747828902   108.38421227   236.00209930
 H     17  13   1     1.093885214735   113.61170872   357.81224994
 H     17  13   1     1.093983557463   108.33939441   119.38161412
 C     14   3   2     1.453406365583   120.72624945   175.05237192
 H     21  14   3     1.096423365504   111.34260683    66.57959552
 H     21  14   3     1.092666357112   108.25059680   186.30386690
 H     21  14   3     1.097142097174   111.66628932   306.43969129
 H      2   1   3     1.100404436193   108.25882388   115.81628543
 H      5   2   1     1.089027983561   113.56325321   318.12000340

---------------------------
INTERNAL COORDINATES (A.U.)
---------------------------
 N      0   0   0     0.000000000000     0.00000000     0.00000000
 C      1   0   0     2.766451206898     0.00000000     0.00000000
 C      2   1   0     2.938284896868   105.65049103     0.00000000
 O      3   2   1     2.356055158169   120.68621229   343.54890833
 C      2   1   3     2.869247791175   111.54138802   236.17859808
 C      5   2   1     2.820774065942   124.80291322   160.60596931
 H      6   5   2     2.064529023101   109.90893809   186.28850871
 H      6   5   2     2.077356544418   111.15602624   306.38146769
 C      6   5   2     3.026134953775   114.36904430    66.10512993
 O      9   6   5     2.415185700644   115.12168129   295.96139301
 O      9   6   5     2.346892585625   116.47958666   116.58570000
 H      1   2   3     1.915825142641   112.58024582    20.57167673
 C      1   2   3     2.563417750433   125.20803740   214.65312971
 N      3   2   1     2.537056525115   114.52012845   163.28969080
 H     14   3   2     2.014396731554   117.29245322    10.09387955
 O     13   1   2     2.332846532701   124.50837076   354.26624038
 C     13   1   2     2.898585056519   114.97813263   175.17467377
 H     17  13   1     2.066883856195   108.38421227   236.00209930
 H     17  13   1     2.067143477794   113.61170872   357.81224994
 H     17  13   1     2.067329318617   108.33939441   119.38161412
 C     14   3   2     2.746539992250   120.72624945   175.05237192
 H     21  14   3     2.071939887635   111.34260683    66.57959552
 H     21  14   3     2.064840170692   108.25059680   186.30386690
 H     21  14   3     2.073298093654   111.66628932   306.43969129
 H      2   1   3     2.079463020956   108.25882388   115.81628543
 H      5   2   1     2.057964641107   113.56325321   318.12000340

---------------------
BASIS SET INFORMATION
---------------------
There are 4 groups of distinct atoms

 Group   1 Type N   : 11s6p2d1f contracted to 5s3p2d1f pattern {62111/411/11/1}
 Group   2 Type C   : 11s6p2d1f contracted to 5s3p2d1f pattern {62111/411/11/1}
 Group   3 Type O   : 11s6p2d1f contracted to 5s3p2d1f pattern {62111/411/11/1}
 Group   4 Type H   : 5s1p contracted to 3s1p pattern {311/1}

Atom   0N    basis set group =>   1
Atom   1C    basis set group =>   2
Atom   2C    basis set group =>   2
Atom   3O    basis set group =>   3
Atom   4C    basis set group =>   2
Atom   5C    basis set group =>   2
Atom   6H    basis set group =>   4
Atom   7H    basis set group =>   4
Atom   8C    basis set group =>   2
Atom   9O    basis set group =>   3
Atom  10O    basis set group =>   3
Atom  11H    basis set group =>   4
Atom  12C    basis set group =>   2
Atom  13N    basis set group =>   1
Atom  14H    basis set group =>   4
Atom  15O    basis set group =>   3
Atom  16C    basis set group =>   2
Atom  17H    basis set group =>   4
Atom  18H    basis set group =>   4
Atom  19H    basis set group =>   4
Atom  20C    basis set group =>   2
Atom  21H    basis set group =>   4
Atom  22H    basis set group =>   4
Atom  23H    basis set group =>   4
Atom  24H    basis set group =>   4
Atom  25H    basis set group =>   4
---------------------------------
AUXILIARY/J BASIS SET INFORMATION
---------------------------------
There are 4 groups of distinct atoms

 Group   1 Type N   : 12s5p4d2f1g contracted to 6s4p3d1f1g pattern {711111/2111/211/2/1}
 Group   2 Type C   : 12s5p4d2f1g contracted to 6s4p3d1f1g pattern {711111/2111/211/2/1}
 Group   3 Type O   : 12s5p4d2f1g contracted to 6s4p3d1f1g pattern {711111/2111/211/2/1}
 Group   4 Type H   : 5s2p1d contracted to 3s1p1d pattern {311/2/1}

Atom   0N    basis set group =>   1
Atom   1C    basis set group =>   2
Atom   2C    basis set group =>   2
Atom   3O    basis set group =>   3
Atom   4C    basis set group =>   2
Atom   5C    basis set group =>   2
Atom   6H    basis set group =>   4
Atom   7H    basis set group =>   4
Atom   8C    basis set group =>   2
Atom   9O    basis set group =>   3
Atom  10O    basis set group =>   3
Atom  11H    basis set group =>   4
Atom  12C    basis set group =>   2
Atom  13N    basis set group =>   1
Atom  14H    basis set group =>   4
Atom  15O    basis set group =>   3
Atom  16C    basis set group =>   2
Atom  17H    basis set group =>   4
Atom  18H    basis set group =>   4
Atom  19H    basis set group =>   4
Atom  20C    basis set group =>   2
Atom  21H    basis set group =>   4
Atom  22H    basis set group =>   4
Atom  23H    basis set group =>   4
Atom  24H    basis set group =>   4
Atom  25H    basis set group =>   4


           ************************************************************
           *        Program running with 16 parallel MPI-processes    *
           *              working on a common directory               *
           ************************************************************
------------------------------------------------------------------------------
                           ORCA GTO INTEGRAL CALCULATION
                           -- RI-GTO INTEGRALS CHOSEN --
------------------------------------------------------------------------------
------------------------------------------------------------------------------
                   ___                                                        
                  /   \      - P O W E R E D   B Y -                         
                 /     \                                                     
                 |  |  |   _    _      __       _____    __    __             
                 |  |  |  | |  | |    /  \     |  _  \  |  |  /  |          
                  \  \/   | |  | |   /    \    | | | |  |  | /  /          
                 / \  \   | |__| |  /  /\  \   | |_| |  |  |/  /          
                |  |  |   |  __  | /  /__\  \  |    /   |      \           
                |  |  |   | |  | | |   __   |  |    \   |  |\   \          
                \     /   | |  | | |  |  |  |  | |\  \  |  | \   \       
                 \___/    |_|  |_| |__|  |__|  |_| \__\ |__|  \__/        
                                                                              
                      - O R C A' S   B I G   F R I E N D -                    
                                      &                                       
                       - I N T E G R A L  F E E D E R -                       
                                                                              
 v1 FN, 2020, v2 2021                                                         
------------------------------------------------------------------------------


Reading SHARK input file freq.SHARKINP.tmp ... ok
----------------------
SHARK INTEGRAL PACKAGE
----------------------

Number of atoms                             ...     26
Number of basis functions                   ...    506
Number of shells                            ...    202
Maximum angular momentum                    ...      3
Integral batch strategy                     ... SHARK/LIBINT Hybrid
RI-J (if used) integral strategy            ... SPLIT-RIJ (Revised 2003 algorithm where possible)
Printlevel                                  ...      1
Contraction scheme used                     ... SEGMENTED contraction
Coulomb Range Separation                    ... NOT USED
Exchange Range Separation                   ... NOT USED
Finite Nucleus Model                        ... NOT USED
Auxiliary Coulomb fitting basis             ... AVAILABLE
   # of basis functions in Aux-J            ...    818
   # of shells in Aux-J                     ...    270
   Maximum angular momentum in Aux-J        ...      4
Auxiliary J/K fitting basis                 ... NOT available
Auxiliary Correlation fitting basis         ... NOT available
Auxiliary 'external' fitting basis          ... NOT available
Integral threshold                          ...     2.500000e-11
Primitive cut-off                           ...     2.500000e-12
Primitive pair pre-selection threshold      ...     2.500000e-12

Calculating pre-screening integrals         ... done (  0.0 sec) Dimension = 202
Organizing shell pair data                  ... done (  0.1 sec)
Shell pair information
Total number of shell pairs                 ...     20503
Shell pairs after pre-screening             ...     16139
Total number of primitive shell pairs       ...     62472
Primitive shell pairs kept                  ...     34189
          la=0 lb=0:   4325 shell pairs
          la=1 lb=0:   4637 shell pairs
          la=1 lb=1:   1276 shell pairs
          la=2 lb=0:   2268 shell pairs
          la=2 lb=1:   1241 shell pairs
          la=2 lb=2:    321 shell pairs
          la=3 lb=0:   1091 shell pairs
          la=3 lb=1:    607 shell pairs
          la=3 lb=2:    296 shell pairs
          la=3 lb=3:     77 shell pairs

Calculating one electron integrals          ... done (  0.0 sec)
Calculating RI/J V-Matrix + Cholesky decomp.... done (  0.0 sec)
Calculating Nuclear repulsion               ... done (  0.0 sec) ENN=    910.536602717298 Eh

SHARK setup successfully completed in   0.3 seconds

Maximum memory used throughout the entire GTOINT-calculation: 28.5 MB


           ************************************************************
           *        Program running with 16 parallel MPI-processes    *
           *              working on a common directory               *
           ************************************************************
-------------------------------------------------------------------------------
                                 ORCA SCF
-------------------------------------------------------------------------------

------------
SCF SETTINGS
------------
Hamiltonian:
 Density Functional     Method          .... DFT(GTOs)
 Exchange Functional    Exchange        .... M062X
 Correlation Functional Correlation     .... M062X
 Gradients option       PostSCFGGA      .... off
 Hybrid DFT is turned on
   Fraction HF Exchange ScalHFX         ....  0.540000
   Scaling of DF-GGA-X  ScalDFX         ....  0.460000
   Scaling of DF-GGA-C  ScalDFC         ....  1.000000
   Scaling of DF-LDA-C  ScalLDAC        ....  1.000000
   Perturbative correction              ....  0.000000
   Density functional embedding theory  .... OFF
 RI-approximation to the Coulomb term is turned on
   Number of AuxJ basis functions       .... 818
   RIJ-COSX (HFX calculated with COS-X)).... on


General Settings:
 Integral files         IntName         .... freq
 Hartree-Fock type      HFTyp           .... UHF
 Total Charge           Charge          ....   -1
 Multiplicity           Mult            ....    2
 Number of Electrons    NEL             ....  107
 Basis Dimension        Dim             ....  506
 Nuclear Repulsion      ENuc            ....    910.5366027173 Eh

Convergence Acceleration:
 DIIS                   CNVDIIS         .... on
   Start iteration      DIISMaxIt       ....    12
   Startup error        DIISStart       ....  0.200000
   # of expansion vecs  DIISMaxEq       ....     5
   Bias factor          DIISBfac        ....   1.050
   Max. coefficient     DIISMaxC        ....  10.000
 Trust-Rad. Augm. Hess. CNVTRAH         .... auto
   Auto Start mean grad. ratio tolernc. ....  1.125000
   Auto Start start iteration           ....    20
   Auto Start num. interpolation iter.  ....    10
   Max. Number of Micro iterations      ....    16
   Max. Number of Macro iterations      .... Maxiter - #DIIS iter
   Number of Davidson start vectors     ....     2
   Converg. threshold I  (grad. norm)   ....   1.000e-05
   Converg. threshold II (energy diff.) ....   1.000e-08
   Grad. Scal. Fac. for Micro threshold ....   0.100
   Minimum threshold for Micro iter.    ....   0.010
   NR start threshold (gradient norm)   ....   0.001
   Initial trust radius                 ....   0.400
   Minimum AH scaling param. (alpha)    ....   1.000
   Maximum AH scaling param. (alpha)    .... 1000.000
   Orbital update algorithm             .... Taylor
   White noise on init. David. guess    .... on
   Maximum white noise                  ....   0.010
   Quad. conv. algorithm                .... NR
 SOSCF                  CNVSOSCF        .... off
 Level Shifting         CNVShift        .... on
   Level shift para.    LevelShift      ....    0.2500
   Turn off err/grad.   ShiftErr        ....    0.0010
 Zerner damping         CNVZerner       .... off
 Static damping         CNVDamp         .... on
   Fraction old density DampFac         ....    0.7000
   Max. Damping (<1)    DampMax         ....    0.9800
   Min. Damping (>=0)   DampMin         ....    0.0000
   Turn off err/grad.   DampErr         ....    0.1000
 Fernandez-Rico         CNVRico         .... off

SCF Procedure:
 Maximum # iterations   MaxIter         ....   125
 SCF integral mode      SCFMode         .... Direct
   Integral package                     .... SHARK and LIBINT hybrid scheme
 Reset frequency        DirectResetFreq ....    20
 Integral Threshold     Thresh          ....  2.500e-11 Eh
 Primitive CutOff       TCut            ....  2.500e-12 Eh

Convergence Tolerance:
 Convergence Check Mode ConvCheckMode   .... Total+1el-Energy
 Convergence forced     ConvForced      .... 0
 Energy Change          TolE            ....  1.000e-08 Eh
 1-El. energy change                    ....  1.000e-05 Eh
 DIIS Error             TolErr          ....  5.000e-07


Diagonalization of the overlap matrix:
Smallest eigenvalue                        ... 8.988e-05
Time for diagonalization                   ...    0.030 sec
Threshold for overlap eigenvalues          ... 1.000e-08
Number of eigenvalues below threshold      ... 0
Time for construction of square roots      ...    0.020 sec
Total time needed                          ...    0.051 sec

Time for model grid setup =    0.091 sec

------------------------------
INITIAL GUESS: MODEL POTENTIAL
------------------------------
Loading Hartree-Fock densities                     ... done
Calculating cut-offs                               ... done
Initializing the effective Hamiltonian             ... done
Setting up the integral package (SHARK)            ... done
Starting the Coulomb interaction                   ... done (   0.1 sec)
Reading the grid                                   ... done
Mapping shells                                     ... done
Starting the XC term evaluation                    ... done (   0.1 sec)
  promolecular density results
     # of electrons  =    105.993034099
     EX              =    -90.056085517
     EC              =     -3.546320140
     EX+EC           =    -93.602405656
Transforming the Hamiltonian                       ... done (   0.0 sec)
Diagonalizing the Hamiltonian                      ... done (   0.0 sec)
Back transforming the eigenvectors                 ... done (   0.0 sec)
Now organizing SCF variables                       ... done
                      ------------------
                      INITIAL GUESS DONE (   0.4 sec)
                      ------------------
-------------------
DFT GRID GENERATION
-------------------

General Integration Accuracy     IntAcc      ... 4.388
Radial Grid Type                 RadialGrid  ... OptM3 with GC (2021)
Angular Grid (max. ang.)         AngularGrid ... 4 (Lebedev-302)
Angular grid pruning method      GridPruning ... 4 (adaptive)
Weight generation scheme         WeightScheme... Becke
Basis function cutoff            BFCut       ... 1.0000e-11
Integration weight cutoff        WCut        ... 1.0000e-14
Angular grids for H and He will be reduced by one unit
Partially contracted basis set               ... off
Rotationally invariant grid construction     ... off

Total number of grid points                  ...   122681
Total number of batches                      ...     1929
Average number of points per batch           ...       63
Average number of grid points per atom       ...     4718
Time for grid setup =    0.519 sec

--------------------
COSX GRID GENERATION
--------------------

GRIDX 1
-------
General Integration Accuracy     IntAcc      ... 3.816
Radial Grid Type                 RadialGrid  ... OptM3 with GC (2021)
Angular Grid (max. ang.)         AngularGrid ... 1 (Lebedev-50)
Angular grid pruning method      GridPruning ... 4 (adaptive)
Weight generation scheme         WeightScheme... Becke
Basis function cutoff            BFCut       ... 1.0000e-11
Integration weight cutoff        WCut        ... 1.0000e-14
Angular grids for H and He will be reduced by one unit
Partially contracted basis set               ... on
Rotationally invariant grid construction     ... off

Total number of grid points                  ...    15605
Total number of batches                      ...      257
Average number of points per batch           ...       60
Average number of grid points per atom       ...      600
UseSFitting                                  ... on

GRIDX 2
-------
General Integration Accuracy     IntAcc      ... 4.020
Radial Grid Type                 RadialGrid  ... OptM3 with GC (2021)
Angular Grid (max. ang.)         AngularGrid ... 2 (Lebedev-110)
Angular grid pruning method      GridPruning ... 4 (adaptive)
Weight generation scheme         WeightScheme... Becke
Basis function cutoff            BFCut       ... 1.0000e-11
Integration weight cutoff        WCut        ... 1.0000e-14
Angular grids for H and He will be reduced by one unit
Partially contracted basis set               ... on
Rotationally invariant grid construction     ... off

Total number of grid points                  ...    34009
Total number of batches                      ...      545
Average number of points per batch           ...       62
Average number of grid points per atom       ...     1308
UseSFitting                                  ... on

GRIDX 3
-------
General Integration Accuracy     IntAcc      ... 4.338
Radial Grid Type                 RadialGrid  ... OptM3 with GC (2021)
Angular Grid (max. ang.)         AngularGrid ... 3 (Lebedev-194)
Angular grid pruning method      GridPruning ... 4 (adaptive)
Weight generation scheme         WeightScheme... Becke
Basis function cutoff            BFCut       ... 1.0000e-11
Integration weight cutoff        WCut        ... 1.0000e-14
Angular grids for H and He will be reduced by one unit
Partially contracted basis set               ... on
Rotationally invariant grid construction     ... off

Total number of grid points                  ...    74483
Total number of batches                      ...     1178
Average number of points per batch           ...       63
Average number of grid points per atom       ...     2865
UseSFitting                                  ... on

Time for X-Grid setup             =    0.770 sec

--------------
SCF ITERATIONS
--------------
ITER       Energy         Delta-E        Max-DP      RMS-DP      [F,P]     Damp
               ***  Starting incremental Fock matrix formation  ***
  0   -721.9771344835   0.000000000000 0.08440515  0.00057994  0.1490888 0.7000
  1   -722.2255859796  -0.248451496162 0.07861250  0.00049683  0.0734700 0.7000
                               ***Turning on DIIS***
  2   -722.3335166850  -0.107930705360 0.12735616  0.00089522  0.0289189 0.0000
  3   -722.5079800163  -0.174463331344 0.07026796  0.00038247  0.0386764 0.0000
  4   -722.5394485958  -0.031468579486 0.02645163  0.00012742  0.0052709 0.0000
  5   -722.5408759297  -0.001427333901 0.00943211  0.00005192  0.0026833 0.0000
  6   -722.5411375779  -0.000261648168 0.00335599  0.00002678  0.0016514 0.0000
  7   -722.5412270322  -0.000089454342 0.00172702  0.00001703  0.0010607 0.0000
  8   -722.5412705471  -0.000043514880 0.00172609  0.00001590  0.0006578 0.0000
               *** Restarting incremental Fock matrix formation ***
                                   *** Resetting DIIS ***
  9   -722.5411698180   0.000100729113 0.00209635  0.00000980  0.0002923 0.0000
 10   -722.5411710289  -0.000001210894 0.00023224  0.00000210  0.0003731 0.0000
 11   -722.5411723221  -0.000001293224 0.00021400  0.00000165  0.0000894 0.0000
 12   -722.5411726311  -0.000000308927 0.00022630  0.00000125  0.0000833 0.0000
 13   -722.5411727414  -0.000000110383 0.00002995  0.00000036  0.0000380 0.0000
 14   -722.5411727529  -0.000000011474 0.00001148  0.00000008  0.0000151 0.0000
 15   -722.5411727298   0.000000023070 0.00001848  0.00000007  0.0000042 0.0000
 16   -722.5411727393  -0.000000009505 0.00000252  0.00000002  0.0000012 0.0000
                            ***DIIS convergence achieved***

               *****************************************************
               *                     SUCCESS                       *
               *           SCF CONVERGED AFTER  17 CYCLES          *
               *****************************************************

Old exchange energy                            =    -49.709665144 Eh
New exchange energy                            =    -49.709658951 Eh
Exchange energy change after final integration =      0.000006193 Eh
Total energy after final integration           =   -722.541166530 Eh
Final COS-X integration done in                =     3.878 sec

----------------
TOTAL SCF ENERGY
----------------

Total Energy       :         -722.54116653 Eh          -19661.34470 eV

Components:
Nuclear Repulsion  :          910.53660272 Eh           24776.96060 eV
Electronic Energy  :        -1633.07776925 Eh          -44438.30530 eV
One Electron Energy:        -2808.39988996 Eh          -76420.44615 eV
Two Electron Energy:         1175.32212071 Eh           31982.14085 eV
Max COSX asymmetry :            0.00000192 Eh               0.00005 eV

Virial components:
Potential Energy   :        -1441.33560952 Eh          -39220.73588 eV
Kinetic Energy     :          718.79444299 Eh           19559.39117 eV
Virial Ratio       :            2.00521251


DFT components:
N(Alpha)           :       54.000096329438 electrons
N(Beta)            :       53.000096059593 electrons
N(Total)           :      107.000192389031 electrons
E(XC)              :      -46.346924681426 Eh       
DFET-embed. en.    :        0.000000000000 Eh       

---------------
SCF CONVERGENCE
---------------

  Last Energy change         ...    1.6680e-08  Tolerance :   1.0000e-08
  Last MAX-Density change    ...    0.0000e+00  Tolerance :   1.0000e-07
  Last RMS-Density change    ...    0.0000e+00  Tolerance :   5.0000e-09
  Last DIIS Error            ...    8.6296e-07  Tolerance :   5.0000e-07

             **** THE GBW FILE WAS UPDATED (freq.gbw) ****
             **** DENSITY freq.scfp WAS UPDATED ****
             **** ENERGY FILE WAS UPDATED (freq.en.tmp) ****
----------------------
UHF SPIN CONTAMINATION
----------------------

Warning: in a DFT calculation there is little theoretical justification to 
         calculate <S**2> as in Hartree-Fock theory. We will do it anyways
         but you should keep in mind that the values have only limited relevance

Expectation value of <S**2>     :     0.756095
Ideal value S*(S+1) for S=0.5   :     0.750000
Deviation                       :     0.006095

             **** THE GBW FILE WAS UPDATED (freq.gbw) ****
             **** DENSITY freq.scfp WAS UPDATED ****
----------------
ORBITAL ENERGIES
----------------
                 SPIN UP ORBITALS
  NO   OCC          E(Eh)            E(eV) 
   0   1.0000     -19.480777      -530.0989 
   1   1.0000     -19.479264      -530.0577 
   2   1.0000     -19.424862      -528.5774 
   3   1.0000     -19.417065      -528.3652 
   4   1.0000     -14.659491      -398.9050 
   5   1.0000     -14.634444      -398.2235 
   6   1.0000     -10.539703      -286.7999 
   7   1.0000     -10.523872      -286.3691 
   8   1.0000     -10.485116      -285.3145 
   9   1.0000     -10.471376      -284.9406 
  10   1.0000     -10.457891      -284.5737 
  11   1.0000     -10.450298      -284.3671 
  12   1.0000     -10.428301      -283.7685 
  13   1.0000     -10.402830      -283.0754 
  14   1.0000      -1.043667       -28.3996 
  15   1.0000      -1.033367       -28.1193 
  16   1.0000      -0.998895       -27.1813 
  17   1.0000      -0.919526       -25.0216 
  18   1.0000      -0.913917       -24.8689 
  19   1.0000      -0.896293       -24.3894 
  20   1.0000      -0.771966       -21.0063 
  21   1.0000      -0.730437       -19.8762 
  22   1.0000      -0.697576       -18.9820 
  23   1.0000      -0.658061       -17.9067 
  24   1.0000      -0.576491       -15.6871 
  25   1.0000      -0.547662       -14.9026 
  26   1.0000      -0.523817       -14.2538 
  27   1.0000      -0.497396       -13.5348 
  28   1.0000      -0.451485       -12.2855 
  29   1.0000      -0.445388       -12.1196 
  30   1.0000      -0.435466       -11.8496 
  31   1.0000      -0.420954       -11.4547 
  32   1.0000      -0.417886       -11.3713 
  33   1.0000      -0.408446       -11.1144 
  34   1.0000      -0.391303       -10.6479 
  35   1.0000      -0.383545       -10.4368 
  36   1.0000      -0.375592       -10.2204 
  37   1.0000      -0.371581       -10.1112 
  38   1.0000      -0.353715        -9.6251 
  39   1.0000      -0.344494        -9.3742 
  40   1.0000      -0.341676        -9.2975 
  41   1.0000      -0.333102        -9.0642 
  42   1.0000      -0.328213        -8.9311 
  43   1.0000      -0.317641        -8.6434 
  44   1.0000      -0.295370        -8.0374 
  45   1.0000      -0.284090        -7.7305 
  46   1.0000      -0.228518        -6.2183 
  47   1.0000      -0.223640        -6.0855 
  48   1.0000      -0.213218        -5.8020 
  49   1.0000      -0.197317        -5.3693 
  50   1.0000      -0.187599        -5.1048 
  51   1.0000      -0.174809        -4.7568 
  52   1.0000      -0.169729        -4.6186 
  53   1.0000      -0.107933        -2.9370 
  54   0.0000       0.160713         4.3732 
  55   0.0000       0.165719         4.5095 
  56   0.0000       0.175957         4.7880 
  57   0.0000       0.180261         4.9051 
  58   0.0000       0.208147         5.6640 
  59   0.0000       0.217773         5.9259 
  60   0.0000       0.229144         6.2353 
  61   0.0000       0.235796         6.4163 
  62   0.0000       0.239464         6.5162 
  63   0.0000       0.243620         6.6292 
  64   0.0000       0.247594         6.7374 
  65   0.0000       0.249701         6.7947 
  66   0.0000       0.264335         7.1929 
  67   0.0000       0.268028         7.2934 
  68   0.0000       0.283565         7.7162 
  69   0.0000       0.288787         7.8583 
  70   0.0000       0.313927         8.5424 
  71   0.0000       0.318599         8.6695 
  72   0.0000       0.322660         8.7800 
  73   0.0000       0.326279         8.8785 
  74   0.0000       0.334036         9.0896 
  75   0.0000       0.344861         9.3841 
  76   0.0000       0.347474         9.4552 
  77   0.0000       0.351591         9.5673 
  78   0.0000       0.365205         9.9377 
  79   0.0000       0.374224        10.1831 
  80   0.0000       0.381116        10.3707 
  81   0.0000       0.386166        10.5081 
  82   0.0000       0.389863        10.6087 
  83   0.0000       0.404619        11.0102 
  84   0.0000       0.418329        11.3833 
  85   0.0000       0.421085        11.4583 
  86   0.0000       0.436674        11.8825 
  87   0.0000       0.445989        12.1360 
  88   0.0000       0.461608        12.5610 
  89   0.0000       0.465536        12.6679 
  90   0.0000       0.474567        12.9136 
  91   0.0000       0.480277        13.0690 
  92   0.0000       0.490137        13.3373 
  93   0.0000       0.491744        13.3810 
  94   0.0000       0.499687        13.5972 
  95   0.0000       0.505503        13.7554 
  96   0.0000       0.512158        13.9365 
  97   0.0000       0.532722        14.4961 
  98   0.0000       0.533926        14.5289 
  99   0.0000       0.535421        14.5696 
 100   0.0000       0.541817        14.7436 
 101   0.0000       0.554027        15.0758 
 102   0.0000       0.556109        15.1325 
 103   0.0000       0.564424        15.3588 
 104   0.0000       0.567810        15.4509 
 105   0.0000       0.580042        15.7837 
 106   0.0000       0.587998        16.0002 
 107   0.0000       0.592167        16.1137 
 108   0.0000       0.599070        16.3015 
 109   0.0000       0.606988        16.5170 
 110   0.0000       0.608274        16.5520 
 111   0.0000       0.618548        16.8315 
 112   0.0000       0.624888        17.0041 
 113   0.0000       0.633237        17.2313 
 114   0.0000       0.638939        17.3864 
 115   0.0000       0.641651        17.4602 
 116   0.0000       0.647877        17.6296 
 117   0.0000       0.659079        17.9345 
 118   0.0000       0.665377        18.1058 
 119   0.0000       0.678772        18.4703 
 120   0.0000       0.685352        18.6494 
 121   0.0000       0.688559        18.7366 
 122   0.0000       0.697576        18.9820 
 123   0.0000       0.701012        19.0755 
 124   0.0000       0.707986        19.2653 
 125   0.0000       0.721795        19.6410 
 126   0.0000       0.726614        19.7722 
 127   0.0000       0.734242        19.9797 
 128   0.0000       0.738132        20.0856 
 129   0.0000       0.739371        20.1193 
 130   0.0000       0.743676        20.2364 
 131   0.0000       0.756104        20.5746 
 132   0.0000       0.775106        21.0917 
 133   0.0000       0.779796        21.2193 
 134   0.0000       0.798999        21.7419 
 135   0.0000       0.807964        21.9858 
 136   0.0000       0.838477        22.8161 
 137   0.0000       0.846767        23.0417 
 138   0.0000       0.855518        23.2798 
 139   0.0000       0.860820        23.4241 
 140   0.0000       0.868931        23.6448 
 141   0.0000       0.874146        23.7867 
 142   0.0000       0.886787        24.1307 
 143   0.0000       0.906473        24.6664 
 144   0.0000       0.915271        24.9058 
 145   0.0000       0.933003        25.3883 
 146   0.0000       0.953735        25.9525 
 147   0.0000       0.972191        26.4547 
 148   0.0000       0.984497        26.7895 
 149   0.0000       0.990720        26.9589 
 150   0.0000       1.013096        27.5678 
 151   0.0000       1.020476        27.7686 
 152   0.0000       1.028389        27.9839 
 153   0.0000       1.039523        28.2869 
 154   0.0000       1.057659        28.7804 
 155   0.0000       1.059459        28.8293 
 156   0.0000       1.067758        29.0552 
 157   0.0000       1.085901        29.5489 
 158   0.0000       1.096553        29.8387 
 159   0.0000       1.103667        30.0323 
 160   0.0000       1.117428        30.4068 
 161   0.0000       1.126416        30.6513 
 162   0.0000       1.135693        30.9038 
 163   0.0000       1.156065        31.4581 
 164   0.0000       1.161300        31.6006 
 165   0.0000       1.174688        31.9649 
 166   0.0000       1.178658        32.0729 
 167   0.0000       1.195567        32.5330 
 168   0.0000       1.199418        32.6378 
 169   0.0000       1.208872        32.8951 
 170   0.0000       1.223937        33.3050 
 171   0.0000       1.228909        33.4403 
 172   0.0000       1.238614        33.7044 
 173   0.0000       1.270756        34.5790 
 174   0.0000       1.274290        34.6752 
 175   0.0000       1.287411        35.0322 
 176   0.0000       1.301260        35.4091 
 177   0.0000       1.317306        35.8457 
 178   0.0000       1.327846        36.1325 
 179   0.0000       1.366162        37.1752 
 180   0.0000       1.372350        37.3435 
 181   0.0000       1.404179        38.2097 
 182   0.0000       1.432396        38.9775 
 183   0.0000       1.445903        39.3450 
 184   0.0000       1.458061        39.6759 
 185   0.0000       1.474098        40.1123 
 186   0.0000       1.482459        40.3398 
 187   0.0000       1.496312        40.7167 
 188   0.0000       1.509086        41.0643 
 189   0.0000       1.528029        41.5798 
 190   0.0000       1.544939        42.0399 
 191   0.0000       1.565292        42.5938 
 192   0.0000       1.579653        42.9845 
 193   0.0000       1.584368        43.1128 
 194   0.0000       1.605272        43.6817 
 195   0.0000       1.626556        44.2608 
 196   0.0000       1.633117        44.4394 
 197   0.0000       1.635476        44.5036 
 198   0.0000       1.645831        44.7853 
 199   0.0000       1.653281        44.9881 
 200   0.0000       1.661360        45.2079 
 201   0.0000       1.665628        45.3240 
 202   0.0000       1.675404        45.5901 
 203   0.0000       1.679396        45.6987 
 204   0.0000       1.689015        45.9604 
 205   0.0000       1.701860        46.3100 
 206   0.0000       1.705538        46.4101 
 207   0.0000       1.709744        46.5245 
 208   0.0000       1.720052        46.8050 
 209   0.0000       1.736099        47.2417 
 210   0.0000       1.753252        47.7084 
 211   0.0000       1.767298        48.0906 
 212   0.0000       1.768352        48.1193 
 213   0.0000       1.781941        48.4891 
 214   0.0000       1.787518        48.6408 
 215   0.0000       1.808403        49.2091 
 216   0.0000       1.830409        49.8080 
 217   0.0000       1.837840        50.0102 
 218   0.0000       1.856682        50.5229 
 219   0.0000       1.859350        50.5955 
 220   0.0000       1.877576        51.0915 
 221   0.0000       1.887004        51.3480 
 222   0.0000       1.895683        51.5842 
 223   0.0000       1.914967        52.1089 
 224   0.0000       1.919203        52.2242 
 225   0.0000       1.929237        52.4972 
 226   0.0000       1.951281        53.0970 
 227   0.0000       1.970735        53.6264 
 228   0.0000       1.988813        54.1184 
 229   0.0000       1.997992        54.3681 
 230   0.0000       2.005425        54.5704 
 231   0.0000       2.019316        54.9484 
 232   0.0000       2.033870        55.3444 
 233   0.0000       2.050797        55.8050 
 234   0.0000       2.076868        56.5145 
 235   0.0000       2.088446        56.8295 
 236   0.0000       2.094716        57.0001 
 237   0.0000       2.098764        57.1103 
 238   0.0000       2.107633        57.3516 
 239   0.0000       2.129784        57.9544 
 240   0.0000       2.133808        58.0639 
 241   0.0000       2.149879        58.5012 
 242   0.0000       2.166036        58.9408 
 243   0.0000       2.172848        59.1262 
 244   0.0000       2.180112        59.3239 
 245   0.0000       2.199650        59.8555 
 246   0.0000       2.212477        60.2046 
 247   0.0000       2.222340        60.4729 
 248   0.0000       2.235321        60.8262 
 249   0.0000       2.242884        61.0320 
 250   0.0000       2.250849        61.2487 
 251   0.0000       2.264336        61.6157 
 252   0.0000       2.281844        62.0921 
 253   0.0000       2.311173        62.8902 
 254   0.0000       2.316775        63.0426 
 255   0.0000       2.338137        63.6239 
 256   0.0000       2.343326        63.7651 
 257   0.0000       2.353693        64.0472 
 258   0.0000       2.379668        64.7541 
 259   0.0000       2.395837        65.1940 
 260   0.0000       2.417085        65.7722 
 261   0.0000       2.423321        65.9419 
 262   0.0000       2.430831        66.1463 
 263   0.0000       2.436090        66.2894 
 264   0.0000       2.440835        66.4185 
 265   0.0000       2.451288        66.7029 
 266   0.0000       2.454735        66.7967 
 267   0.0000       2.466855        67.1265 
 268   0.0000       2.468552        67.1727 
 269   0.0000       2.490264        67.7635 
 270   0.0000       2.502462        68.0954 
 271   0.0000       2.516833        68.4865 
 272   0.0000       2.524120        68.6848 
 273   0.0000       2.537913        69.0601 
 274   0.0000       2.557923        69.6046 
 275   0.0000       2.578539        70.1656 
 276   0.0000       2.601969        70.8032 
 277   0.0000       2.622666        71.3664 
 278   0.0000       2.623309        71.3839 
 279   0.0000       2.636408        71.7403 
 280   0.0000       2.653890        72.2160 
 281   0.0000       2.660806        72.4042 
 282   0.0000       2.667322        72.5815 
 283   0.0000       2.702521        73.5393 
 284   0.0000       2.714418        73.8631 
 285   0.0000       2.726958        74.2043 
 286   0.0000       2.735456        74.4355 
 287   0.0000       2.744429        74.6797 
 288   0.0000       2.756832        75.0172 
 289   0.0000       2.772997        75.4571 
 290   0.0000       2.782037        75.7031 
 291   0.0000       2.796995        76.1101 
 292   0.0000       2.818708        76.7009 
 293   0.0000       2.830528        77.0226 
 294   0.0000       2.850057        77.5540 
 295   0.0000       2.855996        77.7156 
 296   0.0000       2.859363        77.8072 
 297   0.0000       2.889617        78.6305 
 298   0.0000       2.894301        78.7579 
 299   0.0000       2.904006        79.0220 
 300   0.0000       2.936572        79.9082 
 301   0.0000       2.944802        80.1321 
 302   0.0000       2.953914        80.3801 
 303   0.0000       2.972445        80.8843 
 304   0.0000       2.977714        81.0277 
 305   0.0000       2.989111        81.3378 
 306   0.0000       3.006478        81.8104 
 307   0.0000       3.020648        82.1960 
 308   0.0000       3.045616        82.8754 
 309   0.0000       3.057110        83.1882 
 310   0.0000       3.068405        83.4956 
 311   0.0000       3.079929        83.8091 
 312   0.0000       3.088876        84.0526 
 313   0.0000       3.100256        84.3623 
 314   0.0000       3.109157        84.6045 
 315   0.0000       3.123590        84.9972 
 316   0.0000       3.135600        85.3240 
 317   0.0000       3.145188        85.5849 
 318   0.0000       3.161067        86.0170 
 319   0.0000       3.171663        86.3053 
 320   0.0000       3.174271        86.3763 
 321   0.0000       3.196552        86.9826 
 322   0.0000       3.205227        87.2187 
 323   0.0000       3.215130        87.4881 
 324   0.0000       3.221888        87.6720 
 325   0.0000       3.229550        87.8805 
 326   0.0000       3.236744        88.0763 
 327   0.0000       3.246788        88.3496 
 328   0.0000       3.265784        88.8665 
 329   0.0000       3.275150        89.1214 
 330   0.0000       3.277419        89.1831 
 331   0.0000       3.296144        89.6926 
 332   0.0000       3.306489        89.9741 
 333   0.0000       3.322062        90.3979 
 334   0.0000       3.324666        90.4688 
 335   0.0000       3.347204        91.0821 
 336   0.0000       3.352583        91.2284 
 337   0.0000       3.354912        91.2918 
 338   0.0000       3.360246        91.4370 
 339   0.0000       3.378054        91.9215 
 340   0.0000       3.398737        92.4843 
 341   0.0000       3.405440        92.6667 
 342   0.0000       3.411897        92.8424 
 343   0.0000       3.416182        92.9590 
 344   0.0000       3.417724        93.0010 
 345   0.0000       3.437733        93.5455 
 346   0.0000       3.443713        93.7082 
 347   0.0000       3.456975        94.0691 
 348   0.0000       3.463727        94.2528 
 349   0.0000       3.466888        94.3388 
 350   0.0000       3.473613        94.5218 
 351   0.0000       3.481849        94.7459 
 352   0.0000       3.493821        95.0717 
 353   0.0000       3.516891        95.6995 
 354   0.0000       3.521103        95.8141 
 355   0.0000       3.527275        95.9820 
 356   0.0000       3.543567        96.4254 
 357   0.0000       3.553110        96.6850 
 358   0.0000       3.571925        97.1970 
 359   0.0000       3.583921        97.5234 
 360   0.0000       3.624218        98.6200 
 361   0.0000       3.632761        98.8525 
 362   0.0000       3.636202        98.9461 
 363   0.0000       3.645946        99.2112 
 364   0.0000       3.650617        99.3383 
 365   0.0000       3.663319        99.6840 
 366   0.0000       3.686010       100.3014 
 367   0.0000       3.693843       100.5146 
 368   0.0000       3.716003       101.1176 
 369   0.0000       3.725517       101.3765 
 370   0.0000       3.737315       101.6975 
 371   0.0000       3.762086       102.3716 
 372   0.0000       3.784864       102.9914 
 373   0.0000       3.789778       103.1251 
 374   0.0000       3.804667       103.5303 
 375   0.0000       3.827331       104.1470 
 376   0.0000       3.841540       104.5336 
 377   0.0000       3.848713       104.7288 
 378   0.0000       3.882989       105.6615 
 379   0.0000       3.893011       105.9342 
 380   0.0000       3.910132       106.4001 
 381   0.0000       3.936814       107.1262 
 382   0.0000       3.953807       107.5886 
 383   0.0000       3.973691       108.1296 
 384   0.0000       4.013459       109.2118 
 385   0.0000       4.022688       109.4629 
 386   0.0000       4.037255       109.8593 
 387   0.0000       4.039458       109.9192 
 388   0.0000       4.077889       110.9650 
 389   0.0000       4.107647       111.7748 
 390   0.0000       4.127173       112.3061 
 391   0.0000       4.153617       113.0257 
 392   0.0000       4.161974       113.2531 
 393   0.0000       4.183810       113.8473 
 394   0.0000       4.188211       113.9670 
 395   0.0000       4.218033       114.7785 
 396   0.0000       4.245507       115.5261 
 397   0.0000       4.257138       115.8426 
 398   0.0000       4.304389       117.1284 
 399   0.0000       4.306212       117.1780 
 400   0.0000       4.372035       118.9691 
 401   0.0000       4.389624       119.4478 
 402   0.0000       4.420499       120.2879 
 403   0.0000       4.448149       121.0403 
 404   0.0000       4.464503       121.4853 
 405   0.0000       4.471914       121.6870 
 406   0.0000       4.487326       122.1064 
 407   0.0000       4.507239       122.6482 
 408   0.0000       4.530892       123.2918 
 409   0.0000       4.545684       123.6944 
 410   0.0000       4.580814       124.6503 
 411   0.0000       4.607742       125.3830 
 412   0.0000       4.641012       126.2884 
 413   0.0000       4.690176       127.6262 
 414   0.0000       4.704904       128.0269 
 415   0.0000       4.731588       128.7531 
 416   0.0000       4.776310       129.9700 
 417   0.0000       4.797567       130.5484 
 418   0.0000       4.821670       131.2043 
 419   0.0000       4.849401       131.9589 
 420   0.0000       4.899056       133.3101 
 421   0.0000       4.932852       134.2297 
 422   0.0000       4.950564       134.7117 
 423   0.0000       4.985053       135.6502 
 424   0.0000       5.001451       136.0964 
 425   0.0000       5.065825       137.8481 
 426   0.0000       5.104827       138.9094 
 427   0.0000       5.127546       139.5276 
 428   0.0000       5.166805       140.5959 
 429   0.0000       5.187578       141.1612 
 430   0.0000       5.234976       142.4509 
 431   0.0000       5.255327       143.0047 
 432   0.0000       5.263300       143.2217 
 433   0.0000       5.279629       143.6660 
 434   0.0000       5.332399       145.1020 
 435   0.0000       5.345825       145.4673 
 436   0.0000       5.360979       145.8796 
 437   0.0000       5.371772       146.1733 
 438   0.0000       5.389957       146.6682 
 439   0.0000       5.395153       146.8096 
 440   0.0000       5.405850       147.1007 
 441   0.0000       5.411337       147.2500 
 442   0.0000       5.418224       147.4374 
 443   0.0000       5.471659       148.8914 
 444   0.0000       5.514455       150.0560 
 445   0.0000       5.547750       150.9619 
 446   0.0000       5.560996       151.3224 
 447   0.0000       5.575977       151.7300 
 448   0.0000       5.609500       152.6423 
 449   0.0000       5.686689       154.7427 
 450   0.0000       5.694927       154.9668 
 451   0.0000       5.703433       155.1983 
 452   0.0000       5.745209       156.3351 
 453   0.0000       5.772773       157.0851 
 454   0.0000       5.779898       157.2790 
 455   0.0000       5.790451       157.5662 
 456   0.0000       5.888650       160.2383 
 457   0.0000       5.938162       161.5856 
 458   0.0000       5.968649       162.4152 
 459   0.0000       5.998629       163.2310 
 460   0.0000       6.043880       164.4623 
 461   0.0000       6.189577       168.4270 
 462   0.0000       6.210039       168.9838 
 463   0.0000       6.217615       169.1899 
 464   0.0000       6.229627       169.5168 
 465   0.0000       6.293966       171.2675 
 466   0.0000       6.393862       173.9858 
 467   0.0000       6.410876       174.4488 
 468   0.0000       6.519121       177.3943 
 469   0.0000       6.523888       177.5240 
 470   0.0000       6.537511       177.8947 
 471   0.0000       6.554276       178.3509 
 472   0.0000       6.626584       180.3185 
 473   0.0000       6.645882       180.8436 
 474   0.0000       6.649906       180.9531 
 475   0.0000       6.668977       181.4721 
 476   0.0000       6.755717       183.8324 
 477   0.0000       6.768733       184.1866 
 478   0.0000       6.818197       185.5326 
 479   0.0000       6.858419       186.6271 
 480   0.0000       6.933176       188.6613 
 481   0.0000       6.945769       189.0040 
 482   0.0000       6.948756       189.0853 
 483   0.0000       7.028888       191.2658 
 484   0.0000       7.122439       193.8114 
 485   0.0000       7.147758       194.5004 
 486   0.0000       7.167497       195.0375 
 487   0.0000       7.181265       195.4122 
 488   0.0000       7.227465       196.6693 
 489   0.0000       7.290799       198.3927 
 490   0.0000       7.315137       199.0550 
 491   0.0000       7.382970       200.9008 
 492   0.0000      22.487992       611.9294 
 493   0.0000      22.597342       614.9049 
 494   0.0000      22.599832       614.9727 
 495   0.0000      22.691716       617.4730 
 496   0.0000      22.898536       623.1008 
 497   0.0000      23.472569       638.7211 
 498   0.0000      23.526436       640.1869 
 499   0.0000      23.601484       642.2290 
 500   0.0000      32.711996       890.1387 
 501   0.0000      32.844681       893.7492 
 502   0.0000      44.158546      1201.6151 
 503   0.0000      44.180795      1202.2206 
 504   0.0000      44.208979      1202.9875 
 505   0.0000      44.238111      1203.7802 

                 SPIN DOWN ORBITALS
  NO   OCC          E(Eh)            E(eV) 
   0   1.0000     -19.480726      -530.0975 
   1   1.0000     -19.479228      -530.0567 
   2   1.0000     -19.424633      -528.5711 
   3   1.0000     -19.416560      -528.3515 
   4   1.0000     -14.659175      -398.8964 
   5   1.0000     -14.634428      -398.2230 
   6   1.0000     -10.539723      -286.8004 
   7   1.0000     -10.523649      -286.3630 
   8   1.0000     -10.484032      -285.2850 
   9   1.0000     -10.472014      -284.9580 
  10   1.0000     -10.457883      -284.5735 
  11   1.0000     -10.450288      -284.3668 
  12   1.0000     -10.421510      -283.5837 
  13   1.0000     -10.403463      -283.0926 
  14   1.0000      -1.043435       -28.3933 
  15   1.0000      -1.033182       -28.1143 
  16   1.0000      -0.997052       -27.1312 
  17   1.0000      -0.918359       -24.9898 
  18   1.0000      -0.912627       -24.8338 
  19   1.0000      -0.895813       -24.3763 
  20   1.0000      -0.762883       -20.7591 
  21   1.0000      -0.724005       -19.7012 
  22   1.0000      -0.693446       -18.8696 
  23   1.0000      -0.656325       -17.8595 
  24   1.0000      -0.567198       -15.4342 
  25   1.0000      -0.541540       -14.7361 
  26   1.0000      -0.516050       -14.0424 
  27   1.0000      -0.495464       -13.4823 
  28   1.0000      -0.450186       -12.2502 
  29   1.0000      -0.439468       -11.9585 
  30   1.0000      -0.432103       -11.7581 
  31   1.0000      -0.419308       -11.4099 
  32   1.0000      -0.416463       -11.3325 
  33   1.0000      -0.405151       -11.0247 
  34   1.0000      -0.386614       -10.5203 
  35   1.0000      -0.380533       -10.3548 
  36   1.0000      -0.374225       -10.1832 
  37   1.0000      -0.366887        -9.9835 
  38   1.0000      -0.352196        -9.5837 
  39   1.0000      -0.342403        -9.3173 
  40   1.0000      -0.339082        -9.2269 
  41   1.0000      -0.331571        -9.0225 
  42   1.0000      -0.326252        -8.8778 
  43   1.0000      -0.314033        -8.5453 
  44   1.0000      -0.291325        -7.9273 
  45   1.0000      -0.280356        -7.6289 
  46   1.0000      -0.226293        -6.1577 
  47   1.0000      -0.222489        -6.0542 
  48   1.0000      -0.210294        -5.7224 
  49   1.0000      -0.196360        -5.3432 
  50   1.0000      -0.174854        -4.7580 
  51   1.0000      -0.170773        -4.6470 
  52   1.0000      -0.159152        -4.3307 
  53   0.0000       0.107215         2.9175 
  54   0.0000       0.161320         4.3897 
  55   0.0000       0.167254         4.5512 
  56   0.0000       0.175118         4.7652 
  57   0.0000       0.180432         4.9098 
  58   0.0000       0.207242         5.6393 
  59   0.0000       0.214879         5.8472 
  60   0.0000       0.228591         6.2203 
  61   0.0000       0.232848         6.3361 
  62   0.0000       0.238027         6.4770 
  63   0.0000       0.243998         6.6395 
  64   0.0000       0.247192         6.7264 
  65   0.0000       0.250486         6.8161 
  66   0.0000       0.263705         7.1758 
  67   0.0000       0.267670         7.2837 
  68   0.0000       0.282927         7.6988 
  69   0.0000       0.288252         7.8437 
  70   0.0000       0.310423         8.4470 
  71   0.0000       0.315987         8.5984 
  72   0.0000       0.320124         8.7110 
  73   0.0000       0.326324         8.8797 
  74   0.0000       0.332704         9.0533 
  75   0.0000       0.343884         9.3575 
  76   0.0000       0.346978         9.4418 
  77   0.0000       0.350047         9.5253 
  78   0.0000       0.364381         9.9153 
  79   0.0000       0.374171        10.1817 
  80   0.0000       0.379349        10.3226 
  81   0.0000       0.384953        10.4751 
  82   0.0000       0.386086        10.5059 
  83   0.0000       0.403983        10.9929 
  84   0.0000       0.415724        11.3124 
  85   0.0000       0.419178        11.4064 
  86   0.0000       0.434065        11.8115 
  87   0.0000       0.447969        12.1899 
  88   0.0000       0.462391        12.5823 
  89   0.0000       0.464549        12.6410 
  90   0.0000       0.472730        12.8636 
  91   0.0000       0.480836        13.0842 
  92   0.0000       0.489872        13.3301 
  93   0.0000       0.492075        13.3900 
  94   0.0000       0.499112        13.5815 
  95   0.0000       0.502791        13.6816 
  96   0.0000       0.512250        13.9390 
  97   0.0000       0.529696        14.4137 
  98   0.0000       0.534751        14.5513 
  99   0.0000       0.538974        14.6662 
 100   0.0000       0.544408        14.8141 
 101   0.0000       0.553676        15.0663 
 102   0.0000       0.556313        15.1381 
 103   0.0000       0.564789        15.3687 
 104   0.0000       0.568258        15.4631 
 105   0.0000       0.575560        15.6618 
 106   0.0000       0.587578        15.9888 
 107   0.0000       0.591313        16.0905 
 108   0.0000       0.595938        16.2163 
 109   0.0000       0.606841        16.5130 
 110   0.0000       0.608135        16.5482 
 111   0.0000       0.618444        16.8287 
 112   0.0000       0.626036        17.0353 
 113   0.0000       0.629191        17.1211 
 114   0.0000       0.638516        17.3749 
 115   0.0000       0.642821        17.4920 
 116   0.0000       0.647661        17.6237 
 117   0.0000       0.659207        17.9379 
 118   0.0000       0.664501        18.0820 
 119   0.0000       0.677760        18.4428 
 120   0.0000       0.685591        18.6559 
 121   0.0000       0.687295        18.7023 
 122   0.0000       0.697392        18.9770 
 123   0.0000       0.700534        19.0625 
 124   0.0000       0.709640        19.3103 
 125   0.0000       0.723484        19.6870 
 126   0.0000       0.724790        19.7225 
 127   0.0000       0.735737        20.0204 
 128   0.0000       0.738639        20.0994 
 129   0.0000       0.740177        20.1412 
 130   0.0000       0.742193        20.1961 
 131   0.0000       0.755547        20.5595 
 132   0.0000       0.774206        21.0672 
 133   0.0000       0.779343        21.2070 
 134   0.0000       0.799383        21.7523 
 135   0.0000       0.807936        21.9850 
 136   0.0000       0.835720        22.7411 
 137   0.0000       0.845045        22.9948 
 138   0.0000       0.854015        23.2389 
 139   0.0000       0.860277        23.4093 
 140   0.0000       0.867525        23.6065 
 141   0.0000       0.875560        23.8252 
 142   0.0000       0.886048        24.1106 
 143   0.0000       0.905427        24.6379 
 144   0.0000       0.914825        24.8936 
 145   0.0000       0.933858        25.4116 
 146   0.0000       0.953202        25.9380 
 147   0.0000       0.969872        26.3916 
 148   0.0000       0.982335        26.7307 
 149   0.0000       0.989849        26.9352 
 150   0.0000       1.011902        27.5352 
 151   0.0000       1.020925        27.7808 
 152   0.0000       1.027445        27.9582 
 153   0.0000       1.038422        28.2569 
 154   0.0000       1.056412        28.7464 
 155   0.0000       1.060755        28.8646 
 156   0.0000       1.068565        29.0771 
 157   0.0000       1.086676        29.5700 
 158   0.0000       1.096624        29.8407 
 159   0.0000       1.102336        29.9961 
 160   0.0000       1.117530        30.4095 
 161   0.0000       1.126732        30.6599 
 162   0.0000       1.135098        30.8876 
 163   0.0000       1.155023        31.4298 
 164   0.0000       1.161369        31.6025 
 165   0.0000       1.172712        31.9111 
 166   0.0000       1.178254        32.0619 
 167   0.0000       1.196922        32.5699 
 168   0.0000       1.200482        32.6668 
 169   0.0000       1.209440        32.9105 
 170   0.0000       1.224329        33.3157 
 171   0.0000       1.228642        33.4330 
 172   0.0000       1.237143        33.6644 
 173   0.0000       1.270592        34.5746 
 174   0.0000       1.272916        34.6378 
 175   0.0000       1.289297        35.0835 
[...]
     16      -0.080190  -0.000045   0.000470   0.000007  -0.014708  -0.000031
     17      -0.035598  -0.000022   0.000025   0.000017  -0.004802   0.000004
     18      -0.188070  -0.000099   0.000660   0.000091  -0.034006   0.000148
     19       0.745475   0.000377  -0.002757  -0.000176   0.120007   0.000035
     20       0.543537   0.000269  -0.002058  -0.000142   0.086562  -0.000093
     21       0.105634  -0.000035  -0.001139  -0.000042   0.027157   0.000514
     22       0.224618   0.000031  -0.003107  -0.000038   0.054770   0.000358
     23      -0.125445  -0.000017   0.001760   0.000011  -0.028905  -0.000371
     24       0.001078   0.000001   0.000016  -0.000003   0.000609  -0.000006
     25      -0.003244   0.000006   0.000070   0.000015  -0.000763  -0.000041
     26      -0.000461  -0.000004   0.000035  -0.000025   0.000419  -0.000047
     27      -0.000145   0.000008  -0.000057   0.000010  -0.000071   0.000000
     28       0.000675  -0.000008   0.000044   0.000003   0.000106   0.000076
     29       0.000282  -0.000010  -0.000018   0.000015  -0.000071  -0.000005
     30      -0.000307  -0.000002  -0.000009   0.000024  -0.000183  -0.000012
     31       0.000868  -0.000007  -0.000029  -0.000003   0.000343   0.000015
     32       0.000363  -0.000013  -0.000005   0.000013  -0.000088   0.000001
     33      -0.000036  -0.001797  -0.000350  -0.003096  -0.000263   0.203161
     34      -0.000123   0.002042   0.000093   0.002482   0.000819  -0.650590
     35       0.000148  -0.001617  -0.000334  -0.003639  -0.001875   0.727998
     36      -0.000093   0.001037  -0.000026   0.001552   0.000134  -0.001191
     37      -0.000009   0.001472  -0.000024   0.001006  -0.000378  -0.000112
     38       0.000015   0.000055   0.000027  -0.001855   0.000277   0.000095
     39       0.000217   0.000027  -0.000654   0.000040  -0.000022  -0.000492
     40      -0.000230  -0.000038  -0.000686  -0.000019  -0.000061   0.000255
     41      -0.000018   0.000030   0.000248   0.000034  -0.000069  -0.000463
     42      -0.000909  -0.000143   0.004403  -0.000196   0.000776   0.001116
     43       0.002966   0.000391  -0.000221   0.000347  -0.000002  -0.004015
     44       0.000465  -0.000240  -0.000113  -0.000283   0.001448   0.002308
     45       0.000027  -0.000066   0.000007  -0.000194  -0.000080  -0.000273
     46       0.000004  -0.000318   0.000025  -0.000355   0.000161  -0.001060
     47      -0.000009   0.000151  -0.000042   0.000578  -0.000087   0.001348
     48      -0.000001   0.001633   0.000078   0.035884  -0.000039   0.000100
     49       0.000022   0.089832  -0.000501   0.020521  -0.000333   0.000290
     50      -0.000043   0.020983  -0.000320  -0.083895  -0.000025  -0.000365
     51       0.000050   0.248840  -0.002441  -0.451150  -0.000324  -0.000952
     52      -0.000017  -0.095349   0.001047   0.214863   0.000137   0.000261
     53      -0.000044  -0.303378   0.003003   0.557297   0.000536   0.001017
     54      -0.000011   0.000854   0.000013   0.005081  -0.000105  -0.001908
     55      -0.000505  -0.308811   0.001039  -0.461894   0.001577  -0.004528
     56       0.000512   0.337579  -0.001196   0.466045  -0.001781   0.004517
     57       0.000080  -0.276683   0.001822   0.008511   0.001321  -0.000662
     58       0.000240  -0.676207   0.004409   0.003448   0.002588  -0.000771
     59       0.000102  -0.291940   0.001819  -0.016427   0.001082  -0.000204
     60       0.000603   0.000457   0.072925  -0.000153   0.000064   0.000096
     61      -0.000090  -0.000114  -0.020330   0.000014   0.000170   0.000077
     62      -0.000239   0.000345   0.052242  -0.000115   0.000004  -0.000019
     63      -0.000966  -0.000877  -0.154454   0.000115   0.000878   0.000099
     64       0.001465   0.001484   0.260698  -0.000217  -0.001633  -0.000303
     65       0.000362   0.000414   0.072413  -0.000103  -0.000309   0.000152
     66      -0.004614  -0.004961  -0.773379   0.001662  -0.001210  -0.000453
     67       0.000002   0.000015   0.003536  -0.000003  -0.000051   0.000035
     68      -0.003034  -0.003241  -0.503374   0.001078  -0.000681  -0.000327
     69      -0.001246   0.000433   0.062860  -0.000125  -0.000414   0.000020
     70       0.000198  -0.000077  -0.012067   0.000040  -0.000021  -0.000173
     71       0.005586  -0.001469  -0.196908   0.000343   0.001202   0.000621
     72       0.000223   0.000205   0.000105   0.000689  -0.000102   0.003583
     73      -0.000550  -0.000178   0.000179  -0.000132  -0.000576   0.000956
     74      -0.000107   0.001907  -0.000150   0.001910   0.001943   0.006446
     75      -0.091107   0.002171   0.000133   0.000688   0.545953   0.000585
     76      -0.140677   0.003133   0.000403   0.000900   0.816692   0.002039
     77       0.001547   0.000035   0.000022  -0.000124   0.005267   0.000350


-----------
IR SPECTRUM
-----------

 Mode   freq       eps      Int      T**2         TX        TY        TZ
       cm**-1   L/(mol*cm) km/mol    a.u.
----------------------------------------------------------------------------
  6:     34.53   0.000554    2.80  0.005003  (-0.046421 -0.052985 -0.006418)
  7:     48.79   0.000314    1.59  0.002011  (-0.030384  0.005659  0.032486)
  8:     67.82   0.000307    1.55  0.001414  ( 0.012053 -0.021833 -0.028147)
  9:     78.54   0.000184    0.93  0.000731  (-0.001083  0.019459  0.018735)
 10:     82.62   0.000093    0.47  0.000351  ( 0.009352  0.013968  0.008288)
 11:    101.06   0.001232    6.22  0.003803  ( 0.026728 -0.030819 -0.046251)
 12:    118.44   0.000758    3.83  0.001998  ( 0.031501 -0.017868 -0.026205)
 13:    144.70   0.003820   19.30  0.008238  ( 0.065138  0.061110 -0.016142)
 14:    167.90   0.000252    1.27  0.000468  ( 0.015903 -0.014334 -0.003136)
 15:    192.39   0.006810   34.41  0.011045  ( 0.042628 -0.095626  0.009145)
 16:    221.32   0.006604   33.38  0.009312  ( 0.075328 -0.055584  0.023414)
 17:    230.45   0.001749    8.84  0.002368  ( 0.000404 -0.046070 -0.015676)
 18:    264.01   0.001713    8.66  0.002025  ( 0.023424  0.038248 -0.003661)
 19:    303.66   0.001229    6.21  0.001263  ( 0.004253  0.035283  0.000071)
 20:    361.73   0.000741    3.74  0.000639  (-0.023919 -0.000269 -0.008179)
 21:    367.09   0.003301   16.68  0.002806  ( 0.012199  0.051048 -0.007184)
 22:    390.12   0.001892    9.56  0.001513  ( 0.021151  0.032640  0.000724)
 23:    476.34   0.002189   11.06  0.001434  ( 0.034149 -0.008197  0.014162)
 24:    509.72   0.000904    4.57  0.000553  ( 0.019587  0.009249 -0.009177)
 25:    536.70   0.007340   37.10  0.004268  (-0.034452  0.047605  0.028544)
 26:    564.10   0.010300   52.05  0.005698  ( 0.033650  0.036896  0.056607)
 27:    624.02   0.005221   26.38  0.002611  ( 0.010700 -0.041670  0.027567)
 28:    642.51   0.003835   19.38  0.001863  ( 0.011307 -0.012736 -0.039658)
 29:    661.39   0.000638    3.22  0.000301  ( 0.013624  0.010602  0.001742)
 30:    699.99   0.001895    9.58  0.000845  ( 0.014675 -0.014021 -0.020809)
 31:    790.17   0.000368    1.86  0.000145  (-0.002533  0.009506  0.006961)
 32:    794.82   0.005099   25.77  0.002002  ( 0.037644 -0.003529  0.023928)
 33:    874.60   0.016607   83.92  0.005925  (-0.054046  0.023445 -0.049545)
 34:    893.63   0.003882   19.62  0.001356  ( 0.021311 -0.030027 -0.000020)
 35:    925.80   0.003012   15.22  0.001015  ( 0.022785 -0.021115  0.007083)
 36:    995.06   0.002524   12.75  0.000791  (-0.025069 -0.000156 -0.012767)
 37:   1003.35   0.001526    7.71  0.000475  (-0.018227 -0.008767  0.008102)
 38:   1038.80   0.004883   24.68  0.001467  ( 0.034971 -0.015393  0.002656)
 39:   1058.65   0.000756    3.82  0.000223  (-0.002160 -0.008999 -0.011712)
 40:   1082.95   0.018226   92.11  0.005252  (-0.012899  0.062855  0.033687)
 41:   1103.60   0.009216   46.58  0.002606  ( 0.019018 -0.041911 -0.022088)
 42:   1150.17   0.001686    8.52  0.000457  ( 0.000725  0.020136  0.007172)
 43:   1156.89   0.003101   15.67  0.000836  (-0.024719  0.012457 -0.008380)
 44:   1162.11   0.000228    1.15  0.000061  ( 0.007137 -0.003213 -0.000125)
 45:   1197.82   0.000986    4.98  0.000257  (-0.009051  0.006660 -0.011424)
 46:   1199.43   0.004295   21.71  0.001118  ( 0.027633 -0.018552 -0.003129)
 47:   1233.14   0.010114   51.11  0.002559  (-0.029502 -0.009978 -0.039868)
 48:   1264.19   0.002232   11.28  0.000551  ( 0.013803 -0.015780 -0.010554)
 49:   1294.39   0.001201    6.07  0.000290  ( 0.015769  0.003125  0.005586)
 50:   1324.45   0.000217    1.10  0.000051  ( 0.004675  0.004746  0.002598)
 51:   1340.41   0.012757   64.47  0.002970  ( 0.010096  0.010719  0.052471)
 52:   1389.54   0.029527  149.22  0.006631  ( 0.046716  0.051386  0.042523)
 53:   1392.93   0.013715   69.31  0.003073  ( 0.041063  0.023629  0.028776)
 54:   1429.88   0.020909  105.66  0.004563  ( 0.066469  0.011916 -0.001774)
 55:   1454.16   0.001214    6.14  0.000261  (-0.013802 -0.005241  0.006530)
 56:   1474.16   0.001633    8.25  0.000346  ( 0.006897 -0.005490 -0.016369)
 57:   1477.31   0.001330    6.72  0.000281  (-0.007504 -0.000494  0.014983)
 58:   1487.49   0.004172   21.08  0.000875  (-0.014791 -0.021674  0.013660)
 59:   1489.80   0.001384    6.99  0.000290  (-0.001137  0.007084  0.015441)
 60:   1513.80   0.000779    3.94  0.000161  ( 0.000412  0.012565  0.001608)
 61:   1559.57   0.092442  467.16  0.018497  ( 0.133491  0.022085 -0.013769)
 62:   1676.75   0.055251  279.22  0.010283  ( 0.028585  0.097195  0.004360)
 63:   1729.97   0.210917  1065.89  0.038046  (-0.123745  0.141892 -0.050994)
 64:   1755.71   0.045537  230.12  0.008094  (-0.014186  0.044243  0.077039)
 65:   1776.90   0.061808  312.35  0.010855  ( 0.031662  0.077696 -0.061771)
 66:   2526.43   0.309843  1565.82  0.038272  ( 0.083438 -0.162415  0.070223)
 67:   3046.03   0.001300    6.57  0.000133  ( 0.004362  0.010117  0.003439)
 68:   3049.21   0.012840   64.89  0.001314  (-0.026204 -0.019342  0.015914)
 69:   3051.73   0.002406   12.16  0.000246  (-0.009482 -0.012485 -0.000471)
 70:   3081.78   0.002002   10.12  0.000203  ( 0.012501 -0.002446  0.006363)
 71:   3106.20   0.005973   30.19  0.000600  ( 0.005500 -0.016786 -0.016973)
 72:   3145.56   0.003330   16.83  0.000330  ( 0.006803 -0.014571 -0.008474)
 73:   3162.60   0.001643    8.30  0.000162  (-0.000972  0.012691 -0.000366)
 74:   3164.94   0.002467   12.47  0.000243  ( 0.012928 -0.002630  0.008321)
 75:   3175.06   0.002258   11.41  0.000222  ( 0.004479  0.005550 -0.013081)
 76:   3187.41   0.003473   17.55  0.000340  (-0.011087 -0.014293 -0.003583)
 77:   3608.98   0.021526  108.78  0.001861  (-0.017643 -0.031089  0.024155)

* The epsilon (eps) is given for a Dirac delta lineshape.
** The dipole moment derivative (T) already includes vibrational overlap.

The first frequency considered to be a vibration is 6
The total number of vibrations considered is 72


--------------------------
THERMOCHEMISTRY AT 298.15K
--------------------------

Temperature         ... 298.15 K
Pressure            ... 1.00 atm
Total Mass          ... 200.19 AMU

Throughout the following assumptions are being made:
  (1) The electronic state is orbitally nondegenerate
      but the spin degeneracy is treated
  (2) There are no thermally accessible electronically excited states
  (3) Hindered rotations indicated by low frequency modes are not
      treated as such but are treated as vibrations and this may
      cause some error
  (4) All equations used are the standard statistical mechanics
      equations for an ideal gas
  (5) All vibrations are strictly harmonic

freq.      34.53  E(vib)   ...       0.54 
freq.      48.79  E(vib)   ...       0.53 
freq.      67.82  E(vib)   ...       0.50 
freq.      78.54  E(vib)   ...       0.49 
freq.      82.62  E(vib)   ...       0.48 
freq.     101.06  E(vib)   ...       0.46 
freq.     118.44  E(vib)   ...       0.44 
freq.     144.70  E(vib)   ...       0.41 
freq.     167.90  E(vib)   ...       0.38 
freq.     192.39  E(vib)   ...       0.36 
freq.     221.32  E(vib)   ...       0.33 
freq.     230.45  E(vib)   ...       0.32 
freq.     264.01  E(vib)   ...       0.29 
freq.     303.66  E(vib)   ...       0.26 
freq.     361.73  E(vib)   ...       0.22 
freq.     367.09  E(vib)   ...       0.22 
freq.     390.12  E(vib)   ...       0.20 
freq.     476.34  E(vib)   ...       0.15 
freq.     509.72  E(vib)   ...       0.14 
freq.     536.70  E(vib)   ...       0.12 
freq.     564.10  E(vib)   ...       0.11 
freq.     624.02  E(vib)   ...       0.09 
freq.     642.51  E(vib)   ...       0.09 
freq.     661.39  E(vib)   ...       0.08 
freq.     699.99  E(vib)   ...       0.07 
freq.     790.17  E(vib)   ...       0.05 
freq.     794.82  E(vib)   ...       0.05 
freq.     874.60  E(vib)   ...       0.04 
freq.     893.63  E(vib)   ...       0.03 
freq.     925.80  E(vib)   ...       0.03 
freq.     995.06  E(vib)   ...       0.02 
freq.    1003.35  E(vib)   ...       0.02 
freq.    1038.80  E(vib)   ...       0.02 
freq.    1058.65  E(vib)   ...       0.02 
freq.    1082.95  E(vib)   ...       0.02 
freq.    1103.60  E(vib)   ...       0.02 
freq.    1150.17  E(vib)   ...       0.01 
freq.    1156.89  E(vib)   ...       0.01 
freq.    1162.11  E(vib)   ...       0.01 
freq.    1197.82  E(vib)   ...       0.01 
freq.    1199.43  E(vib)   ...       0.01 
freq.    1233.14  E(vib)   ...       0.01 
freq.    1264.19  E(vib)   ...       0.01 
freq.    1294.39  E(vib)   ...       0.01 
freq.    1324.45  E(vib)   ...       0.01 
freq.    1340.41  E(vib)   ...       0.01 
freq.    1389.54  E(vib)   ...       0.00 
freq.    1392.93  E(vib)   ...       0.00 
freq.    1429.88  E(vib)   ...       0.00 
freq.    1454.16  E(vib)   ...       0.00 
freq.    1474.16  E(vib)   ...       0.00 
freq.    1477.31  E(vib)   ...       0.00 
freq.    1487.49  E(vib)   ...       0.00 
freq.    1489.80  E(vib)   ...       0.00 
freq.    1513.80  E(vib)   ...       0.00 
freq.    1559.57  E(vib)   ...       0.00 
freq.    1676.75  E(vib)   ...       0.00 
freq.    1729.97  E(vib)   ...       0.00 
freq.    1755.71  E(vib)   ...       0.00 
freq.    1776.90  E(vib)   ...       0.00 
freq.    2526.43  E(vib)   ...       0.00 
freq.    3046.03  E(vib)   ...       0.00 
freq.    3049.21  E(vib)   ...       0.00 
freq.    3051.73  E(vib)   ...       0.00 
freq.    3081.78  E(vib)   ...       0.00 
freq.    3106.20  E(vib)   ...       0.00 
freq.    3145.56  E(vib)   ...       0.00 
freq.    3162.60  E(vib)   ...       0.00 
freq.    3164.94  E(vib)   ...       0.00 
freq.    3175.06  E(vib)   ...       0.00 
freq.    3187.41  E(vib)   ...       0.00 
freq.    3608.98  E(vib)   ...       0.00 

------------
INNER ENERGY
------------

The inner energy is: U= E(el) + E(ZPE) + E(vib) + E(rot) + E(trans)
    E(el)   - is the total energy from the electronic structure calculation
              = E(kin-el) + E(nuc-el) + E(el-el) + E(nuc-nuc)
    E(ZPE)  - the the zero temperature vibrational energy from the frequency calculation
    E(vib)  - the the finite temperature correction to E(ZPE) due to population
              of excited vibrational states
    E(rot)  - is the rotational thermal energy
    E(trans)- is the translational thermal energy

Summary of contributions to the inner energy U:
Electronic energy                ...   -722.54430160 Eh
Zero point energy                ...      0.20432498 Eh     128.22 kcal/mol
Thermal vibrational correction   ...      0.01234889 Eh       7.75 kcal/mol
Thermal rotational correction    ...      0.00141627 Eh       0.89 kcal/mol
Thermal translational correction ...      0.00141627 Eh       0.89 kcal/mol
-----------------------------------------------------------------------
Total thermal energy                   -722.32479519 Eh


Summary of corrections to the electronic energy:
(perhaps to be used in another calculation)
Total thermal correction                  0.01518143 Eh       9.53 kcal/mol
Non-thermal (ZPE) correction              0.20432498 Eh     128.22 kcal/mol
-----------------------------------------------------------------------
Total correction                          0.21950641 Eh     137.74 kcal/mol


--------
ENTHALPY
--------

The enthalpy is H = U + kB*T
                kB is Boltzmann's constant
Total free energy                 ...   -722.32479519 Eh 
Thermal Enthalpy correction       ...      0.00094421 Eh       0.59 kcal/mol
-----------------------------------------------------------------------
Total Enthalpy                    ...   -722.32385098 Eh


Note: Only C1 symmetry has been detected, increase convergence thresholds 
      if your molecule has a higher symmetry. Symmetry factor of 1.0 is   
      used for the rotational entropy correction. 
 

Note: Rotational entropy computed according to Herzberg 
Infrared and Raman Spectra, Chapter V,1, Van Nostrand Reinhold, 1945 
Point Group:  C1, Symmetry Number:   1  
Rotational constants in cm-1:     0.029607     0.015207     0.011269 

Vibrational entropy computed according to the QRRHO of S. Grimme
Chem.Eur.J. 2012 18 9955


-------
ENTROPY
-------

The entropy contributions are T*S = T*(S(el)+S(vib)+S(rot)+S(trans))
     S(el)   - electronic entropy
     S(vib)  - vibrational entropy
     S(rot)  - rotational entropy
     S(trans)- translational entropy
The entropies will be listed as multiplied by the temperature to get
units of energy

Electronic entropy                ...      0.00065446 Eh      0.41 kcal/mol
Vibrational entropy               ...      0.02228919 Eh     13.99 kcal/mol
Rotational entropy                ...      0.01526626 Eh      9.58 kcal/mol
Translational entropy             ...      0.01985430 Eh     12.46 kcal/mol
-----------------------------------------------------------------------
Final entropy term                ...      0.05806421 Eh     36.44 kcal/mol

In case the symmetry of your molecule has not been determined correctly
or in case you have a reason to use a different symmetry number we print 
out the resulting rotational entropy values for sn=1,12 :
 --------------------------------------------------------
|  sn= 1 | S(rot)=       0.01526626 Eh      9.58 kcal/mol|
|  sn= 2 | S(rot)=       0.01461181 Eh      9.17 kcal/mol|
|  sn= 3 | S(rot)=       0.01422897 Eh      8.93 kcal/mol|
|  sn= 4 | S(rot)=       0.01395735 Eh      8.76 kcal/mol|
|  sn= 5 | S(rot)=       0.01374666 Eh      8.63 kcal/mol|
|  sn= 6 | S(rot)=       0.01357452 Eh      8.52 kcal/mol|
|  sn= 7 | S(rot)=       0.01342897 Eh      8.43 kcal/mol|
|  sn= 8 | S(rot)=       0.01330289 Eh      8.35 kcal/mol|
|  sn= 9 | S(rot)=       0.01319168 Eh      8.28 kcal/mol|
|  sn=10 | S(rot)=       0.01309221 Eh      8.22 kcal/mol|
|  sn=11 | S(rot)=       0.01300222 Eh      8.16 kcal/mol|
|  sn=12 | S(rot)=       0.01292006 Eh      8.11 kcal/mol|
 --------------------------------------------------------


-------------------
GIBBS FREE ENERGY
-------------------

The Gibbs free energy is G = H - T*S

Total enthalpy                    ...   -722.32385098 Eh 
Total entropy correction          ...     -0.05806421 Eh    -36.44 kcal/mol
-----------------------------------------------------------------------
Final Gibbs free energy         ...   -722.38191519 Eh

For completeness - the Gibbs free energy minus the electronic energy
G-E(el)                           ...      0.16238641 Eh    101.90 kcal/mol


Timings for individual modules:

Sum of individual times         ...     2308.801 sec (=  38.480 min)
GTO integral calculation        ...      266.549 sec (=   4.442 min)  11.5 %
SCF iterations                  ...     1023.026 sec (=  17.050 min)  44.3 %
SCF Gradient evaluation         ...      395.053 sec (=   6.584 min)  17.1 %
Geometry relaxation             ...        0.646 sec (=   0.011 min)   0.0 %
Analytical frequency calculation...      623.526 sec (=  10.392 min)  27.0 %
                             ****ORCA TERMINATED NORMALLY****
TOTAL RUN TIME: 0 days 0 hours 43 minutes 25 seconds 900 msec
