
                                 *****************
                                 * O   R   C   A *
                                 *****************

                                            #,                                       
                                            ###                                      
                                            ####                                     
                                            #####                                    
                                            ######                                   
                                           ########,                                 
                                     ,,################,,,,,                         
                               ,,#################################,,                 
                          ,,##########################################,,             
                       ,#########################################, ''#####,          
                    ,#############################################,,   '####,        
                  ,##################################################,,,,####,       
                ,###########''''           ''''###############################       
              ,#####''   ,,,,##########,,,,          '''####'''          '####       
            ,##' ,,,,###########################,,,                        '##       
           ' ,,###''''                  '''############,,,                           
         ,,##''                                '''############,,,,        ,,,,,,###''
      ,#''                                            '''#######################'''  
     '                                                          ''''####''''         
             ,#######,   #######,   ,#######,      ##                                
            ,#'     '#,  ##    ##  ,#'     '#,    #''#        ######   ,####,        
            ##       ##  ##   ,#'  ##            #'  '#       #        #'  '#        
            ##       ##  #######   ##           ,######,      #####,   #    #        
            '#,     ,#'  ##    ##  '#,     ,#' ,#      #,         ##   #,  ,#        
             '#######'   ##     ##  '#######'  #'      '#     #####' # '####'        



                  #######################################################
                  #                        -***-                        #
                  #          Department of theory and spectroscopy      #
                  #    Directorship and core code : Frank Neese         #
                  #        Max Planck Institute fuer Kohlenforschung    #
                  #                Kaiser Wilhelm Platz 1               #
                  #                 D-45470 Muelheim/Ruhr               #
                  #                      Germany                        #
                  #                                                     #
                  #                  All rights reserved                #
                  #                        -***-                        #
                  #######################################################


                         Program Version 5.0.4 -  RELEASE  -


 With contributions from (in alphabetic order):
   Daniel Aravena         : Magnetic Suceptibility
   Michael Atanasov       : Ab Initio Ligand Field Theory (pilot matlab implementation)
   Alexander A. Auer      : GIAO ZORA, VPT2 properties, NMR spectrum
   Ute Becker             : Parallelization
   Giovanni Bistoni       : ED, misc. LED, open-shell LED, HFLD
   Martin Brehm           : Molecular dynamics
   Dmytro Bykov           : SCF Hessian
   Vijay G. Chilkuri      : MRCI spin determinant printing, contributions to CSF-ICE
   Dipayan Datta          : RHF DLPNO-CCSD density
   Achintya Kumar Dutta   : EOM-CC, STEOM-CC
   Dmitry Ganyushin       : Spin-Orbit,Spin-Spin,Magnetic field MRCI
   Miquel Garcia          : C-PCM and meta-GGA Hessian, CC/C-PCM, Gaussian charge scheme
   Yang Guo               : DLPNO-NEVPT2, F12-NEVPT2, CIM, IAO-localization
   Andreas Hansen         : Spin unrestricted coupled pair/coupled cluster methods
   Benjamin Helmich-Paris : MC-RPA, TRAH-SCF, COSX integrals
   Lee Huntington         : MR-EOM, pCC
   Robert Izsak           : Overlap fitted RIJCOSX, COSX-SCS-MP3, EOM
   Marcus Kettner         : VPT2
   Christian Kollmar      : KDIIS, OOCD, Brueckner-CCSD(T), CCSD density, CASPT2, CASPT2-K
   Simone Kossmann        : Meta GGA functionals, TD-DFT gradient, OOMP2, MP2 Hessian
   Martin Krupicka        : Initial AUTO-CI
   Lucas Lang             : DCDCAS
   Marvin Lechner         : AUTO-CI (C++ implementation), FIC-MRCC
   Dagmar Lenk            : GEPOL surface, SMD
   Dimitrios Liakos       : Extrapolation schemes; Compound Job, initial MDCI parallelization
   Dimitrios Manganas     : Further ROCIS development; embedding schemes
   Dimitrios Pantazis     : SARC Basis sets
   Anastasios Papadopoulos: AUTO-CI, single reference methods and gradients
   Taras Petrenko         : DFT Hessian,TD-DFT gradient, ASA, ECA, R-Raman, ABS, FL, XAS/XES, NRVS
   Peter Pinski           : DLPNO-MP2, DLPNO-MP2 Gradient
   Christoph Reimann      : Effective Core Potentials
   Marius Retegan         : Local ZFS, SOC
   Christoph Riplinger    : Optimizer, TS searches, QM/MM, DLPNO-CCSD(T), (RO)-DLPNO pert. Triples
   Tobias Risthaus        : Range-separated hybrids, TD-DFT gradient, RPA, STAB
   Michael Roemelt        : Original ROCIS implementation
   Masaaki Saitow         : Open-shell DLPNO-CCSD energy and density
   Barbara Sandhoefer     : DKH picture change effects
   Avijit Sen             : IP-ROCIS
   Kantharuban Sivalingam : CASSCF convergence, NEVPT2, FIC-MRCI
   Bernardo de Souza      : ESD, SOC TD-DFT
   Georgi Stoychev        : AutoAux, RI-MP2 NMR, DLPNO-MP2 response
   Willem Van den Heuvel  : Paramagnetic NMR
   Boris Wezisla          : Elementary symmetry handling
   Frank Wennmohs         : Technical directorship


 We gratefully acknowledge several colleagues who have allowed us to
 interface, adapt or use parts of their codes:
   Stefan Grimme, W. Hujo, H. Kruse, P. Pracht,  : VdW corrections, initial TS optimization,
                  C. Bannwarth, S. Ehlert          DFT functionals, gCP, sTDA/sTD-DF
   Ed Valeev, F. Pavosevic, A. Kumar             : LibInt (2-el integral package), F12 methods
   Garnet Chan, S. Sharma, J. Yang, R. Olivares  : DMRG
   Ulf Ekstrom                                   : XCFun DFT Library
   Mihaly Kallay                                 : mrcc  (arbitrary order and MRCC methods)
   Jiri Pittner, Ondrej Demel                    : Mk-CCSD
   Frank Weinhold                                : gennbo (NPA and NBO analysis)
   Christopher J. Cramer and Donald G. Truhlar   : smd solvation model
   Lars Goerigk                                  : TD-DFT with DH, B97 family of functionals
   V. Asgeirsson, H. Jonsson                     : NEB implementation
   FAccTs GmbH                                   : IRC, NEB, NEB-TS, DLPNO-Multilevel, CI-OPT
                                                   MM, QMMM, 2- and 3-layer-ONIOM, Crystal-QMMM,
                                                   LR-CPCM, SF, NACMEs, symmetry and pop. for TD-DFT,
                                                   nearIR, NL-DFT gradient (VV10), updates on ESD,
                                                   ML-optimized integration grids
   S Lehtola, MJT Oliveira, MAL Marques          : LibXC Library
   Liviu Ungur et al                             : ANISO software


 Your calculation uses the libint2 library for the computation of 2-el integrals
 For citations please refer to: http://libint.valeyev.net

 Your ORCA version has been built with support for libXC version: 5.1.0
 For citations please refer to: https://tddft.org/programs/libxc/

 This ORCA versions uses:
   CBLAS   interface :  Fast vector & matrix operations
   LAPACKE interface :  Fast linear algebra routines
   SCALAPACK package :  Parallel linear algebra routines
   Shared memory     :  Shared parallel matrices
   BLAS/LAPACK       :  OpenBLAS 0.3.15  USE64BITINT DYNAMIC_ARCH NO_AFFINITY Zen SINGLE_THREADED
        Core in use  :  Zen
   Copyright (c) 2011-2014, The OpenBLAS Project




***************************************
The coordinates will be read from file: model.xyz
***************************************


================================================================================

----- Orbital basis set information -----
Your calculation utilizes the basis: EPR-II
   V. Barone, in Recent Advances in Density Functional Methods, Part 1 (ed. D. P. Chong), World Scientific, Singapore, 1995, p. 287.

----- AuxJ basis set information -----
Your calculation utilizes the auxiliary basis: def2/J
   F. Weigend, Phys. Chem. Chem. Phys. 8, 1057 (2006).

================================================================================
                                        WARNINGS
                       Please study these warnings very carefully!
================================================================================


WARNING: your system is open-shell and RHF/RKS was chosen
  ===> : WILL SWITCH to UHF/UKS


WARNING: Geometry Optimization
  ===> : Switching off AutoStart
         For restart on a previous wavefunction, please use MOREAD

INFO   : the flag for use of the SHARK integral package has been found!

================================================================================
                                       INPUT FILE
================================================================================
NAME = opt.inp
|  1> ! B3LYP EPR-II OPT
|  2> %pal nprocs 16 end
|  3> *XYZFile -1 2 model.xyz
|  4> 
|  5>                          ****END OF INPUT****
================================================================================

                       *****************************
                       * Geometry Optimization Run *
                       *****************************

Geometry optimization settings:
Update method            Update   .... BFGS
Choice of coordinates    CoordSys .... Z-matrix Internals
Initial Hessian          InHess   .... Almoef's Model

Convergence Tolerances:
Energy Change            TolE     ....  5.0000e-06 Eh
Max. Gradient            TolMAXG  ....  3.0000e-04 Eh/bohr
RMS Gradient             TolRMSG  ....  1.0000e-04 Eh/bohr
Max. Displacement        TolMAXD  ....  4.0000e-03 bohr
RMS Displacement         TolRMSD  ....  2.0000e-03 bohr
Strict Convergence                ....  False
------------------------------------------------------------------------------
                        ORCA OPTIMIZATION COORDINATE SETUP
------------------------------------------------------------------------------

The optimization will be done in new redundant internal coordinates
Making redundant internal coordinates   ...  (new redundants) done
Evaluating the initial hessian          ...  (Almloef) done
Evaluating the coordinates              ...  done
Calculating the B-matrix                .... done
Calculating the G-matrix                .... done
Diagonalizing the G-matrix              .... done
Small eigenvalue found = 7.715e-03
Small eigenvalue found = 1.258e-02
Small eigenvalue found = 2.010e-02
The first mode is                       ....   45
The number of degrees of freedom        ....   72

    -----------------------------------------------------------------
                    Redundant Internal Coordinates


    -----------------------------------------------------------------
         Definition                    Initial Value    Approx d2E/dq
    -----------------------------------------------------------------
      1. B(C   1,N   0)                  1.4520         0.445671   
      2. B(C   2,C   1)                  1.5502         0.346848   
      3. B(O   3,C   2)                  1.2299         1.007667   
      4. B(C   4,C   1)                  1.5177         0.390907   
      5. B(C   5,C   4)                  1.4929         0.428052   
      6. B(H   6,C   5)                  1.0941         0.354751   
      7. B(H   7,C   5)                  1.1002         0.346905   
      8. B(C   8,C   5)                  1.5952         0.294054   
      9. B(O   9,C   8)                  1.2597         0.902993   
     10. B(O  10,C   8)                  1.2287         1.012127   
     11. B(H  11,N   0)                  1.0125         0.428752   
     12. B(C  12,N   0)                  1.3454         0.659288   
     13. B(N  13,C   2)                  1.3322         0.692044   
     14. B(H  14,N  13)                  1.0514         0.371677   
     15. B(O  15,C  12)                  1.2192         1.048015   
     16. B(C  16,C  12)                  1.5303         0.373230   
     17. B(H  17,C  16)                  1.0961         0.352061   
     18. B(H  18,C  16)                  1.0955         0.352841   
     19. B(H  19,C  16)                  1.0963         0.351893   
     20. B(C  20,N  13)                  1.4446         0.457965   
     21. B(H  21,C  20)                  1.0993         0.347985   
     22. B(H  22,C  20)                  1.0948         0.353863   
     23. B(H  23,C  20)                  1.0993         0.348027   
     24. B(H  24,C   1)                  1.1033         0.342915   
     25. B(H  25,C   4)                  1.0901         0.359955   
     26. A(C   1,N   0,C  12)          124.9832         0.408384   
     27. A(C   1,N   0,H  11)          113.2129         0.338733   
     28. A(H  11,N   0,C  12)          121.4938         0.361877   
     29. A(C   4,C   1,H  24)          109.0710         0.324130   
     30. A(N   0,C   1,C   2)          105.6203         0.367463   
     31. A(N   0,C   1,C   4)          111.4876         0.375103   
     32. A(C   2,C   1,C   4)          113.7065         0.361564   
     33. A(C   2,C   1,H  24)          108.0406         0.317851   
     34. A(N   0,C   1,H  24)          108.7364         0.329219   
     35. A(C   1,C   2,N  13)          114.6060         0.396628   
     36. A(O   3,C   2,N  13)          124.4533         0.477393   
     37. A(C   1,C   2,O   3)          120.9402         0.423935   
     38. A(C   1,C   4,C   5)          124.5591         0.374855   
     39. A(C   1,C   4,H  25)          113.0756         0.326725   
     40. A(C   5,C   4,H  25)          118.1442         0.331660   
     41. A(C   4,C   5,H   7)          110.9982         0.329640   
     42. A(C   4,C   5,H   6)          109.7826         0.330861   
     43. A(H   7,C   5,C   8)          106.1372         0.310034   
     44. A(H   6,C   5,C   8)          107.1793         0.311156   
     45. A(C   4,C   5,C   8)          113.6629         0.357016   
     46. A(H   6,C   5,H   7)          108.8817         0.288464   
     47. A(O   9,C   8,O  10)          128.6490         0.501913   
     48. A(C   5,C   8,O  10)          116.5266         0.411971   
     49. A(C   5,C   8,O   9)          114.8204         0.403737   
     50. A(O  15,C  12,C  16)          120.6902         0.432578   
     51. A(N   0,C  12,C  16)          115.1394         0.398361   
     52. A(N   0,C  12,O  15)          124.1700         0.476583   
     53. A(H  14,N  13,C  20)          120.7014         0.332281   
     54. A(C   2,N  13,C  20)          120.7415         0.413904   
     55. A(C   2,N  13,H  14)          117.7771         0.356111   
     56. A(H  18,C  16,H  19)          109.3644         0.288866   
     57. A(H  17,C  16,H  19)          107.8084         0.288765   
     58. A(C  12,C  16,H  19)          108.2281         0.323045   
     59. A(H  17,C  16,H  18)          109.5495         0.288887   
     60. A(C  12,C  16,H  18)          113.3784         0.323188   
     61. A(C  12,C  16,H  17)          108.3560         0.323070   
     62. A(H  22,C  20,H  23)          109.3300         0.288497   
     63. A(H  21,C  20,H  23)          107.4975         0.287742   
     64. A(N  13,C  20,H  23)          111.2244         0.331514   
     65. A(H  21,C  20,H  22)          109.1556         0.288492   
     66. A(N  13,C  20,H  22)          108.4130         0.332429   
     67. A(N  13,C  20,H  21)          111.1889         0.331507   
     68. D(H  24,C   1,N   0,C  12)    -39.3364         0.016940   
     69. D(C   4,C   1,N   0,H  11)   -105.3922         0.016940   
     70. D(C   2,C   1,N   0,H  11)     18.5749         0.016940   
     71. D(H  24,C   1,N   0,H  11)    134.3216         0.016940   
     72. D(C   4,C   1,N   0,C  12)     80.9498         0.016940   
     73. D(C   2,C   1,N   0,C  12)   -155.0832         0.016940   
     74. D(O   3,C   2,C   1,N   0)    -15.2679         0.009106   
     75. D(N  13,C   2,C   1,N   0)    164.4548         0.009106   
     76. D(O   3,C   2,C   1,H  24)   -131.4892         0.009106   
     77. D(N  13,C   2,C   1,C   4)    -72.9862         0.009106   
     78. D(N  13,C   2,C   1,H  24)     48.2335         0.009106   
     79. D(O   3,C   2,C   1,C   4)    107.2911         0.009106   
     80. D(C   5,C   4,C   1,C   2)     43.5312         0.011366   
     81. D(C   5,C   4,C   1,H  24)    -77.1112         0.011366   
     82. D(C   5,C   4,C   1,N   0)    162.7996         0.011366   
     83. D(H  25,C   4,C   1,H  24)     79.2406         0.011366   
     84. D(H  25,C   4,C   1,C   2)   -160.1170         0.011366   
     85. D(H  25,C   4,C   1,N   0)    -40.8486         0.011366   
     86. D(C   8,C   5,C   4,H  25)    -89.4683         0.013535   
     87. D(C   8,C   5,C   4,C   1)     65.7912         0.013535   
     88. D(H   7,C   5,C   4,H  25)    150.9786         0.013535   
     89. D(H   7,C   5,C   4,C   1)    -53.7619         0.013535   
     90. D(H   6,C   5,C   4,H  25)     30.5523         0.013535   
     91. D(H   6,C   5,C   4,C   1)   -174.1882         0.013535   
     92. D(O  10,C   8,C   5,H   7)   -123.2554         0.006825   
     93. D(O  10,C   8,C   5,H   6)     -7.0193         0.006825   
     94. D(O  10,C   8,C   5,C   4)    114.4639         0.006825   
     95. D(O   9,C   8,C   5,H   7)     56.0870         0.006825   
     96. D(O   9,C   8,C   5,H   6)    172.3231         0.006825   
     97. D(O   9,C   8,C   5,C   4)    -66.1937         0.006825   
     98. D(O  15,C  12,N   0,C   1)     -2.3805         0.035562   
     99. D(C  16,C  12,N   0,H  11)      4.6731         0.035562   
    100. D(C  16,C  12,N   0,C   1)    177.8354         0.035562   
    101. D(O  15,C  12,N   0,H  11)   -175.5428         0.035562   
    102. D(C  20,N  13,C   2,O   3)     -3.7469         0.039542   
    103. D(C  20,N  13,C   2,C   1)    176.5416         0.039542   
    104. D(H  14,N  13,C   2,O   3)   -173.7013         0.039542   
    105. D(H  14,N  13,C   2,C   1)      6.5871         0.039542   
    106. D(H  19,C  16,C  12,O  15)    -59.1692         0.010419   
    107. D(H  19,C  16,C  12,N   0)    120.6231         0.010419   
    108. D(H  18,C  16,C  12,O  15)    179.3186         0.010419   
    109. D(H  18,C  16,C  12,N   0)     -0.8891         0.010419   
    110. D(H  17,C  16,C  12,O  15)     57.4799         0.010419   
    111. D(H  17,C  16,C  12,N   0)   -122.7277         0.010419   
    112. D(H  23,C  20,N  13,H  14)    116.2291         0.017901   
    113. D(H  23,C  20,N  13,C   2)    -53.4310         0.017901   
    114. D(H  22,C  20,N  13,H  14)     -4.0057         0.017901   
    115. D(H  22,C  20,N  13,C   2)   -173.6658         0.017901   
    116. D(H  21,C  20,N  13,H  14)   -124.0036         0.017901   
    117. D(H  21,C  20,N  13,C   2)     66.3363         0.017901   
    -----------------------------------------------------------------

Number of atoms                         .... 26
Number of degrees of freedom            .... 117

         *************************************************************
         *                GEOMETRY OPTIMIZATION CYCLE   1            *
         *************************************************************
---------------------------------
CARTESIAN COORDINATES (ANGSTROEM)
---------------------------------
  N     -1.948166    0.132130   -0.293911
  C     -0.545779    0.027637    0.067468
  C      0.086269    1.390757   -0.314054
  O     -0.502490    2.175180   -1.056131
  C      0.114801   -1.161120   -0.606154
  C      1.589970   -1.343310   -0.746038
  H      1.797664   -2.226200   -1.357893
  H      2.052501   -0.464822   -1.220042
  C      2.344789   -1.545620    0.644587
  O      2.327909   -0.542381    1.406290
  O      2.871977   -2.640091    0.828668
  H     -2.136475    0.879557   -0.950454
  C     -2.943436   -0.581670    0.262825
  N      1.281885    1.618747    0.227434
  H      1.733950    0.835930    0.764322
  O     -2.778398   -1.437553    1.115285
  C     -4.346159   -0.253749   -0.253417
  H     -4.967586    0.042020    0.599745
  H     -4.357066    0.540648   -1.007758
  H     -4.776382   -1.166945   -0.680970
  C      2.023892    2.814724   -0.097853
  H      1.514395    3.713150    0.278629
  H      3.014166    2.743464    0.363417
  H      2.136437    2.929814   -1.185286
  H     -0.469622   -0.089951    1.161848
  H     -0.516640   -2.049618   -0.620030

----------------------------
CARTESIAN COORDINATES (A.U.)
----------------------------
  NO LB      ZA    FRAG     MASS         X           Y           Z
   0 N     7.0000    0    14.007   -3.681500    0.249690   -0.555411
   1 C     6.0000    0    12.011   -1.031373    0.052226    0.127496
   2 C     6.0000    0    12.011    0.163025    2.628150   -0.593476
   3 O     8.0000    0    15.999   -0.949568    4.110494   -1.995798
   4 C     6.0000    0    12.011    0.216942   -2.194199   -1.145465
   5 C     6.0000    0    12.011    3.004608   -2.538488   -1.409808
   6 H     1.0000    0     1.008    3.397093   -4.206908   -2.566046
   7 H     1.0000    0     1.008    3.878665   -0.878386   -2.305545
   8 C     6.0000    0    12.011    4.431009   -2.920799    1.218093
   9 O     8.0000    0    15.999    4.399110   -1.024952    2.657503
  10 O     8.0000    0    15.999    5.427250   -4.989049    1.565956
  11 H     1.0000    0     1.008   -4.037353    1.662122   -1.796098
  12 C     6.0000    0    12.011   -5.562288   -1.099197    0.496667
  13 N     7.0000    0    14.007    2.422412    3.058989    0.429788
  14 H     1.0000    0     1.008    3.276691    1.579679    1.444359
  15 O     8.0000    0    15.999   -5.250411   -2.716581    2.107583
  16 C     6.0000    0    12.011   -8.213050   -0.479516   -0.478889
  17 H     1.0000    0     1.008   -9.387377    0.079406    1.133354
  18 H     1.0000    0     1.008   -8.233661    1.021677   -1.904387
  19 H     1.0000    0     1.008   -9.026054   -2.205206   -1.286847
  20 C     6.0000    0    12.011    3.824602    5.319058   -0.184915
  21 H     1.0000    0     1.008    2.861792    7.016837    0.526533
  22 H     1.0000    0     1.008    5.695948    5.184396    0.686759
  23 H     1.0000    0     1.008    4.037281    5.536546   -2.239866
  24 H     1.0000    0     1.008   -0.887457   -0.169983    2.195575
  25 H     1.0000    0     1.008   -0.976308   -3.873217   -1.171687

--------------------------------
INTERNAL COORDINATES (ANGSTROEM)
--------------------------------
 N      0   0   0     0.000000000000     0.00000000     0.00000000
 C      1   0   0     1.451965173983     0.00000000     0.00000000
 C      2   1   0     1.550206387933   105.62030738     0.00000000
 O      3   2   1     1.229892221676   120.94016060   344.73209811
 C      2   1   3     1.517654684153   111.48762982   236.03297653
 C      5   2   1     1.492944844298   124.55914214   162.79959979
 H      6   5   2     1.094074079193   109.78263910   185.81181127
 H      6   5   2     1.100161753617   110.99823474   306.23813070
 C      6   5   2     1.595154835584   113.66291561    65.79120594
 O      9   6   5     1.259747945317   114.82043565   293.80633348
 O      9   6   5     1.228690266807   116.52664616   114.46389384
 H      1   2   3     1.012499931190   113.21289387    18.57486798
 C      1   2   3     1.345372731475   124.98317252   204.91682653
 N      3   2   1     1.332173529875   114.60595338   164.45477662
 H     14   3   2     1.051386676850   117.77712153     6.58712698
 O     13   1   2     1.219205193039   124.17001610   357.61954115
 C     13   1   2     1.530251547797   115.13944673   177.83537925
 H     17  13   1     1.096146074177   108.35600192   237.27226847
 H     17  13   1     1.095543655241   113.37840119   359.11089277
 H     17  13   1     1.096275664217   108.22812885   120.62308779
 C     14   3   2     1.444557719493   120.74147864   176.54158052
 H     21  14   3     1.099315772110   111.18889008    66.33634540
 H     21  14   3     1.094755952519   108.41299586   186.33421654
 H     21  14   3     1.099282772818   111.22439616   306.56899757
 H      2   1   3     1.103310659240   108.73635460   115.74673698
 H      5   2   1     1.090109616443   113.07559177   319.15137735

---------------------------
INTERNAL COORDINATES (A.U.)
---------------------------
 N      0   0   0     0.000000000000     0.00000000     0.00000000
 C      1   0   0     2.743816534819     0.00000000     0.00000000
 C      2   1   0     2.929465524248   105.62030738     0.00000000
 O      3   2   1     2.324159473208   120.94016060   344.73209811
 C      2   1   3     2.867951718913   111.48762982   236.03297653
 C      5   2   1     2.821256888774   124.55914214   162.79959979
 H      6   5   2     2.067500379896   109.78263910   185.81181127
 H      6   5   2     2.079004417350   110.99823474   306.23813070
 C      6   5   2     3.014405780453   113.66291561    65.79120594
 O      9   6   5     2.380578614419   114.82043565   293.80633348
 O      9   6   5     2.321888107680   116.52664616   114.46389384
 H      1   2   3     1.913347580563   113.21289387    18.57486798
 C      1   2   3     2.542386010533   124.98317252   204.91682653
 N      3   2   1     2.517443134323   114.60595338   164.45477662
 H     14   3   2     1.986832880100   117.77712153     6.58712698
 O     13   1   2     2.303963915898   124.17001610   357.61954115
 C     13   1   2     2.891756341345   115.13944673   177.83537925
 H     17  13   1     2.071415882968   108.35600192   237.27226847
 H     17  13   1     2.070277476161   113.37840119   359.11089277
 H     17  13   1     2.071660772652   108.22812885   120.62308779
 C     14   3   2     2.729818474484   120.74147864   176.54158052
 H     21  14   3     2.077405743987   111.18889008    66.33634540
 H     21  14   3     2.068788933741   108.41299586   186.33421654
 H     21  14   3     2.077343384363   111.22439616   306.56899757
 H      2   1   3     2.084954986600   108.73635460   115.74673698
 H      5   2   1     2.060008631031   113.07559177   319.15137735

---------------------
BASIS SET INFORMATION
---------------------
There are 4 groups of distinct atoms

 Group   1 Type N   : 10s5p1d contracted to 6s2p1d pattern {511111/41/1}
 Group   2 Type C   : 10s5p1d contracted to 6s2p1d pattern {511111/41/1}
 Group   3 Type O   : 10s5p1d contracted to 6s2p1d pattern {511111/41/1}
 Group   4 Type H   : 6s1p contracted to 4s1p pattern {3111/1}

Atom   0N    basis set group =>   1
Atom   1C    basis set group =>   2
Atom   2C    basis set group =>   2
Atom   3O    basis set group =>   3
Atom   4C    basis set group =>   2
Atom   5C    basis set group =>   2
Atom   6H    basis set group =>   4
Atom   7H    basis set group =>   4
Atom   8C    basis set group =>   2
Atom   9O    basis set group =>   3
Atom  10O    basis set group =>   3
Atom  11H    basis set group =>   4
Atom  12C    basis set group =>   2
Atom  13N    basis set group =>   1
Atom  14H    basis set group =>   4
Atom  15O    basis set group =>   3
Atom  16C    basis set group =>   2
Atom  17H    basis set group =>   4
Atom  18H    basis set group =>   4
Atom  19H    basis set group =>   4
Atom  20C    basis set group =>   2
Atom  21H    basis set group =>   4
Atom  22H    basis set group =>   4
Atom  23H    basis set group =>   4
Atom  24H    basis set group =>   4
Atom  25H    basis set group =>   4
---------------------------------
AUXILIARY/J BASIS SET INFORMATION
---------------------------------
There are 4 groups of distinct atoms

 Group   1 Type N   : 12s5p4d2f1g contracted to 6s4p3d1f1g pattern {711111/2111/211/2/1}
 Group   2 Type C   : 12s5p4d2f1g contracted to 6s4p3d1f1g pattern {711111/2111/211/2/1}
 Group   3 Type O   : 12s5p4d2f1g contracted to 6s4p3d1f1g pattern {711111/2111/211/2/1}
 Group   4 Type H   : 5s2p1d contracted to 3s1p1d pattern {311/2/1}

Atom   0N    basis set group =>   1
Atom   1C    basis set group =>   2
Atom   2C    basis set group =>   2
Atom   3O    basis set group =>   3
Atom   4C    basis set group =>   2
Atom   5C    basis set group =>   2
Atom   6H    basis set group =>   4
Atom   7H    basis set group =>   4
Atom   8C    basis set group =>   2
Atom   9O    basis set group =>   3
Atom  10O    basis set group =>   3
Atom  11H    basis set group =>   4
Atom  12C    basis set group =>   2
Atom  13N    basis set group =>   1
Atom  14H    basis set group =>   4
Atom  15O    basis set group =>   3
Atom  16C    basis set group =>   2
Atom  17H    basis set group =>   4
Atom  18H    basis set group =>   4
Atom  19H    basis set group =>   4
Atom  20C    basis set group =>   2
Atom  21H    basis set group =>   4
Atom  22H    basis set group =>   4
Atom  23H    basis set group =>   4
Atom  24H    basis set group =>   4
Atom  25H    basis set group =>   4


           ************************************************************
           *        Program running with 16 parallel MPI-processes    *
           *              working on a common directory               *
           ************************************************************
------------------------------------------------------------------------------
                           ORCA GTO INTEGRAL CALCULATION
                           -- RI-GTO INTEGRALS CHOSEN --
------------------------------------------------------------------------------
------------------------------------------------------------------------------
                   ___                                                        
                  /   \      - P O W E R E D   B Y -                         
                 /     \                                                     
                 |  |  |   _    _      __       _____    __    __             
                 |  |  |  | |  | |    /  \     |  _  \  |  |  /  |          
                  \  \/   | |  | |   /    \    | | | |  |  | /  /          
                 / \  \   | |__| |  /  /\  \   | |_| |  |  |/  /          
                |  |  |   |  __  | /  /__\  \  |    /   |      \           
                |  |  |   | |  | | |   __   |  |    \   |  |\   \          
                \     /   | |  | | |  |  |  |  | |\  \  |  | \   \       
                 \___/    |_|  |_| |__|  |__|  |_| \__\ |__|  \__/        
                                                                              
                      - O R C A' S   B I G   F R I E N D -                    
                                      &                                       
                       - I N T E G R A L  F E E D E R -                       
                                                                              
 v1 FN, 2020, v2 2021                                                         
------------------------------------------------------------------------------


Reading SHARK input file opt.SHARKINP.tmp ... ok
----------------------
SHARK INTEGRAL PACKAGE
----------------------

Number of atoms                             ...     26
Number of basis functions                   ...    322
Number of shells                            ...    186
Maximum angular momentum                    ...      2
Integral batch strategy                     ... SHARK/LIBINT Hybrid
RI-J (if used) integral strategy            ... SPLIT-RIJ (Revised 2003 algorithm where possible)
Printlevel                                  ...      1
Contraction scheme used                     ... SEGMENTED contraction
Coulomb Range Separation                    ... NOT USED
Exchange Range Separation                   ... NOT USED
Finite Nucleus Model                        ... NOT USED
Auxiliary Coulomb fitting basis             ... AVAILABLE
   # of basis functions in Aux-J            ...    818
   # of shells in Aux-J                     ...    270
   Maximum angular momentum in Aux-J        ...      4
Auxiliary J/K fitting basis                 ... NOT available
Auxiliary Correlation fitting basis         ... NOT available
Auxiliary 'external' fitting basis          ... NOT available
Integral threshold                          ...     2.500000e-11
Primitive cut-off                           ...     2.500000e-12
Primitive pair pre-selection threshold      ...     2.500000e-12

Calculating pre-screening integrals         ... done (  0.0 sec) Dimension = 186
Organizing shell pair data                  ... done (  0.0 sec)
Shell pair information
Total number of shell pairs                 ...     17391
Shell pairs after pre-screening             ...     12367
Total number of primitive shell pairs       ...     47846
Primitive shell pairs kept                  ...     24729
          la=0 lb=0:   5564 shell pairs
          la=1 lb=0:   4221 shell pairs
          la=1 lb=1:    733 shell pairs
          la=2 lb=0:   1288 shell pairs
          la=2 lb=1:    479 shell pairs
          la=2 lb=2:     82 shell pairs

Calculating one electron integrals          ... done (  0.0 sec)
Calculating RI/J V-Matrix + Cholesky decomp.... done (  0.0 sec)
Calculating Nuclear repulsion               ... done (  0.0 sec) ENN=    915.978394327650 Eh

SHARK setup successfully completed in   0.3 seconds

Maximum memory used throughout the entire GTOINT-calculation: 19.3 MB


           ************************************************************
           *        Program running with 16 parallel MPI-processes    *
           *              working on a common directory               *
           ************************************************************
-------------------------------------------------------------------------------
                                 ORCA SCF
-------------------------------------------------------------------------------

------------
SCF SETTINGS
------------
Hamiltonian:
 Density Functional     Method          .... DFT(GTOs)
 Exchange Functional    Exchange        .... B88
   X-Alpha parameter    XAlpha          ....  0.666667
   Becke's b parameter  XBeta           ....  0.004200
 Correlation Functional Correlation     .... LYP
 LDA part of GGA corr.  LDAOpt          .... VWN-5
 Gradients option       PostSCFGGA      .... off
 Hybrid DFT is turned on
   Fraction HF Exchange ScalHFX         ....  0.200000
   Scaling of DF-GGA-X  ScalDFX         ....  0.720000
   Scaling of DF-GGA-C  ScalDFC         ....  0.810000
   Scaling of DF-LDA-C  ScalLDAC        ....  1.000000
   Perturbative correction              ....  0.000000
   Density functional embedding theory  .... OFF
   NL short-range parameter             ....  4.800000
 RI-approximation to the Coulomb term is turned on
   Number of AuxJ basis functions       .... 818
   RIJ-COSX (HFX calculated with COS-X)).... on


General Settings:
 Integral files         IntName         .... opt
 Hartree-Fock type      HFTyp           .... UHF
 Total Charge           Charge          ....   -1
 Multiplicity           Mult            ....    2
 Number of Electrons    NEL             ....  107
 Basis Dimension        Dim             ....  322
 Nuclear Repulsion      ENuc            ....    915.9783943276 Eh

Convergence Acceleration:
 DIIS                   CNVDIIS         .... on
   Start iteration      DIISMaxIt       ....    12
   Startup error        DIISStart       ....  0.200000
   # of expansion vecs  DIISMaxEq       ....     5
   Bias factor          DIISBfac        ....   1.050
   Max. coefficient     DIISMaxC        ....  10.000
 Trust-Rad. Augm. Hess. CNVTRAH         .... auto
   Auto Start mean grad. ratio tolernc. ....  1.125000
   Auto Start start iteration           ....    20
   Auto Start num. interpolation iter.  ....    10
   Max. Number of Micro iterations      ....    16
   Max. Number of Macro iterations      .... Maxiter - #DIIS iter
   Number of Davidson start vectors     ....     2
   Converg. threshold I  (grad. norm)   ....   1.000e-05
   Converg. threshold II (energy diff.) ....   1.000e-08
   Grad. Scal. Fac. for Micro threshold ....   0.100
   Minimum threshold for Micro iter.    ....   0.010
   NR start threshold (gradient norm)   ....   0.001
   Initial trust radius                 ....   0.400
   Minimum AH scaling param. (alpha)    ....   1.000
   Maximum AH scaling param. (alpha)    .... 1000.000
   Orbital update algorithm             .... Taylor
   White noise on init. David. guess    .... on
   Maximum white noise                  ....   0.010
   Quad. conv. algorithm                .... NR
 SOSCF                  CNVSOSCF        .... off
 Level Shifting         CNVShift        .... on
   Level shift para.    LevelShift      ....    0.2500
   Turn off err/grad.   ShiftErr        ....    0.0010
 Zerner damping         CNVZerner       .... off
 Static damping         CNVDamp         .... on
   Fraction old density DampFac         ....    0.7000
   Max. Damping (<1)    DampMax         ....    0.9800
   Min. Damping (>=0)   DampMin         ....    0.0000
   Turn off err/grad.   DampErr         ....    0.1000
 Fernandez-Rico         CNVRico         .... off

SCF Procedure:
 Maximum # iterations   MaxIter         ....   125
 SCF integral mode      SCFMode         .... Direct
   Integral package                     .... SHARK and LIBINT hybrid scheme
 Reset frequency        DirectResetFreq ....    20
 Integral Threshold     Thresh          ....  2.500e-11 Eh
 Primitive CutOff       TCut            ....  2.500e-12 Eh

Convergence Tolerance:
 Convergence Check Mode ConvCheckMode   .... Total+1el-Energy
 Convergence forced     ConvForced      .... 0
 Energy Change          TolE            ....  1.000e-08 Eh
 1-El. energy change                    ....  1.000e-05 Eh
 DIIS Error             TolErr          ....  5.000e-07


Diagonalization of the overlap matrix:
Smallest eigenvalue                        ... 1.035e-03
Time for diagonalization                   ...    0.013 sec
Threshold for overlap eigenvalues          ... 1.000e-08
Number of eigenvalues below threshold      ... 0
Time for construction of square roots      ...    0.009 sec
Total time needed                          ...    0.023 sec

Time for model grid setup =    0.103 sec

------------------------------
INITIAL GUESS: MODEL POTENTIAL
------------------------------
Loading Hartree-Fock densities                     ... done
Calculating cut-offs                               ... done
Initializing the effective Hamiltonian             ... done
Setting up the integral package (SHARK)            ... done
Starting the Coulomb interaction                   ... done (   0.1 sec)
Reading the grid                                   ... done
Mapping shells                                     ... done
Starting the XC term evaluation                    ... done (   0.0 sec)
  promolecular density results
     # of electrons  =    105.993976337
     EX              =    -90.596092753
     EC              =     -3.650803844
     EX+EC           =    -94.246896597
Transforming the Hamiltonian                       ... done (   0.0 sec)
Diagonalizing the Hamiltonian                      ... done (   0.0 sec)
Back transforming the eigenvectors                 ... done (   0.0 sec)
Now organizing SCF variables                       ... done
                      ------------------
                      INITIAL GUESS DONE (   0.3 sec)
                      ------------------
-------------------
DFT GRID GENERATION
-------------------

General Integration Accuracy     IntAcc      ... 4.388
Radial Grid Type                 RadialGrid  ... OptM3 with GC (2021)
Angular Grid (max. ang.)         AngularGrid ... 4 (Lebedev-302)
Angular grid pruning method      GridPruning ... 4 (adaptive)
Weight generation scheme         WeightScheme... Becke
Basis function cutoff            BFCut       ... 1.0000e-11
Integration weight cutoff        WCut        ... 1.0000e-14
Angular grids for H and He will be reduced by one unit
Partially contracted basis set               ... off
Rotationally invariant grid construction     ... off

Total number of grid points                  ...   122616
Total number of batches                      ...     1928
Average number of points per batch           ...       63
Average number of grid points per atom       ...     4716
Time for grid setup =    0.516 sec

--------------------
COSX GRID GENERATION
--------------------

GRIDX 1
-------
General Integration Accuracy     IntAcc      ... 3.816
Radial Grid Type                 RadialGrid  ... OptM3 with GC (2021)
Angular Grid (max. ang.)         AngularGrid ... 1 (Lebedev-50)
Angular grid pruning method      GridPruning ... 4 (adaptive)
Weight generation scheme         WeightScheme... Becke
Basis function cutoff            BFCut       ... 1.0000e-11
Integration weight cutoff        WCut        ... 1.0000e-14
Angular grids for H and He will be reduced by one unit
Partially contracted basis set               ... on
Rotationally invariant grid construction     ... off

Total number of grid points                  ...    15600
Total number of batches                      ...      255
Average number of points per batch           ...       61
Average number of grid points per atom       ...      600
UseSFitting                                  ... on

GRIDX 2
-------
General Integration Accuracy     IntAcc      ... 4.020
Radial Grid Type                 RadialGrid  ... OptM3 with GC (2021)
Angular Grid (max. ang.)         AngularGrid ... 2 (Lebedev-110)
Angular grid pruning method      GridPruning ... 4 (adaptive)
Weight generation scheme         WeightScheme... Becke
Basis function cutoff            BFCut       ... 1.0000e-11
Integration weight cutoff        WCut        ... 1.0000e-14
Angular grids for H and He will be reduced by one unit
Partially contracted basis set               ... on
Rotationally invariant grid construction     ... off

Total number of grid points                  ...    33978
Total number of batches                      ...      543
Average number of points per batch           ...       62
Average number of grid points per atom       ...     1307
UseSFitting                                  ... on

GRIDX 3
-------
General Integration Accuracy     IntAcc      ... 4.338
Radial Grid Type                 RadialGrid  ... OptM3 with GC (2021)
Angular Grid (max. ang.)         AngularGrid ... 3 (Lebedev-194)
Angular grid pruning method      GridPruning ... 4 (adaptive)
Weight generation scheme         WeightScheme... Becke
Basis function cutoff            BFCut       ... 1.0000e-11
Integration weight cutoff        WCut        ... 1.0000e-14
Angular grids for H and He will be reduced by one unit
Partially contracted basis set               ... on
Rotationally invariant grid construction     ... off

Total number of grid points                  ...    74458
Total number of batches                      ...     1177
Average number of points per batch           ...       63
Average number of grid points per atom       ...     2864
UseSFitting                                  ... on

Time for X-Grid setup             =    0.589 sec

--------------
SCF ITERATIONS
--------------
ITER       Energy         Delta-E        Max-DP      RMS-DP      [F,P]     Damp
               ***  Starting incremental Fock matrix formation  ***
  0   -721.7412024835   0.000000000000 0.05874900  0.00122317  0.1313819 0.7000
  1   -722.0143993081  -0.273196824592 0.06112879  0.00090265  0.0561969 0.7000
                               ***Turning on DIIS***
  2   -722.1105323101  -0.096133001948 0.10854841  0.00146016  0.0189270 0.0000
  3   -722.2727653050  -0.162232994911 0.05517456  0.00065046  0.0311446 0.0000
  4   -722.3055483031  -0.032782998080 0.02063678  0.00023621  0.0072593 0.0000
  5   -722.3080293107  -0.002481007640 0.00961018  0.00009189  0.0033179 0.0000
  6   -722.3082735762  -0.000244265473 0.00891276  0.00007246  0.0008212 0.0000
               *** Restarting incremental Fock matrix formation ***
                                   *** Resetting DIIS ***
  7   -722.3083767712  -0.000103195007 0.00170424  0.00002305  0.0010770 0.0000
  8   -722.3083774957  -0.000000724546 0.00076378  0.00000872  0.0012141 0.0000
  9   -722.3083964485  -0.000018952804 0.00046078  0.00000647  0.0001994 0.0000
 10   -722.3083982058  -0.000001757272 0.00031993  0.00000328  0.0001489 0.0000
 11   -722.3083986039  -0.000000398129 0.00017178  0.00000181  0.0000946 0.0000
 12   -722.3083987485  -0.000000144597 0.00007582  0.00000078  0.0000671 0.0000
 13   -722.3083987801  -0.000000031582 0.00003898  0.00000043  0.0000283 0.0000
 14   -722.3083987970  -0.000000016890 0.00001364  0.00000018  0.0000076 0.0000
 15   -722.3083987962   0.000000000859 0.00000808  0.00000012  0.0000099 0.0000
 16   -722.3083987992  -0.000000003015 0.00000309  0.00000005  0.0000023 0.0000
 17   -722.3083988016  -0.000000002387 0.00000207  0.00000003  0.0000015 0.0000
                 **** Energy Check signals convergence ****

               *****************************************************
               *                     SUCCESS                       *
               *           SCF CONVERGED AFTER  18 CYCLES          *
               *****************************************************

Old exchange energy                            =    -18.415059197 Eh
New exchange energy                            =    -18.415064057 Eh
Exchange energy change after final integration =     -0.000004859 Eh
Total energy after final integration           =   -722.308403667 Eh
Final COS-X integration done in                =     1.737 sec

----------------
TOTAL SCF ENERGY
----------------

Total Energy       :         -722.30840367 Eh          -19655.01091 eV

Components:
Nuclear Repulsion  :          915.97839433 Eh           24925.03927 eV
Electronic Energy  :        -1638.28679799 Eh          -44580.05018 eV
One Electron Energy:        -2819.63780452 Eh          -76726.24535 eV
Two Electron Energy:         1181.35100652 Eh           32146.19517 eV
Max COSX asymmetry :            0.00000129 Eh               0.00003 eV

Virial components:
Potential Energy   :        -1440.17663043 Eh          -39189.19845 eV
Kinetic Energy     :          717.86822677 Eh           19534.18755 eV
Virial Ratio       :            2.00618523


DFT components:
N(Alpha)           :       54.000090587878 electrons
N(Beta)            :       53.000090189659 electrons
N(Total)           :      107.000180777537 electrons
E(X)               :      -73.246238298367 Eh       
E(C)               :       -4.330385572109 Eh       
E(XC)              :      -77.576623870476 Eh       
DFET-embed. en.    :        0.000000000000 Eh       

---------------
SCF CONVERGENCE
---------------

  Last Energy change         ...   -5.9001e-09  Tolerance :   1.0000e-08
  Last MAX-Density change    ...    0.0000e+00  Tolerance :   1.0000e-07
  Last RMS-Density change    ...    0.0000e+00  Tolerance :   5.0000e-09
  Last DIIS Error            ...    9.9266e-07  Tolerance :   5.0000e-07

             **** THE GBW FILE WAS UPDATED (opt.gbw) ****
             **** DENSITY opt.scfp WAS UPDATED ****
             **** ENERGY FILE WAS UPDATED (opt.en.tmp) ****
----------------------
UHF SPIN CONTAMINATION
----------------------

Warning: in a DFT calculation there is little theoretical justification to 
         calculate <S**2> as in Hartree-Fock theory. We will do it anyways
         but you should keep in mind that the values have only limited relevance

Expectation value of <S**2>     :     0.754684
Ideal value S*(S+1) for S=0.5   :     0.750000
Deviation                       :     0.004684

             **** THE GBW FILE WAS UPDATED (opt.gbw) ****
             **** DENSITY opt.scfp WAS UPDATED ****
----------------
ORBITAL ENERGIES
----------------
                 SPIN UP ORBITALS
  NO   OCC          E(Eh)            E(eV) 
   0   1.0000     -18.992484      -516.8118 
   1   1.0000     -18.990672      -516.7625 
   2   1.0000     -18.934365      -515.2303 
   3   1.0000     -18.929948      -515.1101 
   4   1.0000     -14.235805      -387.3760 
   5   1.0000     -14.215933      -386.8352 
   6   1.0000     -10.178903      -276.9820 
   7   1.0000     -10.165698      -276.6227 
   8   1.0000     -10.125908      -275.5400 
   9   1.0000     -10.110857      -275.1304 
  10   1.0000     -10.103697      -274.9356 
  11   1.0000     -10.093268      -274.6518 
  12   1.0000     -10.065291      -273.8905 
  13   1.0000     -10.044826      -273.3336 
  14   1.0000      -0.923803       -25.1380 
  15   1.0000      -0.915616       -24.9152 
  16   1.0000      -0.875716       -23.8294 
  17   1.0000      -0.807153       -21.9638 
  18   1.0000      -0.798080       -21.7169 
  19   1.0000      -0.785597       -21.3772 
  20   1.0000      -0.665703       -18.1147 
  21   1.0000      -0.627401       -17.0724 
  22   1.0000      -0.599909       -16.3244 
  23   1.0000      -0.562745       -15.3131 
  24   1.0000      -0.486908       -13.2494 
  25   1.0000      -0.458293       -12.4708 
  26   1.0000      -0.438572       -11.9342 
  27   1.0000      -0.415203       -11.2982 
  28   1.0000      -0.367290        -9.9945 
  29   1.0000      -0.357665        -9.7326 
  30   1.0000      -0.352271        -9.5858 
  31   1.0000      -0.340920        -9.2769 
  32   1.0000      -0.338640        -9.2149 
  33   1.0000      -0.331203        -9.0125 
  34   1.0000      -0.316106        -8.6017 
  35   1.0000      -0.301911        -8.2154 
  36   1.0000      -0.299885        -8.1603 
  37   1.0000      -0.291251        -7.9253 
  38   1.0000      -0.280885        -7.6433 
  39   1.0000      -0.269124        -7.3232 
  40   1.0000      -0.265148        -7.2150 
  41   1.0000      -0.256246        -6.9728 
  42   1.0000      -0.251407        -6.8411 
  43   1.0000      -0.242238        -6.5916 
  44   1.0000      -0.220368        -5.9965 
  45   1.0000      -0.209668        -5.7054 
  46   1.0000      -0.149188        -4.0596 
  47   1.0000      -0.142922        -3.8891 
  48   1.0000      -0.138574        -3.7708 
  49   1.0000      -0.129942        -3.5359 
  50   1.0000      -0.108730        -2.9587 
  51   1.0000      -0.099713        -2.7133 
  52   1.0000      -0.084691        -2.3046 
  53   1.0000      -0.041190        -1.1208 
  54   0.0000       0.106450         2.8967 
  55   0.0000       0.117880         3.2077 
  56   0.0000       0.138723         3.7749 
  57   0.0000       0.150263         4.0889 
  58   0.0000       0.156483         4.2581 
  59   0.0000       0.168454         4.5839 
  60   0.0000       0.178259         4.8507 
  61   0.0000       0.181940         4.9509 
  62   0.0000       0.209228         5.6934 
  63   0.0000       0.210635         5.7317 
  64   0.0000       0.222804         6.0628 
  65   0.0000       0.232834         6.3357 
  66   0.0000       0.243099         6.6151 
  67   0.0000       0.255403         6.9499 
  68   0.0000       0.277821         7.5599 
  69   0.0000       0.286122         7.7858 
  70   0.0000       0.295922         8.0525 
  71   0.0000       0.296284         8.0623 
  72   0.0000       0.302984         8.2446 
  73   0.0000       0.309112         8.4114 
  74   0.0000       0.318679         8.6717 
  75   0.0000       0.328236         8.9318 
  76   0.0000       0.336680         9.1615 
  77   0.0000       0.345374         9.3981 
  78   0.0000       0.348392         9.4802 
  79   0.0000       0.351976         9.5777 
  80   0.0000       0.370350        10.0777 
  81   0.0000       0.374699        10.1961 
  82   0.0000       0.376222        10.2375 
  83   0.0000       0.378837        10.3087 
  84   0.0000       0.384646        10.4667 
  85   0.0000       0.399412        10.8685 
  86   0.0000       0.403735        10.9862 
  87   0.0000       0.409630        11.1466 
  88   0.0000       0.414695        11.2844 
  89   0.0000       0.426151        11.5962 
  90   0.0000       0.429425        11.6852 
  91   0.0000       0.441511        12.0141 
  92   0.0000       0.447109        12.1665 
  93   0.0000       0.467295        12.7157 
  94   0.0000       0.469454        12.7745 
  95   0.0000       0.491684        13.3794 
  96   0.0000       0.504442        13.7266 
  97   0.0000       0.511937        13.9305 
  98   0.0000       0.518489        14.1088 
  99   0.0000       0.522900        14.2288 
 100   0.0000       0.539151        14.6711 
 101   0.0000       0.544594        14.8192 
 102   0.0000       0.548933        14.9372 
 103   0.0000       0.560109        15.2413 
 104   0.0000       0.563844        15.3430 
 105   0.0000       0.585193        15.9239 
 106   0.0000       0.591631        16.0991 
 107   0.0000       0.599916        16.3245 
 108   0.0000       0.612577        16.6691 
 109   0.0000       0.616956        16.7882 
 110   0.0000       0.628644        17.1063 
 111   0.0000       0.640450        17.4275 
 112   0.0000       0.645125        17.5547 
 113   0.0000       0.652975        17.7684 
 114   0.0000       0.671895        18.2832 
 115   0.0000       0.686773        18.6880 
 116   0.0000       0.699778        19.0419 
 117   0.0000       0.722713        19.6660 
 118   0.0000       0.743686        20.2367 
 119   0.0000       0.760335        20.6898 
 120   0.0000       0.786791        21.4097 
 121   0.0000       0.798936        21.7401 
 122   0.0000       0.824284        22.4299 
 123   0.0000       0.845325        23.0025 
 124   0.0000       0.869636        23.6640 
 125   0.0000       0.876548        23.8521 
 126   0.0000       0.902151        24.5488 
 127   0.0000       0.909166        24.7397 
 128   0.0000       0.916548        24.9406 
 129   0.0000       0.922350        25.0984 
 130   0.0000       0.930143        25.3105 
 131   0.0000       0.946058        25.7436 
 132   0.0000       0.959719        26.1153 
 133   0.0000       0.969462        26.3804 
 134   0.0000       0.974417        26.5152 
 135   0.0000       0.979160        26.6443 
 136   0.0000       0.984154        26.7802 
 137   0.0000       1.008302        27.4373 
 138   0.0000       1.014558        27.6075 
 139   0.0000       1.018624        27.7182 
 140   0.0000       1.025508        27.9055 
 141   0.0000       1.032733        28.1021 
 142   0.0000       1.043239        28.3880 
 143   0.0000       1.044832        28.4313 
 144   0.0000       1.071720        29.1630 
 145   0.0000       1.076066        29.2812 
 146   0.0000       1.082834        29.4654 
 147   0.0000       1.087370        29.5888 
 148   0.0000       1.095220        29.8025 
 149   0.0000       1.101413        29.9710 
 150   0.0000       1.118905        30.4469 
 151   0.0000       1.130687        30.7676 
 152   0.0000       1.134963        30.8839 
 153   0.0000       1.158620        31.5277 
 154   0.0000       1.174429        31.9578 
 155   0.0000       1.179341        32.0915 
 156   0.0000       1.199597        32.6427 
 157   0.0000       1.215970        33.0882 
 158   0.0000       1.243171        33.8284 
 159   0.0000       1.276080        34.7239 
 160   0.0000       1.281770        34.8787 
 161   0.0000       1.291879        35.1538 
 162   0.0000       1.305125        35.5142 
 163   0.0000       1.319838        35.9146 
 164   0.0000       1.324686        36.0465 
 165   0.0000       1.343876        36.5687 
 166   0.0000       1.375214        37.4215 
 167   0.0000       1.404350        38.2143 
 168   0.0000       1.433454        39.0063 
 169   0.0000       1.452597        39.5272 
 170   0.0000       1.470391        40.0114 
 171   0.0000       1.473476        40.0953 
 172   0.0000       1.482295        40.3353 
 173   0.0000       1.498642        40.7801 
 174   0.0000       1.510922        41.1143 
 175   0.0000       1.512077        41.1457 
 176   0.0000       1.521225        41.3946 
 177   0.0000       1.556179        42.3458 
 178   0.0000       1.580104        42.9968 
 179   0.0000       1.581088        43.0236 
 180   0.0000       1.590266        43.2733 
 181   0.0000       1.613243        43.8986 
 182   0.0000       1.627270        44.2803 
 183   0.0000       1.635872        44.5143 
 184   0.0000       1.646888        44.8141 
 185   0.0000       1.663781        45.2738 
 186   0.0000       1.667399        45.3722 
 187   0.0000       1.689145        45.9640 
 188   0.0000       1.709569        46.5197 
 189   0.0000       1.721706        46.8500 
 190   0.0000       1.735534        47.2263 
 191   0.0000       1.744498        47.4702 
 192   0.0000       1.755318        47.7646 
 193   0.0000       1.767741        48.1027 
 194   0.0000       1.785723        48.5920 
 195   0.0000       1.806429        49.1554 
 196   0.0000       1.825251        49.6676 
 197   0.0000       1.853328        50.4316 
 198   0.0000       1.862871        50.6913 
 199   0.0000       1.869228        50.8643 
 200   0.0000       1.879769        51.1511 
 201   0.0000       1.895054        51.5670 
 202   0.0000       1.906717        51.8844 
 203   0.0000       1.920718        52.2654 
 204   0.0000       1.931102        52.5480 
 205   0.0000       1.946390        52.9640 
 206   0.0000       1.959853        53.3303 
 207   0.0000       1.987259        54.0761 
 208   0.0000       2.001884        54.4740 
 209   0.0000       2.023972        55.0751 
 210   0.0000       2.037362        55.4394 
 211   0.0000       2.047886        55.7258 
 212   0.0000       2.061089        56.0851 
 213   0.0000       2.085640        56.7531 
 214   0.0000       2.121285        57.7231 
 215   0.0000       2.142727        58.3066 
 216   0.0000       2.156997        58.6949 
 217   0.0000       2.164022        58.8860 
 218   0.0000       2.174549        59.1725 
 219   0.0000       2.200805        59.8869 
 220   0.0000       2.221740        60.4566 
 221   0.0000       2.241299        60.9889 
 222   0.0000       2.262227        61.5583 
 223   0.0000       2.276721        61.9527 
 224   0.0000       2.301736        62.6334 
 225   0.0000       2.335190        63.5437 
 226   0.0000       2.352591        64.0173 
 227   0.0000       2.382711        64.8368 
 228   0.0000       2.401745        65.3548 
 229   0.0000       2.423440        65.9452 
 230   0.0000       2.428945        66.0949 
 231   0.0000       2.465955        67.1020 
 232   0.0000       2.484037        67.5941 
 233   0.0000       2.490665        67.7744 
 234   0.0000       2.518647        68.5359 
 235   0.0000       2.554461        69.5104 
 236   0.0000       2.578377        70.1612 
 237   0.0000       2.581185        70.2376 
 238   0.0000       2.594957        70.6124 
 239   0.0000       2.608283        70.9750 
 240   0.0000       2.615018        71.1583 
 241   0.0000       2.657230        72.3069 
 242   0.0000       2.669510        72.6411 
 243   0.0000       2.717786        73.9547 
 244   0.0000       2.754742        74.9603 
 245   0.0000       2.789311        75.9010 
 246   0.0000       2.810985        76.4908 
 247   0.0000       2.815941        76.6257 
 248   0.0000       2.832127        77.0661 
 249   0.0000       2.865495        77.9741 
 250   0.0000       2.868650        78.0599 
 251   0.0000       2.877108        78.2901 
 252   0.0000       2.888735        78.6065 
 253   0.0000       2.920666        79.4754 
 254   0.0000       2.927541        79.6625 
 255   0.0000       3.050674        83.0130 
 256   0.0000       3.130226        85.1778 
 257   0.0000       3.147152        85.6384 
 258   0.0000       3.215128        87.4881 
 259   0.0000       3.237803        88.1051 
 260   0.0000       3.248870        88.4063 
 261   0.0000       3.343427        90.9793 
 262   0.0000       3.378532        91.9345 
 263   0.0000       3.479004        94.6685 
 264   0.0000       3.518959        95.7557 
 265   0.0000       3.544684        96.4557 
 266   0.0000       3.567054        97.0645 
 267   0.0000       3.579603        97.4059 
 268   0.0000       3.604149        98.0739 
 269   0.0000       3.704454       100.8033 
 270   0.0000       5.076369       138.1350 
 271   0.0000       5.102022       138.8331 
 272   0.0000       5.106524       138.9556 
 273   0.0000       5.121500       139.3631 
 274   0.0000       5.133732       139.6959 
 275   0.0000       5.176397       140.8569 
 276   0.0000       5.219161       142.0206 
 277   0.0000       5.278854       143.6449 
 278   0.0000       5.296965       144.1377 
 279   0.0000       5.337850       145.2503 
 280   0.0000       5.378524       146.3571 
 281   0.0000       5.409535       147.2009 
 282   0.0000       5.427518       147.6903 
 283   0.0000       5.446769       148.2141 
 284   0.0000       5.476364       149.0194 
 285   0.0000       5.591098       152.1415 
 286   0.0000       5.720453       155.6614 
 287   0.0000       5.796154       157.7214 
 288   0.0000       5.831300       158.6777 
 289   0.0000       5.924762       161.2210 
 290   0.0000       7.437089       202.3735 
 291   0.0000       7.506459       204.2611 
 292   0.0000       9.154473       249.1059 
 293   0.0000       9.195389       250.2192 
 294   0.0000       9.237403       251.3625 
 295   0.0000       9.339718       254.1467 
 296   0.0000      29.670649       807.3794 
 297   0.0000      29.738759       809.2328 
 298   0.0000      29.792393       810.6922 
 299   0.0000      29.988796       816.0366 
 300   0.0000      30.077330       818.4458 
 301   0.0000      30.162959       820.7758 
 302   0.0000      30.254388       823.2638 
 303   0.0000      30.319453       825.0343 
 304   0.0000      36.697532       998.5906 
 305   0.0000      36.725266       999.3453 
 306   0.0000      36.727239       999.3990 
 307   0.0000      36.740357       999.7559 
 308   0.0000      36.794350      1001.2252 
 309   0.0000      36.843828      1002.5715 
 310   0.0000      36.884509      1003.6785 
 311   0.0000      36.919040      1004.6182 
 312   0.0000      36.942344      1005.2523 
 313   0.0000      37.010953      1007.1192 
 314   0.0000      37.013814      1007.1971 
 315   0.0000      37.037214      1007.8338 
 316   0.0000      41.374800      1125.8655 
 317   0.0000      41.445924      1127.8009 
 318   0.0000      53.694373      1461.0982 
 319   0.0000      53.733861      1462.1727 
 320   0.0000      53.773846      1463.2607 
 321   0.0000      53.874882      1466.0101 

                 SPIN DOWN ORBITALS
  NO   OCC          E(Eh)            E(eV) 
   0   1.0000     -18.992425      -516.8102 
   1   1.0000     -18.990626      -516.7612 
   2   1.0000     -18.933918      -515.2181 
   3   1.0000     -18.928983      -515.0838 
   4   1.0000     -14.235452      -387.3663 
   5   1.0000     -14.215906      -386.8345 
   6   1.0000     -10.178942      -276.9831 
   7   1.0000     -10.165370      -276.6138 
   8   1.0000     -10.124440      -275.5000 
   9   1.0000     -10.111594      -275.1505 
  10   1.0000     -10.103680      -274.9351 
  11   1.0000     -10.093256      -274.6515 
  12   1.0000     -10.052458      -273.5413 
  13   1.0000     -10.045370      -273.3484 
  14   1.0000      -0.923609       -25.1327 
  15   1.0000      -0.915480       -24.9115 
  16   1.0000      -0.873821       -23.7779 
  17   1.0000      -0.806312       -21.9409 
  18   1.0000      -0.797326       -21.6963 
  19   1.0000      -0.784366       -21.3437 
  20   1.0000      -0.659160       -17.9367 
  21   1.0000      -0.622385       -16.9360 
  22   1.0000      -0.595461       -16.2033 
  23   1.0000      -0.561436       -15.2774 
  24   1.0000      -0.480048       -13.0628 
  25   1.0000      -0.453860       -12.3502 
  26   1.0000      -0.430853       -11.7241 
  27   1.0000      -0.413926       -11.2635 
  28   1.0000      -0.366884        -9.9834 
  29   1.0000      -0.353323        -9.6144 
  30   1.0000      -0.348648        -9.4872 
  31   1.0000      -0.340276        -9.2594 
  32   1.0000      -0.337956        -9.1963 
  33   1.0000      -0.327460        -8.9106 
  34   1.0000      -0.312643        -8.5075 
  35   1.0000      -0.300183        -8.1684 
  36   1.0000      -0.298480        -8.1221 
  37   1.0000      -0.288773        -7.8579 
  38   1.0000      -0.279446        -7.6041 
  39   1.0000      -0.267414        -7.2767 
  40   1.0000      -0.262563        -7.1447 
  41   1.0000      -0.255451        -6.9512 
  42   1.0000      -0.248668        -6.7666 
  43   1.0000      -0.239309        -6.5119 
  44   1.0000      -0.217759        -5.9255 
  45   1.0000      -0.206330        -5.6145 
  46   1.0000      -0.147442        -4.0121 
  47   1.0000      -0.141259        -3.8438 
  48   1.0000      -0.137445        -3.7401 
  49   1.0000      -0.128966        -3.5093 
  50   1.0000      -0.098978        -2.6933 
  51   1.0000      -0.091268        -2.4835 
  52   1.0000      -0.076936        -2.0935 
  53   0.0000       0.076982         2.0948 
  54   0.0000       0.107358         2.9214 
  55   0.0000       0.117891         3.2080 
  56   0.0000       0.140978         3.8362 
  57   0.0000       0.150842         4.1046 
  58   0.0000       0.157478         4.2852 
  59   0.0000       0.169487         4.6120 
  60   0.0000       0.179802         4.8927 
  61   0.0000       0.182415         4.9638 
  62   0.0000       0.209618         5.7040 
  63   0.0000       0.212210         5.7745 
  64   0.0000       0.226786         6.1712 
  65   0.0000       0.234483         6.3806 
  66   0.0000       0.244525         6.6539 
  67   0.0000       0.255906         6.9636 
  68   0.0000       0.278046         7.5660 
  69   0.0000       0.287150         7.8137 
  70   0.0000       0.296393         8.0653 
  71   0.0000       0.297215         8.0876 
  72   0.0000       0.304206         8.2779 
  73   0.0000       0.309817         8.4305 
  74   0.0000       0.319579         8.6962 
  75   0.0000       0.330042         8.9809 
  76   0.0000       0.338616         9.2142 
  77   0.0000       0.346839         9.4380 
  78   0.0000       0.352769         9.5993 
  79   0.0000       0.353384         9.6161 
  80   0.0000       0.371337        10.1046 
  81   0.0000       0.376186        10.2365 
  82   0.0000       0.379474        10.3260 
  83   0.0000       0.381252        10.3744 
  84   0.0000       0.387822        10.5532 
  85   0.0000       0.401150        10.9158 
  86   0.0000       0.406425        11.0594 
  87   0.0000       0.411867        11.2075 
  88   0.0000       0.416825        11.3424 
  89   0.0000       0.428374        11.6567 
  90   0.0000       0.432373        11.7655 
  91   0.0000       0.443311        12.0631 
  92   0.0000       0.449836        12.2407 
  93   0.0000       0.469676        12.7805 
  94   0.0000       0.470559        12.8046 
  95   0.0000       0.495744        13.4899 
  96   0.0000       0.508459        13.8359 
  97   0.0000       0.514152        13.9908 
  98   0.0000       0.521966        14.2034 
  99   0.0000       0.527917        14.3653 
 100   0.0000       0.541420        14.7328 
 101   0.0000       0.545414        14.8415 
 102   0.0000       0.552698        15.0397 
 103   0.0000       0.561109        15.2685 
 104   0.0000       0.565581        15.3902 
 105   0.0000       0.587551        15.9881 
 106   0.0000       0.596821        16.2403 
 107   0.0000       0.602946        16.4070 
 108   0.0000       0.616096        16.7648 
 109   0.0000       0.624748        17.0003 
 110   0.0000       0.630593        17.1593 
 111   0.0000       0.645272        17.5587 
 112   0.0000       0.650898        17.7118 
 113   0.0000       0.658506        17.9189 
 114   0.0000       0.678240        18.4558 
 115   0.0000       0.689186        18.7537 
 116   0.0000       0.703067        19.1314 
 117   0.0000       0.724912        19.7259 
 118   0.0000       0.745950        20.2983 
 119   0.0000       0.763427        20.7739 
 120   0.0000       0.788311        21.4510 
 121   0.0000       0.800750        21.7895 
 122   0.0000       0.827125        22.5072 
 123   0.0000       0.848594        23.0914 
 124   0.0000       0.872439        23.7403 
 125   0.0000       0.877241        23.8709 
 126   0.0000       0.903509        24.5857 
 127   0.0000       0.910347        24.7718 
 128   0.0000       0.917066        24.9546 
 129   0.0000       0.923369        25.1262 
 130   0.0000       0.930776        25.3277 
 131   0.0000       0.946947        25.7677 
 132   0.0000       0.960129        26.1264 
 133   0.0000       0.970011        26.3953 
 134   0.0000       0.974925        26.5291 
 135   0.0000       0.980754        26.6877 
 136   0.0000       0.985350        26.8127 
 137   0.0000       1.009021        27.4569 
 138   0.0000       1.015506        27.6333 
 139   0.0000       1.022335        27.8192 
 140   0.0000       1.028324        27.9821 
 141   0.0000       1.034732        28.1565 
 142   0.0000       1.044474        28.4216 
 143   0.0000       1.046089        28.4655 
 144   0.0000       1.073755        29.2184 
 145   0.0000       1.079286        29.3689 
 146   0.0000       1.085449        29.5366 
 147   0.0000       1.090410        29.6716 
 148   0.0000       1.099420        29.9167 
 149   0.0000       1.103425        30.0257 
 150   0.0000       1.120025        30.4774 
 151   0.0000       1.132359        30.8131 
 152   0.0000       1.136645        30.9297 
 153   0.0000       1.162404        31.6306 
 154   0.0000       1.178067        32.0568 
 155   0.0000       1.182610        32.1804 
 156   0.0000       1.200382        32.6641 
 157   0.0000       1.219641        33.1881 
 158   0.0000       1.244488        33.8643 
 159   0.0000       1.276783        34.7430 
 160   0.0000       1.283216        34.9181 
 161   0.0000       1.297218        35.2991 
 162   0.0000       1.306613        35.5547 
 163   0.0000       1.322587        35.9894 
 164   0.0000       1.327315        36.1181 
 165   0.0000       1.345250        36.6061 
 166   0.0000       1.379352        37.5341 
 167   0.0000       1.407192        38.2917 
 168   0.0000       1.437270        39.1101 
 169   0.0000       1.455867        39.6162 
 170   0.0000       1.472763        40.0759 
 171   0.0000       1.475298        40.1449 
 172   0.0000       1.495692        40.6999 
 173   0.0000       1.499917        40.8148 
 174   0.0000       1.513257        41.1778 
 175   0.0000       1.513705        41.1900 
 176   0.0000       1.523725        41.4627 
 177   0.0000       1.560150        42.4539 
 178   0.0000       1.581284        43.0289 
 179   0.0000       1.584459        43.1153 
 180   0.0000       1.591736        43.3134 
 181   0.0000       1.614284        43.9269 
 182   0.0000       1.629737        44.3474 
 183   0.0000       1.638189        44.5774 
 184   0.0000       1.649329        44.8805 
 185   0.0000       1.665830        45.3295 
 186   0.0000       1.668997        45.4157 
 187   0.0000       1.693200        46.0743 
 188   0.0000       1.715914        46.6924 
 189   0.0000       1.724018        46.9129 
 190   0.0000       1.738084        47.2957 
 191   0.0000       1.753583        47.7174 
 192   0.0000       1.761974        47.9457 
 193   0.0000       1.769165        48.1414 
 194   0.0000       1.787594        48.6429 
 195   0.0000       1.808306        49.2065 
 196   0.0000       1.826565        49.7034 
 197   0.0000       1.855083        50.4794 
 198   0.0000       1.865310        50.7577 
 199   0.0000       1.874643        51.0116 
 200   0.0000       1.882207        51.2175 
 201   0.0000       1.898078        51.6493 
 202   0.0000       1.914233        52.0889 
 203   0.0000       1.922581        52.3161 
 204   0.0000       1.932114        52.5755 
 205   0.0000       1.947719        53.0001 
 206   0.0000       1.964456        53.4556 
 207   0.0000       1.990001        54.1507 
 208   0.0000       2.003312        54.5129 
 209   0.0000       2.027356        55.1672 
 210   0.0000       2.041563        55.5537 
 211   0.0000       2.049472        55.7690 
 212   0.0000       2.066540        56.2334 
 213   0.0000       2.087760        56.8108 
 214   0.0000       2.122694        57.7614 
 215   0.0000       2.143491        58.3273 
 216   0.0000       2.159046        58.7506 
 217   0.0000       2.165993        58.9397 
 218   0.0000       2.179179        59.2985 
 219   0.0000       2.202918        59.9444 
 220   0.0000       2.223451        60.5032 
 221   0.0000       2.247134        61.1476 
 222   0.0000       2.265016        61.6342 
 223   0.0000       2.282614        62.1131 
 224   0.0000       2.302983        62.6674 
 225   0.0000       2.337278        63.6006 
 226   0.0000       2.355153        64.0870 
 227   0.0000       2.383902        64.8693 
 228   0.0000       2.402178        65.3666 
 229   0.0000       2.427027        66.0427 
 230   0.0000       2.433059        66.2069 
 231   0.0000       2.468197        67.1631 
 232   0.0000       2.484888        67.6172 
 233   0.0000       2.491787        67.8050 
 234   0.0000       2.519138        68.5492 
 235   0.0000       2.555241        69.5316 
 236   0.0000       2.578861        70.1744 
 237   0.0000       2.581653        70.2503 
 238   0.0000       2.597973        70.6944 
 239   0.0000       2.609129        70.9980 
 240   0.0000       2.617691        71.2310 
 241   0.0000       2.660019        72.3828 
 242   0.0000       2.672208        72.7145 
 243   0.0000       2.718219        73.9665 
 244   0.0000       2.757331        75.0308 
 245   0.0000       2.792392        75.9849 
 246   0.0000       2.813166        76.5501 
 247   0.0000       2.816575        76.6429 
 248   0.0000       2.833168        77.0944 
 249   0.0000       2.866651        78.0055 
 250   0.0000       2.869416        78.0808 
 251   0.0000       2.878200        78.3198 
 252   0.0000       2.889790        78.6352 
 253   0.0000       2.921605        79.5009 
 254   0.0000       2.928268        79.6822 
 255   0.0000       3.051610        83.0385 
 256   0.0000       3.130929        85.1969 
 257   0.0000       3.147489        85.6475 
 258   0.0000       3.215284        87.4923 
 259   0.0000       3.238113        88.1135 
 260   0.0000       3.250072        88.4390 
 261   0.0000       3.345699        91.0411 
 262   0.0000       3.379988        91.9741 
 263   0.0000       3.479851        94.6916 
 264   0.0000       3.519323        95.7656 
 265   0.0000       3.544856        96.4604 
 266   0.0000       3.567210        97.0687 
 267   0.0000       3.580425        97.4283 
 268   0.0000       3.605248        98.1038 
 269   0.0000       3.706685       100.8640 
 270   0.0000       5.076352       138.1346 
 271   0.0000       5.102122       138.8358 
 272   0.0000       5.106711       138.9607 
 273   0.0000       5.123387       139.4144 
 274   0.0000       5.135458       139.7429 
 275   0.0000       5.180218       140.9609 
 276   0.0000       5.225689       142.1982 
 277   0.0000       5.278778       143.6429 
 278   0.0000       5.302140       144.2786 
 279   0.0000       5.337986       145.2540 
 280   0.0000       5.379402       146.3810 
 281   0.0000       5.411743       147.2610 
 282   0.0000       5.428962       147.7296 
 283   0.0000       5.449010       148.2751 
 284   0.0000       5.480561       149.1336 
 285   0.0000       5.602666       152.4563 
 286   0.0000       5.721167       155.6809 
 287   0.0000       5.796131       157.7207 
 288   0.0000       5.831251       158.6764 
 289   0.0000       5.934310       161.4808 
 290   0.0000       7.437752       202.3915 
 291   0.0000       7.506546       204.2635 
 292   0.0000       9.155977       249.1468 
 293   0.0000       9.195498       250.2222 
 294   0.0000       9.237606       251.3681 
 295   0.0000       9.341170       254.1862 
 296   0.0000      29.675270       807.5051 
 297   0.0000      29.739241       809.2459 
 298   0.0000      29.793610       810.7253 
 299   0.0000      29.993110       816.1540 
 300   0.0000      30.082229       818.5791 
 301   0.0000      30.162967       820.7761 
 302   0.0000      30.253895       823.2503 
 303   0.0000      30.324290       825.1659 
 304   0.0000      36.697500       998.5898 
 305   0.0000      36.725237       999.3445 
 306   0.0000      36.727226       999.3986 
 307   0.0000      36.740351       999.7558 
 308   0.0000      36.801022      1001.4067 
 309   0.0000      36.844767      1002.5971 
 310   0.0000      36.879697      1003.5476 
 311   0.0000      36.920258      1004.6513 
 312   0.0000      36.953081      1005.5445 
 313   0.0000      37.013540      1007.1896 
 314   0.0000      37.014914      1007.2270 
 315   0.0000      37.042464      1007.9767 
 316   0.0000      41.375231      1125.8773 
 317   0.0000      41.445976      1127.8023 
 318   0.0000      53.695167      1461.1198 
 319   0.0000      53.733921      1462.1743 
 320   0.0000      53.773954      1463.2637 
 321   0.0000      53.875675      1466.0316 

                    ********************************
                    * MULLIKEN POPULATION ANALYSIS *
                    ********************************

--------------------------------------------
MULLIKEN ATOMIC CHARGES AND SPIN POPULATIONS
--------------------------------------------
   0 N :   -0.080375    0.007942
   1 C :   -0.108264   -0.025957
   2 C :    0.044240    0.007580
   3 O :   -0.399256    0.000637
   4 C :   -0.161524    0.925944
   5 C :   -0.359197   -0.056394
   6 H :    0.129487    0.005777
   7 H :    0.140874    0.029035
   8 C :    0.114571    0.043108
   9 O :   -0.412648    0.021732
  10 O :   -0.389239    0.037431
  11 H :    0.234103    0.000634
  12 C :    0.138278   -0.005995
  13 N :   -0.025905   -0.000622
  14 H :    0.267294   -0.000078
  15 O :   -0.329485    0.000977
  16 C :   -0.581053    0.001383
  17 H :    0.171641   -0.000088
  18 H :    0.143119   -0.000044
  19 H :    0.172874   -0.000040
  20 C :   -0.481331    0.001277
  21 H :    0.153042   -0.000064
  22 H :    0.146523   -0.000042
  23 H :    0.156071   -0.000081
  24 H :    0.186658    0.043934
  25 H :    0.129502   -0.037987
Sum of atomic charges         :   -1.0000000
Sum of atomic spin populations:    1.0000000

-----------------------------------------------------
MULLIKEN REDUCED ORBITAL CHARGES AND SPIN POPULATIONS
-----------------------------------------------------
CHARGE
  0 N s       :     3.345130  s :     3.345130
      pz      :     1.371898  p :     3.700080
      px      :     0.995596
      py      :     1.332586
      dz2     :     0.003713  d :     0.035166
      dxz     :     0.008201
      dyz     :     0.005361
      dx2y2   :     0.009308
      dxy     :     0.008583
  1 C s       :     3.175046  s :     3.175046
      pz      :     1.051973  p :     2.826222
      px      :     0.833207
      py      :     0.941043
      dz2     :     0.030104  d :     0.106996
      dxz     :     0.016404
      dyz     :     0.011386
      dx2y2   :     0.026428
      dxy     :     0.022673
  2 C s       :     3.087272  s :     3.087272
      pz      :     0.839826  p :     2.671292
      px      :     0.904540
      py      :     0.926926
      dz2     :     0.038964  d :     0.197196
      dxz     :     0.036727
[...]
  16 C :   -0.059583    0.000744
  17 H :    0.046115   -0.000072
  18 H :    0.029299    0.000036
  19 H :    0.046273   -0.000054
  20 C :   -0.017690    0.000878
  21 H :    0.028154   -0.000043
  22 H :    0.031904   -0.000003
  23 H :    0.030781   -0.000051
  24 H :    0.079436    0.034248
  25 H :    0.040549    0.009125

----------------------------------------------------
LOEWDIN REDUCED ORBITAL CHARGES AND SPIN POPULATIONS
----------------------------------------------------
CHARGE
  0 N s       :     3.066114  s :     3.066114
      pz      :     1.317549  p :     3.781932
      px      :     1.143063
      py      :     1.321319
      dz2     :     0.010022  d :     0.081612
      dxz     :     0.022329
      dyz     :     0.008779
      dx2y2   :     0.022425
      dxy     :     0.018057
  1 C s       :     2.850556  s :     2.850556
      pz      :     1.032520  p :     2.941393
      px      :     0.883263
      py      :     1.025609
      dz2     :     0.058508  d :     0.259820
      dxz     :     0.040199
      dyz     :     0.029683
      dx2y2   :     0.070229
      dxy     :     0.061201
  2 C s       :     2.842684  s :     2.842684
      pz      :     0.871962  p :     2.775166
      px      :     0.940912
      py      :     0.962292
      dz2     :     0.091565  d :     0.481641
      dxz     :     0.097451
      dyz     :     0.071728
      dx2y2   :     0.129860
      dxy     :     0.091036
  3 O s       :     3.590625  s :     3.590625
      pz      :     1.456387  p :     4.628309
      px      :     1.602724
      py      :     1.569197
      dz2     :     0.004441  d :     0.030097
      dxz     :     0.006017
      dyz     :     0.009254
      dx2y2   :     0.004232
      dxy     :     0.006154
  4 C s       :     2.932341  s :     2.932341
      pz      :     0.979368  p :     2.972216
      px      :     1.011497
      py      :     0.981350
      dz2     :     0.015433  d :     0.149013
      dxz     :     0.023390
      dyz     :     0.015853
      dx2y2   :     0.042103
      dxy     :     0.052234
  5 C s       :     2.881755  s :     2.881755
      pz      :     1.012027  p :     3.042733
      px      :     1.015922
      py      :     1.014784
      dz2     :     0.024317  d :     0.163334
      dxz     :     0.047364
      dyz     :     0.027283
      dx2y2   :     0.037671
      dxy     :     0.026699
  6 H s       :     0.874775  s :     0.874775
      pz      :     0.026660  p :     0.080856
      px      :     0.017440
      py      :     0.036756
  7 H s       :     0.868722  s :     0.868722
      pz      :     0.023769  p :     0.082236
      px      :     0.021011
      py      :     0.037457
  8 C s       :     2.858284  s :     2.858284
      pz      :     0.945488  p :     2.748084
      px      :     0.848888
      py      :     0.953709
      dz2     :     0.104849  d :     0.566803
      dxz     :     0.074222
      dyz     :     0.148194
      dx2y2   :     0.125155
      dxy     :     0.114382
  9 O s       :     3.606258  s :     3.606258
      pz      :     1.587293  p :     4.666079
      px      :     1.619800
      py      :     1.458985
      dz2     :     0.004045  d :     0.026284
      dxz     :     0.002185
      dyz     :     0.011802
      dx2y2   :     0.005235
      dxy     :     0.003017
 10 O s       :     3.603253  s :     3.603253
      pz      :     1.674930  p :     4.631943
      px      :     1.487623
      py      :     1.469390
      dz2     :     0.004326  d :     0.029544
      dxz     :     0.001748
      dyz     :     0.005003
      dx2y2   :     0.007437
      dxy     :     0.011030
 11 H s       :     0.758195  s :     0.758195
      pz      :     0.062243  p :     0.155835
      px      :     0.022376
      py      :     0.071216
 12 C s       :     2.841873  s :     2.841873
      pz      :     0.914409  p :     2.784109
      px      :     0.990458
      py      :     0.879242
      dz2     :     0.104010  d :     0.493162
      dxz     :     0.142605
      dyz     :     0.068569
      dx2y2   :     0.075547
      dxy     :     0.102429
 13 N s       :     3.092477  s :     3.092477
      pz      :     1.392175  p :     3.794200
      px      :     1.209639
      py      :     1.192386
      dz2     :     0.008321  d :     0.082095
      dxz     :     0.016915
      dyz     :     0.011046
      dx2y2   :     0.022142
      dxy     :     0.023671
 14 H s       :     0.693197  s :     0.693197
      pz      :     0.062065  p :     0.231523
      px      :     0.047605
      py      :     0.121853
 15 O s       :     3.586882  s :     3.586882
      pz      :     1.428726  p :     4.595636
      px      :     1.726906
      py      :     1.440004
      dz2     :     0.007571  d :     0.031594
      dxz     :     0.004202
      dyz     :     0.013301
      dx2y2   :     0.003756
      dxy     :     0.002763
 16 C s       :     2.880097  s :     2.880097
      pz      :     1.026355  p :     3.073194
      px      :     1.014957
      py      :     1.031882
      dz2     :     0.012619  d :     0.106291
      dxz     :     0.025534
      dyz     :     0.024136
      dx2y2   :     0.023355
      dxy     :     0.020649
 17 H s       :     0.872855  s :     0.872855
      pz      :     0.033919  p :     0.081030
      px      :     0.026573
      py      :     0.020539
 18 H s       :     0.889383  s :     0.889383
      pz      :     0.034657  p :     0.081318
      px      :     0.016819
      py      :     0.029842
 19 H s       :     0.872631  s :     0.872631
      pz      :     0.018869  p :     0.081096
      px      :     0.023276
      py      :     0.038951
 20 C s       :     2.861546  s :     2.861546
      pz      :     1.041584  p :     2.989469
      px      :     1.000971
      py      :     0.946914
      dz2     :     0.035603  d :     0.166674
      dxz     :     0.022624
      dyz     :     0.026951
      dx2y2   :     0.041314
      dxy     :     0.040181
 21 H s       :     0.893653  s :     0.893653
      pz      :     0.019337  p :     0.078193
      px      :     0.023185
      py      :     0.035671
 22 H s       :     0.890265  s :     0.890265
      pz      :     0.023644  p :     0.077831
      px      :     0.039915
      py      :     0.014271
 23 H s       :     0.890332  s :     0.890332
      pz      :     0.048178  p :     0.078887
      px      :     0.016148
      py      :     0.014561
 24 H s       :     0.835892  s :     0.835892
      pz      :     0.053351  p :     0.084672
      px      :     0.013085
      py      :     0.018236
 25 H s       :     0.869721  s :     0.869721
      pz      :     0.024286  p :     0.089730
      px      :     0.025231
      py      :     0.040213

SPIN
  0 N s       :     0.006462  s :     0.006462
      pz      :     0.000594  p :     0.006745
      px      :     0.005049
      py      :     0.001103
      dz2     :     0.000076  d :    -0.000348
      dxz     :    -0.000197
      dyz     :    -0.000030
      dx2y2   :    -0.000083
      dxy     :    -0.000114
  1 C s       :     0.000585  s :     0.000585
      pz      :    -0.003667  p :    -0.014388
      px      :    -0.002293
      py      :    -0.008427
      dz2     :     0.021101  d :     0.031855
      dxz     :     0.002649
      dyz     :     0.005771
      dx2y2   :     0.000710
      dxy     :     0.001624
  2 C s       :     0.003947  s :     0.003947
      pz      :     0.000748  p :     0.008146
      px      :     0.001716
      py      :     0.005682
      dz2     :    -0.000043  d :    -0.000639
      dxz     :    -0.000151
      dyz     :    -0.000296
      dx2y2   :    -0.000095
      dxy     :    -0.000054
  3 O s       :     0.000124  s :     0.000124
      pz      :     0.000767  p :     0.001348
      px      :     0.000861
      py      :    -0.000281
      dz2     :     0.000005  d :     0.000077
      dxz     :     0.000014
      dyz     :     0.000016
      dx2y2   :     0.000034
      dxy     :     0.000007
  4 C s       :     0.033283  s :     0.033283
      pz      :     0.625971  p :     0.734447
      px      :     0.039876
      py      :     0.068600
      dz2     :    -0.000674  d :    -0.002592
      dxz     :     0.000695
      dyz     :    -0.000801
      dx2y2   :    -0.000984
      dxy     :    -0.000828
  5 C s       :    -0.003092  s :    -0.003092
      pz      :    -0.002198  p :    -0.013872
      px      :    -0.009513
      py      :    -0.002161
      dz2     :     0.000869  d :     0.034261
      dxz     :     0.027489
      dyz     :     0.000336
      dx2y2   :     0.002911
      dxy     :     0.002656
  6 H s       :     0.004459  s :     0.004459
      pz      :     0.000196  p :    -0.000560
      px      :    -0.000526
      py      :    -0.000230
  7 H s       :     0.022570  s :     0.022570
      pz      :     0.000279  p :    -0.000844
      px      :    -0.000814
      py      :    -0.000309
  8 C s       :     0.010950  s :     0.010950
      pz      :     0.030716  p :     0.041799
      px      :     0.010383
      py      :     0.000700
      dz2     :     0.002953  d :     0.004815
      dxz     :    -0.000232
      dyz     :     0.001099
      dx2y2   :     0.000418
      dxy     :     0.000577
  9 O s       :     0.001995  s :     0.001995
      pz      :     0.013868  p :     0.011769
      px      :    -0.001980
      py      :    -0.000119
      dz2     :     0.000153  d :     0.000261
      dxz     :     0.000021
      dyz     :     0.000041
      dx2y2   :     0.000007
      dxy     :     0.000039
 10 O s       :     0.001291  s :     0.001291
      pz      :     0.027751  p :     0.027993
      px      :    -0.000679
      py      :     0.000921
      dz2     :     0.000024  d :     0.000306
      dxz     :     0.000070
      dyz     :     0.000162
      dx2y2   :     0.000040
      dxy     :     0.000009
 11 H s       :    -0.000382  s :    -0.000382
      pz      :     0.000057  p :     0.000553
      px      :     0.000341
      py      :     0.000155
 12 C s       :     0.000349  s :     0.000349
      pz      :    -0.000512  p :    -0.001431
      px      :    -0.000174
      py      :    -0.000745
      dz2     :    -0.000046  d :     0.000446
      dxz     :     0.000031
      dyz     :     0.000006
      dx2y2   :     0.000363
      dxy     :     0.000091
 13 N s       :     0.000214  s :     0.000214
      pz      :    -0.000238  p :    -0.000051
      px      :    -0.000215
      py      :     0.000402
      dz2     :     0.000077  d :     0.000216
      dxz     :     0.000004
      dyz     :     0.000010
      dx2y2   :     0.000022
      dxy     :     0.000103
 14 H s       :    -0.000087  s :    -0.000087
      pz      :    -0.000038  p :     0.000266
      px      :     0.000035
      py      :     0.000268
 15 O s       :     0.000053  s :     0.000053
      pz      :     0.000765  p :     0.001904
      px      :     0.000101
      py      :     0.001038
      dz2     :    -0.000007  d :    -0.000011
      dxz     :    -0.000001
      dyz     :    -0.000001
      dx2y2   :    -0.000005
      dxy     :     0.000004
 16 C s       :     0.000533  s :     0.000533
      pz      :     0.000019  p :     0.000281
      px      :     0.000263
      py      :    -0.000002
      dz2     :    -0.000002  d :    -0.000070
      dxz     :    -0.000028
      dyz     :    -0.000004
      dx2y2   :    -0.000005
      dxy     :    -0.000031
 17 H s       :    -0.000084  s :    -0.000084
      pz      :    -0.000000  p :     0.000012
      px      :     0.000012
      py      :    -0.000000
 18 H s       :     0.000013  s :     0.000013
      pz      :     0.000014  p :     0.000023
      px      :    -0.000002
      py      :     0.000010
 19 H s       :    -0.000070  s :    -0.000070
      pz      :    -0.000001  p :     0.000016
      px      :     0.000014
      py      :     0.000003
 20 C s       :     0.000125  s :     0.000125
      pz      :     0.000083  p :     0.000748
      px      :     0.000153
      py      :     0.000512
      dz2     :     0.000021  d :     0.000006
      dxz     :     0.000002
      dyz     :    -0.000012
      dx2y2   :     0.000008
      dxy     :    -0.000013
 21 H s       :    -0.000078  s :    -0.000078
      pz      :     0.000002  p :     0.000034
      px      :     0.000011
      py      :     0.000022
 22 H s       :    -0.000026  s :    -0.000026
      pz      :     0.000003  p :     0.000023
      px      :     0.000004
      py      :     0.000016
 23 H s       :    -0.000068  s :    -0.000068
      pz      :     0.000011  p :     0.000017
      px      :     0.000000
      py      :     0.000005
 24 H s       :     0.034397  s :     0.034397
      pz      :    -0.000674  p :    -0.000149
      px      :     0.000260
      py      :     0.000264
 25 H s       :    -0.015574  s :    -0.015574
      pz      :     0.019153  p :     0.024699
      px      :     0.002185
      py      :     0.003362


                      *****************************
                      * MAYER POPULATION ANALYSIS *
                      *****************************

  NA   - Mulliken gross atomic population
  ZA   - Total nuclear charge
  QA   - Mulliken gross atomic charge
  VA   - Mayer's total valence
  BVA  - Mayer's bonded valence
  FA   - Mayer's free valence

  ATOM       NA         ZA         QA         VA         BVA        FA
  0 N      7.1019     7.0000    -0.1019     3.2548     3.2546     0.0002
  1 C      6.1098     6.0000    -0.1098     4.1361     4.1341     0.0020
  2 C      5.9434     6.0000     0.0566     4.0667     4.0665     0.0002
  3 O      8.4087     8.0000    -0.4087     2.0272     2.0272    -0.0000
  4 C      6.1538     6.0000    -0.1538     3.8635     3.1906     0.6729
  5 C      6.3572     6.0000    -0.3572     4.0319     4.0289     0.0030
  6 H      0.8667     1.0000     0.1333     0.9678     0.9677     0.0000
  7 H      0.8556     1.0000     0.1444     0.9670     0.9661     0.0009
  8 C      5.8747     6.0000     0.1253     4.0674     4.0638     0.0036
  9 O      8.4182     8.0000    -0.4182     1.8980     1.8976     0.0004
 10 O      8.3940     8.0000    -0.3940     1.9464     1.9450     0.0014
 11 H      0.7634     1.0000     0.2366     0.9843     0.9843     0.0000
 12 C      5.8510     6.0000     0.1490     3.9746     3.9745     0.0000
 13 N      7.0477     7.0000    -0.0477     3.0746     3.0746     0.0000
 14 H      0.7275     1.0000     0.2725     0.9909     0.9909     0.0000
 15 O      8.3379     8.0000    -0.3379     2.0910     2.0910     0.0000
 16 C      6.5755     6.0000    -0.5755     3.8785     3.8785     0.0000
 17 H      0.8271     1.0000     0.1729     0.9616     0.9616     0.0000
 18 H      0.8549     1.0000     0.1451     0.9723     0.9723     0.0000
 19 H      0.8263     1.0000     0.1737     0.9607     0.9607     0.0000
 20 C      6.4786     6.0000    -0.4786     3.9877     3.9877     0.0000
 21 H      0.8450     1.0000     0.1550     0.9549     0.9549     0.0000
 22 H      0.8513     1.0000     0.1487     0.9649     0.9649     0.0000
 23 H      0.8438     1.0000     0.1562     0.9595     0.9595     0.0000
 24 H      0.8094     1.0000     0.1906     0.9451     0.9432     0.0020
 25 H      0.8768     1.0000     0.1232     0.9761     0.9740     0.0021

  Mayer bond orders larger than 0.100000
B(  0-N ,  1-C ) :   0.9576 B(  0-N , 11-H ) :   0.8920 B(  0-N , 12-C ) :   1.2458 
B(  1-C ,  2-C ) :   0.8991 B(  1-C ,  4-C ) :   1.0096 B(  1-C , 15-O ) :   0.1311 
B(  1-C , 24-H ) :   0.9599 B(  2-C ,  3-O ) :   1.7617 B(  2-C , 13-N ) :   1.3113 
B(  4-C ,  5-C ) :   1.0425 B(  4-C , 25-H ) :   0.9867 B(  5-C ,  6-H ) :   0.9946 
B(  5-C ,  7-H ) :   0.9649 B(  5-C ,  8-C ) :   0.8376 B(  8-C ,  9-O ) :   1.4758 
B(  8-C , 10-O ) :   1.7240 B(  9-O , 14-H ) :   0.2282 B( 12-C , 15-O ) :   1.8396 
B( 12-C , 16-C ) :   0.8777 B( 13-N , 14-H ) :   0.7375 B( 13-N , 20-C ) :   0.9601 
B( 16-C , 17-H ) :   0.9683 B( 16-C , 18-H ) :   0.9781 B( 16-C , 19-H ) :   0.9672 
B( 20-C , 21-H ) :   0.9623 B( 20-C , 22-H ) :   0.9708 B( 20-C , 23-H ) :   0.9574 


-------
TIMINGS
-------

Total SCF time: 0 days 0 hours 0 min 14 sec 

Total time                  ....      14.300 sec
Sum of individual times     ....      13.618 sec  ( 95.2%)

Fock matrix formation       ....      11.737 sec  ( 82.1%)
  Split-RI-J                ....       1.058 sec  (  9.0% of F)
  Chain of spheres X        ....       7.546 sec  ( 64.3% of F)
  XC integration            ....       2.815 sec  ( 24.0% of F)
    Basis function eval.    ....       0.273 sec  (  9.7% of XC)
    Density eval.           ....       0.383 sec  ( 13.6% of XC)
    XC-Functional eval.     ....       0.063 sec  (  2.2% of XC)
    XC-Potential eval.      ....       0.261 sec  (  9.3% of XC)
Diagonalization             ....       0.428 sec  (  3.0%)
Density matrix formation    ....       0.027 sec  (  0.2%)
Population analysis         ....       0.058 sec  (  0.4%)
Initial guess               ....       0.044 sec  (  0.3%)
Orbital Transformation      ....       0.000 sec  (  0.0%)
Orbital Orthonormalization  ....       0.029 sec  (  0.2%)
DIIS solution               ....       0.218 sec  (  1.5%)
Grid generation             ....       1.105 sec  (  7.7%)

Maximum memory used throughout the entire SCF-calculation: 76.5 MB

-------------------------   --------------------
FINAL SINGLE POINT ENERGY      -722.310520851823
-------------------------   --------------------

                                *** OPTIMIZATION RUN DONE ***

                            ***************************************
                            *     ORCA property calculations      *
                            ***************************************

                                    ---------------------
                                    Active property flags
                                    ---------------------
   (+) Dipole Moment


------------------------------------------------------------------------------
                       ORCA ELECTRIC PROPERTIES CALCULATION
------------------------------------------------------------------------------

Dipole Moment Calculation                       ... on
Quadrupole Moment Calculation                   ... off
Polarizability Calculation                      ... off
GBWName                                         ... opt.gbw
Electron density                                ... opt.scfp
The origin for moment calculation is the CENTER OF MASS  = (-0.026329, -0.145874  0.184813)

-------------
DIPOLE MOMENT
-------------
                                X             Y             Z
Electronic contribution:      2.40809      -4.05545       3.14267
Nuclear contribution   :     -4.54576       6.12053      -4.69924
                        -----------------------------------------
Total Dipole Moment    :     -2.13766       2.06508      -1.55657
                        -----------------------------------------
Magnitude (a.u.)       :      3.35515
Magnitude (Debye)      :      8.52812



--------------------
Rotational spectrum 
--------------------
 
Rotational constants in cm-1:     0.028832     0.014873     0.010965 
Rotational constants in MHz :   864.360366   445.872969   328.719365 

 Dipole components along the rotational axes: 
x,y,z [a.u.] :    -2.375928     2.182251    -0.921844 
x,y,z [Debye]:    -6.039129     5.546841    -2.343141 

 

Timings for individual modules:

Sum of individual times         ...     1389.847 sec (=  23.164 min)
GTO integral calculation        ...      304.643 sec (=   5.077 min)  21.9 %
SCF iterations                  ...      653.906 sec (=  10.898 min)  47.0 %
SCF Gradient evaluation         ...      430.623 sec (=   7.177 min)  31.0 %
Geometry relaxation             ...        0.674 sec (=   0.011 min)   0.0 %
                             ****ORCA TERMINATED NORMALLY****
TOTAL RUN TIME: 0 days 0 hours 27 minutes 14 seconds 455 msec
