
                                 *****************
                                 * O   R   C   A *
                                 *****************

                                            #,                                       
                                            ###                                      
                                            ####                                     
                                            #####                                    
                                            ######                                   
                                           ########,                                 
                                     ,,################,,,,,                         
                               ,,#################################,,                 
                          ,,##########################################,,             
                       ,#########################################, ''#####,          
                    ,#############################################,,   '####,        
                  ,##################################################,,,,####,       
                ,###########''''           ''''###############################       
              ,#####''   ,,,,##########,,,,          '''####'''          '####       
            ,##' ,,,,###########################,,,                        '##       
           ' ,,###''''                  '''############,,,                           
         ,,##''                                '''############,,,,        ,,,,,,###''
      ,#''                                            '''#######################'''  
     '                                                          ''''####''''         
             ,#######,   #######,   ,#######,      ##                                
            ,#'     '#,  ##    ##  ,#'     '#,    #''#        ######   ,####,        
            ##       ##  ##   ,#'  ##            #'  '#       #        #'  '#        
            ##       ##  #######   ##           ,######,      #####,   #    #        
            '#,     ,#'  ##    ##  '#,     ,#' ,#      #,         ##   #,  ,#        
             '#######'   ##     ##  '#######'  #'      '#     #####' # '####'        



                  #######################################################
                  #                        -***-                        #
                  #          Department of theory and spectroscopy      #
                  #    Directorship and core code : Frank Neese         #
                  #        Max Planck Institute fuer Kohlenforschung    #
                  #                Kaiser Wilhelm Platz 1               #
                  #                 D-45470 Muelheim/Ruhr               #
                  #                      Germany                        #
                  #                                                     #
                  #                  All rights reserved                #
                  #                        -***-                        #
                  #######################################################


                         Program Version 5.0.4 -  RELEASE  -


 With contributions from (in alphabetic order):
   Daniel Aravena         : Magnetic Suceptibility
   Michael Atanasov       : Ab Initio Ligand Field Theory (pilot matlab implementation)
   Alexander A. Auer      : GIAO ZORA, VPT2 properties, NMR spectrum
   Ute Becker             : Parallelization
   Giovanni Bistoni       : ED, misc. LED, open-shell LED, HFLD
   Martin Brehm           : Molecular dynamics
   Dmytro Bykov           : SCF Hessian
   Vijay G. Chilkuri      : MRCI spin determinant printing, contributions to CSF-ICE
   Dipayan Datta          : RHF DLPNO-CCSD density
   Achintya Kumar Dutta   : EOM-CC, STEOM-CC
   Dmitry Ganyushin       : Spin-Orbit,Spin-Spin,Magnetic field MRCI
   Miquel Garcia          : C-PCM and meta-GGA Hessian, CC/C-PCM, Gaussian charge scheme
   Yang Guo               : DLPNO-NEVPT2, F12-NEVPT2, CIM, IAO-localization
   Andreas Hansen         : Spin unrestricted coupled pair/coupled cluster methods
   Benjamin Helmich-Paris : MC-RPA, TRAH-SCF, COSX integrals
   Lee Huntington         : MR-EOM, pCC
   Robert Izsak           : Overlap fitted RIJCOSX, COSX-SCS-MP3, EOM
   Marcus Kettner         : VPT2
   Christian Kollmar      : KDIIS, OOCD, Brueckner-CCSD(T), CCSD density, CASPT2, CASPT2-K
   Simone Kossmann        : Meta GGA functionals, TD-DFT gradient, OOMP2, MP2 Hessian
   Martin Krupicka        : Initial AUTO-CI
   Lucas Lang             : DCDCAS
   Marvin Lechner         : AUTO-CI (C++ implementation), FIC-MRCC
   Dagmar Lenk            : GEPOL surface, SMD
   Dimitrios Liakos       : Extrapolation schemes; Compound Job, initial MDCI parallelization
   Dimitrios Manganas     : Further ROCIS development; embedding schemes
   Dimitrios Pantazis     : SARC Basis sets
   Anastasios Papadopoulos: AUTO-CI, single reference methods and gradients
   Taras Petrenko         : DFT Hessian,TD-DFT gradient, ASA, ECA, R-Raman, ABS, FL, XAS/XES, NRVS
   Peter Pinski           : DLPNO-MP2, DLPNO-MP2 Gradient
   Christoph Reimann      : Effective Core Potentials
   Marius Retegan         : Local ZFS, SOC
   Christoph Riplinger    : Optimizer, TS searches, QM/MM, DLPNO-CCSD(T), (RO)-DLPNO pert. Triples
   Tobias Risthaus        : Range-separated hybrids, TD-DFT gradient, RPA, STAB
   Michael Roemelt        : Original ROCIS implementation
   Masaaki Saitow         : Open-shell DLPNO-CCSD energy and density
   Barbara Sandhoefer     : DKH picture change effects
   Avijit Sen             : IP-ROCIS
   Kantharuban Sivalingam : CASSCF convergence, NEVPT2, FIC-MRCI
   Bernardo de Souza      : ESD, SOC TD-DFT
   Georgi Stoychev        : AutoAux, RI-MP2 NMR, DLPNO-MP2 response
   Willem Van den Heuvel  : Paramagnetic NMR
   Boris Wezisla          : Elementary symmetry handling
   Frank Wennmohs         : Technical directorship


 We gratefully acknowledge several colleagues who have allowed us to
 interface, adapt or use parts of their codes:
   Stefan Grimme, W. Hujo, H. Kruse, P. Pracht,  : VdW corrections, initial TS optimization,
                  C. Bannwarth, S. Ehlert          DFT functionals, gCP, sTDA/sTD-DF
   Ed Valeev, F. Pavosevic, A. Kumar             : LibInt (2-el integral package), F12 methods
   Garnet Chan, S. Sharma, J. Yang, R. Olivares  : DMRG
   Ulf Ekstrom                                   : XCFun DFT Library
   Mihaly Kallay                                 : mrcc  (arbitrary order and MRCC methods)
   Jiri Pittner, Ondrej Demel                    : Mk-CCSD
   Frank Weinhold                                : gennbo (NPA and NBO analysis)
   Christopher J. Cramer and Donald G. Truhlar   : smd solvation model
   Lars Goerigk                                  : TD-DFT with DH, B97 family of functionals
   V. Asgeirsson, H. Jonsson                     : NEB implementation
   FAccTs GmbH                                   : IRC, NEB, NEB-TS, DLPNO-Multilevel, CI-OPT
                                                   MM, QMMM, 2- and 3-layer-ONIOM, Crystal-QMMM,
                                                   LR-CPCM, SF, NACMEs, symmetry and pop. for TD-DFT,
                                                   nearIR, NL-DFT gradient (VV10), updates on ESD,
                                                   ML-optimized integration grids
   S Lehtola, MJT Oliveira, MAL Marques          : LibXC Library
   Liviu Ungur et al                             : ANISO software


 Your calculation uses the libint2 library for the computation of 2-el integrals
 For citations please refer to: http://libint.valeyev.net

 Your ORCA version has been built with support for libXC version: 5.1.0
 For citations please refer to: https://tddft.org/programs/libxc/

 This ORCA versions uses:
   CBLAS   interface :  Fast vector & matrix operations
   LAPACKE interface :  Fast linear algebra routines
   SCALAPACK package :  Parallel linear algebra routines
   Shared memory     :  Shared parallel matrices
   BLAS/LAPACK       :  OpenBLAS 0.3.15  USE64BITINT DYNAMIC_ARCH NO_AFFINITY Zen SINGLE_THREADED
        Core in use  :  Zen
   Copyright (c) 2011-2014, The OpenBLAS Project




***************************************
The coordinates will be read from file: opt.xyz
***************************************


================================================================================

----- Orbital basis set information -----
Your calculation utilizes the basis: EPR-II
   V. Barone, in Recent Advances in Density Functional Methods, Part 1 (ed. D. P. Chong), World Scientific, Singapore, 1995, p. 287.

----- AuxJ basis set information -----
Your calculation utilizes the AutoAux generation procedure.
  G. L. Stoychev, A. A. Auer, F. Neese, J. Chem. Theory Comput. 13, 554 (2017)

----- AuxC basis set information -----
Your calculation utilizes the AutoAux generation procedure.
  G. L. Stoychev, A. A. Auer, F. Neese, J. Chem. Theory Comput. 13, 554 (2017)

----- AuxJK basis set information -----
Your calculation utilizes the AutoAux generation procedure.
  G. L. Stoychev, A. A. Auer, F. Neese, J. Chem. Theory Comput. 13, 554 (2017)

================================================================================
                                        WARNINGS
                       Please study these warnings very carefully!
================================================================================


WARNING: your system is open-shell and RHF/RKS was chosen
  ===> : WILL SWITCH to UHF/UKS


INFO   : the flag for use of the SHARK integral package has been found!

================================================================================
                                       INPUT FILE
================================================================================
NAME = epr_info.inp
|  1> ! B3LYP EPR-II AUTOAUX
|  2> %pal nprocs 16 end
|  3> *XYZFile 0 2 opt.xyz
|  4> %EPRNMR
|  5>         GTENSOR   TRUE
|  6>         NUCLEI    = 1,4,9,10,11,12,13,14,15,16,17,18,19,21,22,32 {SHIFT, AISO, ADIP, AORB}
|  7>         ORI       GIAO
|  8> END
|  9> 
| 10>                          ****END OF INPUT****
================================================================================

                       ****************************
                       * Single Point Calculation *
                       ****************************

---------------------------------
CARTESIAN COORDINATES (ANGSTROEM)
---------------------------------
  N     -1.984447    0.776611    0.809381
  C     -1.564756   -0.014801   -0.345979
  C     -1.855279   -1.500637    0.032114
  O     -2.535147   -1.793719    1.016703
  C     -0.134476    0.228144   -0.758798
  C      0.986792    0.195291    0.237355
  C      2.368729   -0.032913   -0.405210
  C      3.519230    0.060219    0.606457
  N      4.811539   -0.204028   -0.052648
  H      0.043020    0.691225   -1.726450
  H      0.795004   -0.573326    1.000214
  H      1.003953    1.152621    0.787693
  H      2.523549    0.714790   -1.196314
  H      2.406202   -1.015929   -0.889000
  H      3.377182   -0.702404    1.382275
  H      3.472061    1.041668    1.110111
  H      5.558424   -0.176992    0.636677
  H      5.012274    0.546065   -0.709964
  H     -2.422923    0.237445    1.547550
  C     -2.170157    2.128701    0.721283
  N     -1.338703   -2.411659   -0.834472
  H     -0.712084   -2.058695   -1.544696
  O     -1.857861    2.776699   -0.277993
  C     -2.771602    2.794051    1.956743
  H     -3.685526    3.315079    1.659043
  H     -3.000094    2.091535    2.762459
  H     -2.067055    3.545641    2.323570
  C     -1.518073   -3.850533   -0.684672
  H     -2.277264   -4.018257    0.079531
  H     -1.852014   -4.293029   -1.628110
  H     -0.587975   -4.337876   -0.370889
  H     -2.214857    0.223127   -1.199846

----------------------------
CARTESIAN COORDINATES (A.U.)
----------------------------
  NO LB      ZA    FRAG     MASS         X           Y           Z
   0 N     7.0000    0    14.007   -3.750062    1.467583    1.529509
   1 C     6.0000    0    12.011   -2.956961   -0.027969   -0.653805
   2 C     6.0000    0    12.011   -3.505969   -2.835793    0.060687
   3 O     8.0000    0    15.999   -4.790734   -3.389637    1.921291
   4 C     6.0000    0    12.011   -0.254123    0.431129   -1.433921
   5 C     6.0000    0    12.011    1.864767    0.369046    0.448535
   6 C     6.0000    0    12.011    4.476250   -0.062197   -0.765736
   7 C     6.0000    0    12.011    6.650380    0.113798    1.146037
   8 N     7.0000    0    14.007    9.092492   -0.385557   -0.099491
   9 H     1.0000    0     1.008    0.081296    1.306227   -3.262518
  10 H     1.0000    0     1.008    1.502339   -1.083429    1.890130
  11 H     1.0000    0     1.008    1.897196    2.178138    1.488524
  12 H     1.0000    0     1.008    4.768817    1.350758   -2.260705
  13 H     1.0000    0     1.008    4.547062   -1.919827   -1.679967
  14 H     1.0000    0     1.008    6.381949   -1.327350    2.612121
  15 H     1.0000    0     1.008    6.561245    1.968467    2.097807
  16 H     1.0000    0     1.008   10.503900   -0.334467    1.203145
  17 H     1.0000    0     1.008    9.471826    1.031913   -1.341638
  18 H     1.0000    0     1.008   -4.578661    0.448706    2.924447
  19 C     6.0000    0    12.011   -4.101003    4.022662    1.363028
  20 N     7.0000    0    14.007   -2.529783   -4.557376   -1.576924
  21 H     1.0000    0     1.008   -1.345644   -3.890370   -2.919053
  22 O     8.0000    0    15.999   -3.510848    5.247200   -0.525330
  23 C     6.0000    0    12.011   -5.237568    5.279991    3.697708
  24 H     1.0000    0     1.008   -6.964634    6.264591    3.135136
  25 H     1.0000    0     1.008   -5.669356    3.952429    5.220291
  26 H     1.0000    0     1.008   -3.906168    6.700291    4.390912
  27 C     6.0000    0    12.011   -2.868742   -7.276452   -1.293842
  28 H     1.0000    0     1.008   -4.303406   -7.593405    0.150293
  29 H     1.0000    0     1.008   -3.499800   -8.112649   -3.076683
  30 H     1.0000    0     1.008   -1.111113   -8.197398   -0.700879
  31 H     1.0000    0     1.008   -4.185474    0.421649   -2.267379

--------------------------------
INTERNAL COORDINATES (ANGSTROEM)
--------------------------------
 N      0   0   0     0.000000000000     0.00000000     0.00000000
 C      1   0   0     1.461961357258     0.00000000     0.00000000
 C      2   1   0     1.560469981864   105.69509234     0.00000000
 O      3   2   1     1.231882014703   121.52964702    11.97065424
 C      2   1   3     1.508358158214   113.66033873   235.07903276
 C      5   2   1     1.500214133383   121.56458584    49.34910806
 C      6   5   2     1.541011328930   113.36710564   159.57811349
 C      7   6   5     1.534859664385   112.85358576   174.87365108
 N      8   7   6     1.474554338377   110.57561200   178.36417398
 H      5   2   1     1.087336035826   117.83636170   245.78468060
 H      6   5   2     1.099776757684   110.21559682    35.78065918
 H      6   5   2     1.104376820424   108.87603273   280.82239805
 H      7   6   5     1.099488594787   109.00142015    53.47795091
 H      7   6   5     1.096255841168   110.33203075   296.61740856
 H      8   7   6     1.097116555054   109.07873977    60.03505076
 H      8   7   6     1.104143739268   108.81866939   303.81589597
 H      9   8   7     1.016728819200   109.63280896   182.34056327
 H      9   8   7     1.017348500085   109.24437504    66.73943662
 H      1   2   3     1.013831779768   114.30989461   355.52109607
 C      1   2   3     1.367624410473   121.55127649   195.61182538
 N      3   2   1     1.359332178290   114.38894686   189.80299054
 H     21   3   2     1.010768721207   116.71198800     8.89277012
 O     20   1   2     1.231252647327   122.55788697   351.79192037
 C     20   1   2     1.526690925933   115.60902969   172.78445329
 H     24  20   1     1.093321402054   108.46056144   237.04296653
 H     24  20   1     1.093122147744   113.49924133   358.85165168
 H     24  20   1     1.093543261433   108.49220521   120.44211138
 C     21   3   2     1.457727676731   123.31607146   181.38524005
 H     28  21   3     1.090187709152   108.03408212    11.56933804
 H     28  21   3     1.094255963993   110.37129608   130.95525688
 H     28  21   3     1.095921979601   111.34175923   252.18530040
 H      2   1   3     1.099240315537   109.08221231   114.17813475

---------------------------
INTERNAL COORDINATES (A.U.)
---------------------------
 N      0   0   0     0.000000000000     0.00000000     0.00000000
 C      1   0   0     2.762706583594     0.00000000     0.00000000
 C      2   1   0     2.948860905928   105.69509234     0.00000000
 O      3   2   1     2.327919637093   121.52964702    11.97065424
 C      2   1   3     2.850383830890   113.66033873   235.07903276
 C      5   2   1     2.834993854332   121.56458584    49.34910806
 C      6   5   2     2.912089380947   113.36710564   159.57811349
 C      7   6   5     2.900464419690   112.85358576   174.87365108
 N      8   7   6     2.786503869117   110.57561200   178.36417398
 H      5   2   1     2.054767323255   117.83636170   245.78468060
 H      6   5   2     2.078276880474   110.21559682    35.78065918
 H      6   5   2     2.086969739252   108.87603273   280.82239805
 H      7   6   5     2.077732331517   109.00142015    53.47795091
 H      7   6   5     2.071623312519   110.33203075   296.61740856
 H      8   7   6     2.073249826042   109.07873977    60.03505076
 H      8   7   6     2.086529279700   108.81866939   303.81589597
 H      9   8   7     1.921339020754   109.63280896   182.34056327
 H      9   8   7     1.922510047916   109.24437504    66.73943662
 H      1   2   3     1.915864409627   114.30989461   355.52109607
 C      1   2   3     2.584435589860   121.55127649   195.61182538
 N      3   2   1     2.568765541995   114.38894686   189.80299054
 H     21   3   2     1.910076067815   116.71198800     8.89277012
 O     20   1   2     2.326730305113   122.55788697   351.79192037
 C     20   1   2     2.885027741156   115.60902969   172.78445329
 H     24  20   1     2.066078026237   108.46056144   237.04296653
 H     24  20   1     2.065701490160   113.49924133   358.85165168
 H     24  20   1     2.066497279704   108.49220521   120.44211138
 C     21   3   2     2.754706086859   123.31607146   181.38524005
 H     28  21   3     2.060156204864   108.03408212    11.56933804
 H     28  21   3     2.067844092357   110.37129608   130.95525688
 H     28  21   3     2.070992405591   111.34175923   252.18530040
 H      2   1   3     2.077263151730   109.08221231   114.17813475

---------------------
BASIS SET INFORMATION
---------------------
There are 4 groups of distinct atoms

 Group   1 Type N   : 10s5p1d contracted to 6s2p1d pattern {511111/41/1}
 Group   2 Type C   : 10s5p1d contracted to 6s2p1d pattern {511111/41/1}
 Group   3 Type O   : 10s5p1d contracted to 6s2p1d pattern {511111/41/1}
 Group   4 Type H   : 6s1p contracted to 4s1p pattern {3111/1}

Atom   0N    basis set group =>   1
Atom   1C    basis set group =>   2
Atom   2C    basis set group =>   2
Atom   3O    basis set group =>   3
Atom   4C    basis set group =>   2
Atom   5C    basis set group =>   2
Atom   6C    basis set group =>   2
Atom   7C    basis set group =>   2
Atom   8N    basis set group =>   1
Atom   9H    basis set group =>   4
Atom  10H    basis set group =>   4
Atom  11H    basis set group =>   4
Atom  12H    basis set group =>   4
Atom  13H    basis set group =>   4
Atom  14H    basis set group =>   4
Atom  15H    basis set group =>   4
Atom  16H    basis set group =>   4
Atom  17H    basis set group =>   4
Atom  18H    basis set group =>   4
Atom  19C    basis set group =>   2
Atom  20N    basis set group =>   1
Atom  21H    basis set group =>   4
Atom  22O    basis set group =>   3
Atom  23C    basis set group =>   2
Atom  24H    basis set group =>   4
Atom  25H    basis set group =>   4
Atom  26H    basis set group =>   4
Atom  27C    basis set group =>   2
Atom  28H    basis set group =>   4
Atom  29H    basis set group =>   4
Atom  30H    basis set group =>   4
Atom  31H    basis set group =>   4
---------------------------------
AUXILIARY/J BASIS SET INFORMATION
---------------------------------
There are 4 groups of distinct atoms

 Group   1 Type N   : 17s13p12d2f contracted to 17s13p12d2f pattern {11111111111111111/1111111111111/111111111111/11}
 Group   2 Type C   : 17s13p12d2f contracted to 17s13p12d2f pattern {11111111111111111/1111111111111/111111111111/11}
 Group   3 Type O   : 17s13p12d2f contracted to 17s13p12d2f pattern {11111111111111111/1111111111111/111111111111/11}
 Group   4 Type H   : 15s6p1d contracted to 15s6p1d pattern {111111111111111/111111/1}

Atom   0N    basis set group =>   1
Atom   1C    basis set group =>   2
Atom   2C    basis set group =>   2
Atom   3O    basis set group =>   3
Atom   4C    basis set group =>   2
Atom   5C    basis set group =>   2
Atom   6C    basis set group =>   2
Atom   7C    basis set group =>   2
Atom   8N    basis set group =>   1
Atom   9H    basis set group =>   4
Atom  10H    basis set group =>   4
Atom  11H    basis set group =>   4
Atom  12H    basis set group =>   4
Atom  13H    basis set group =>   4
Atom  14H    basis set group =>   4
Atom  15H    basis set group =>   4
Atom  16H    basis set group =>   4
Atom  17H    basis set group =>   4
Atom  18H    basis set group =>   4
Atom  19C    basis set group =>   2
Atom  20N    basis set group =>   1
Atom  21H    basis set group =>   4
Atom  22O    basis set group =>   3
Atom  23C    basis set group =>   2
Atom  24H    basis set group =>   4
Atom  25H    basis set group =>   4
Atom  26H    basis set group =>   4
Atom  27C    basis set group =>   2
Atom  28H    basis set group =>   4
Atom  29H    basis set group =>   4
Atom  30H    basis set group =>   4
Atom  31H    basis set group =>   4
---------------------------------
AUXILIARY/C BASIS SET INFORMATION
---------------------------------
There are 4 groups of distinct atoms

 Group   1 Type N   : 17s13p12d2f contracted to 17s13p12d2f pattern {11111111111111111/1111111111111/111111111111/11}
 Group   2 Type C   : 17s13p12d2f contracted to 17s13p12d2f pattern {11111111111111111/1111111111111/111111111111/11}
 Group   3 Type O   : 17s13p12d2f contracted to 17s13p12d2f pattern {11111111111111111/1111111111111/111111111111/11}
 Group   4 Type H   : 15s6p1d contracted to 15s6p1d pattern {111111111111111/111111/1}

Atom   0N    basis set group =>   1
Atom   1C    basis set group =>   2
Atom   2C    basis set group =>   2
Atom   3O    basis set group =>   3
Atom   4C    basis set group =>   2
Atom   5C    basis set group =>   2
Atom   6C    basis set group =>   2
Atom   7C    basis set group =>   2
Atom   8N    basis set group =>   1
Atom   9H    basis set group =>   4
Atom  10H    basis set group =>   4
Atom  11H    basis set group =>   4
Atom  12H    basis set group =>   4
Atom  13H    basis set group =>   4
Atom  14H    basis set group =>   4
Atom  15H    basis set group =>   4
Atom  16H    basis set group =>   4
Atom  17H    basis set group =>   4
Atom  18H    basis set group =>   4
Atom  19C    basis set group =>   2
Atom  20N    basis set group =>   1
Atom  21H    basis set group =>   4
Atom  22O    basis set group =>   3
Atom  23C    basis set group =>   2
Atom  24H    basis set group =>   4
Atom  25H    basis set group =>   4
Atom  26H    basis set group =>   4
Atom  27C    basis set group =>   2
Atom  28H    basis set group =>   4
Atom  29H    basis set group =>   4
Atom  30H    basis set group =>   4
Atom  31H    basis set group =>   4
----------------------------------
AUXILIARY/JK BASIS SET INFORMATION
----------------------------------
There are 4 groups of distinct atoms

 Group   1 Type N   : 17s13p12d2f contracted to 17s13p12d2f pattern {11111111111111111/1111111111111/111111111111/11}
 Group   2 Type C   : 17s13p12d2f contracted to 17s13p12d2f pattern {11111111111111111/1111111111111/111111111111/11}
 Group   3 Type O   : 17s13p12d2f contracted to 17s13p12d2f pattern {11111111111111111/1111111111111/111111111111/11}
 Group   4 Type H   : 15s6p1d contracted to 15s6p1d pattern {111111111111111/111111/1}

Atom   0N    basis set group =>   1
Atom   1C    basis set group =>   2
Atom   2C    basis set group =>   2
Atom   3O    basis set group =>   3
Atom   4C    basis set group =>   2
Atom   5C    basis set group =>   2
Atom   6C    basis set group =>   2
Atom   7C    basis set group =>   2
Atom   8N    basis set group =>   1
Atom   9H    basis set group =>   4
Atom  10H    basis set group =>   4
Atom  11H    basis set group =>   4
Atom  12H    basis set group =>   4
Atom  13H    basis set group =>   4
Atom  14H    basis set group =>   4
Atom  15H    basis set group =>   4
Atom  16H    basis set group =>   4
Atom  17H    basis set group =>   4
Atom  18H    basis set group =>   4
Atom  19C    basis set group =>   2
Atom  20N    basis set group =>   1
Atom  21H    basis set group =>   4
Atom  22O    basis set group =>   3
Atom  23C    basis set group =>   2
Atom  24H    basis set group =>   4
Atom  25H    basis set group =>   4
Atom  26H    basis set group =>   4
Atom  27C    basis set group =>   2
Atom  28H    basis set group =>   4
Atom  29H    basis set group =>   4
Atom  30H    basis set group =>   4
Atom  31H    basis set group =>   4


           ************************************************************
           *        Program running with 16 parallel MPI-processes    *
           *              working on a common directory               *
           ************************************************************
------------------------------------------------------------------------------
                           ORCA GTO INTEGRAL CALCULATION
                           -- RI-GTO INTEGRALS CHOSEN --
------------------------------------------------------------------------------
------------------------------------------------------------------------------
                   ___                                                        
                  /   \      - P O W E R E D   B Y -                         
                 /     \                                                     
                 |  |  |   _    _      __       _____    __    __             
                 |  |  |  | |  | |    /  \     |  _  \  |  |  /  |          
                  \  \/   | |  | |   /    \    | | | |  |  | /  /          
                 / \  \   | |__| |  /  /\  \   | |_| |  |  |/  /          
                |  |  |   |  __  | /  /__\  \  |    /   |      \           
                |  |  |   | |  | | |   __   |  |    \   |  |\   \          
                \     /   | |  | | |  |  |  |  | |\  \  |  | \   \       
                 \___/    |_|  |_| |__|  |__|  |_| \__\ |__|  \__/        
                                                                              
                      - O R C A' S   B I G   F R I E N D -                    
                                      &                                       
                       - I N T E G R A L  F E E D E R -                       
                                                                              
 v1 FN, 2020, v2 2021                                                         
------------------------------------------------------------------------------


Reading SHARK input file epr_info.SHARKINP.tmp ... ok
----------------------
SHARK INTEGRAL PACKAGE
----------------------

Number of atoms                             ...     32
Number of basis functions                   ...    364
Number of shells                            ...    216
Maximum angular momentum                    ...      2
Integral batch strategy                     ... SHARK/LIBINT Hybrid
RI-J (if used) integral strategy            ... SPLIT-RIJ (Revised 2003 algorithm where possible)
Printlevel                                  ...      1
Contraction scheme used                     ... SEGMENTED contraction
Coulomb Range Separation                    ... NOT USED
Exchange Range Separation                   ... NOT USED
Finite Nucleus Model                        ... NOT USED
Auxiliary Coulomb fitting basis             ... AVAILABLE
   # of basis functions in Aux-J            ...   2504
   # of shells in Aux-J                     ...   1012
   Maximum angular momentum in Aux-J        ...      3
Auxiliary J/K fitting basis                 ... AVAILABLE
   # of basis functions in Aux-JK           ...   2504
   # of shells in Aux-JK                    ...   1012
   Maximum angular momentum in Aux-JK       ...      3
Auxiliary Correlation fitting basis         ... AVAILABLE
   # of basis functions in Aux-C            ...   2504
   # of shells in Aux-C                     ...   1012
   Maximum angular momentum in Aux-C        ...      3
Auxiliary 'external' fitting basis          ... NOT available
Integral threshold                          ...     1.000000e-10
Primitive cut-off                           ...     1.000000e-11
Primitive pair pre-selection threshold      ...     1.000000e-11

Calculating pre-screening integrals         ... done (  0.0 sec) Dimension = 216
Organizing shell pair data                  ... done (  0.0 sec)
Shell pair information
Total number of shell pairs                 ...     23436
Shell pairs after pre-screening             ...     14965
Total number of primitive shell pairs       ...     61703
Primitive shell pairs kept                  ...     28546
          la=0 lb=0:   7026 shell pairs
          la=1 lb=0:   5104 shell pairs
          la=1 lb=1:    876 shell pairs
          la=2 lb=0:   1384 shell pairs
          la=2 lb=1:    495 shell pairs
          la=2 lb=2:     80 shell pairs

Calculating one electron integrals          ... done (  0.0 sec)
Calculating RI/J V-Matrix + Cholesky decomp.... done (  0.3 sec)
Calculating RI/JK V-Matrix + Cholesky decomp... done (  0.3 sec)
Calculating RI/C V-Matrix + Cholesky decomp.... done (  0.3 sec)
Calculating Nuclear repulsion               ... done (  0.0 sec) ENN=    914.361334144061 Eh

SHARK setup successfully completed in   1.2 seconds

Maximum memory used throughout the entire GTOINT-calculation: 28.0 MB


           ************************************************************
           *        Program running with 16 parallel MPI-processes    *
           *              working on a common directory               *
           ************************************************************
-------------------------------------------------------------------------------
                                 ORCA SCF
-------------------------------------------------------------------------------

------------
SCF SETTINGS
------------
Hamiltonian:
 Density Functional     Method          .... DFT(GTOs)
 Exchange Functional    Exchange        .... B88
   X-Alpha parameter    XAlpha          ....  0.666667
   Becke's b parameter  XBeta           ....  0.004200
 Correlation Functional Correlation     .... LYP
 LDA part of GGA corr.  LDAOpt          .... VWN-5
 Gradients option       PostSCFGGA      .... off
 Hybrid DFT is turned on
   Fraction HF Exchange ScalHFX         ....  0.200000
   Scaling of DF-GGA-X  ScalDFX         ....  0.720000
   Scaling of DF-GGA-C  ScalDFC         ....  0.810000
   Scaling of DF-LDA-C  ScalLDAC        ....  1.000000
   Perturbative correction              ....  0.000000
   Density functional embedding theory  .... OFF
   NL short-range parameter             ....  4.800000
 RI-approximation to the Coulomb term is turned on
   Number of AuxJ basis functions       .... 2504
   RIJ-COSX (HFX calculated with COS-X)).... on


General Settings:
 Integral files         IntName         .... epr_info
 Hartree-Fock type      HFTyp           .... UHF
 Total Charge           Charge          ....    0
 Multiplicity           Mult            ....    2
 Number of Electrons    NEL             ....  109
 Basis Dimension        Dim             ....  364
 Nuclear Repulsion      ENuc            ....    914.3613341441 Eh

Convergence Acceleration:
 DIIS                   CNVDIIS         .... on
   Start iteration      DIISMaxIt       ....    12
   Startup error        DIISStart       ....  0.200000
   # of expansion vecs  DIISMaxEq       ....     5
   Bias factor          DIISBfac        ....   1.050
   Max. coefficient     DIISMaxC        ....  10.000
 Trust-Rad. Augm. Hess. CNVTRAH         .... auto
   Auto Start mean grad. ratio tolernc. ....  1.125000
   Auto Start start iteration           ....    20
   Auto Start num. interpolation iter.  ....    10
   Max. Number of Micro iterations      ....    16
   Max. Number of Macro iterations      .... Maxiter - #DIIS iter
   Number of Davidson start vectors     ....     2
   Converg. threshold I  (grad. norm)   ....   5.000e-05
   Converg. threshold II (energy diff.) ....   1.000e-06
   Grad. Scal. Fac. for Micro threshold ....   0.100
   Minimum threshold for Micro iter.    ....   0.010
   NR start threshold (gradient norm)   ....   0.001
   Initial trust radius                 ....   0.400
   Minimum AH scaling param. (alpha)    ....   1.000
   Maximum AH scaling param. (alpha)    .... 1000.000
   Orbital update algorithm             .... Taylor
   White noise on init. David. guess    .... on
   Maximum white noise                  ....   0.010
   Quad. conv. algorithm                .... NR
 SOSCF                  CNVSOSCF        .... off
 Level Shifting         CNVShift        .... on
   Level shift para.    LevelShift      ....    0.2500
   Turn off err/grad.   ShiftErr        ....    0.0010
 Zerner damping         CNVZerner       .... off
 Static damping         CNVDamp         .... on
   Fraction old density DampFac         ....    0.7000
   Max. Damping (<1)    DampMax         ....    0.9800
   Min. Damping (>=0)   DampMin         ....    0.0000
   Turn off err/grad.   DampErr         ....    0.1000
 Fernandez-Rico         CNVRico         .... off

SCF Procedure:
 Maximum # iterations   MaxIter         ....   125
 SCF integral mode      SCFMode         .... Direct
   Integral package                     .... SHARK and LIBINT hybrid scheme
 Reset frequency        DirectResetFreq ....    20
 Integral Threshold     Thresh          ....  1.000e-10 Eh
 Primitive CutOff       TCut            ....  1.000e-11 Eh

Convergence Tolerance:
 Convergence Check Mode ConvCheckMode   .... Total+1el-Energy
 Convergence forced     ConvForced      .... 0
 Energy Change          TolE            ....  1.000e-06 Eh
 1-El. energy change                    ....  1.000e-03 Eh
 DIIS Error             TolErr          ....  1.000e-06


Diagonalization of the overlap matrix:
Smallest eigenvalue                        ... 6.599e-04
Time for diagonalization                   ...    0.014 sec
Threshold for overlap eigenvalues          ... 1.000e-08
Number of eigenvalues below threshold      ... 0
Time for construction of square roots      ...    0.011 sec
Total time needed                          ...    0.026 sec

Time for model grid setup =    0.108 sec

------------------------------
INITIAL GUESS: MODEL POTENTIAL
------------------------------
Loading Hartree-Fock densities                     ... done
Calculating cut-offs                               ... done
Initializing the effective Hamiltonian             ... done
Setting up the integral package (SHARK)            ... done
Starting the Coulomb interaction                   ... done (   0.0 sec)
Reading the grid                                   ... done
Mapping shells                                     ... done
Starting the XC term evaluation                    ... done (   0.0 sec)
  promolecular density results
     # of electrons  =    108.991422057
     EX              =    -87.711725071
     EC              =     -3.656266981
     EX+EC           =    -91.367992052
Transforming the Hamiltonian                       ... done (   0.0 sec)
Diagonalizing the Hamiltonian                      ... done (   0.0 sec)
Back transforming the eigenvectors                 ... done (   0.0 sec)
Now organizing SCF variables                       ... done
                      ------------------
                      INITIAL GUESS DONE (   0.3 sec)
                      ------------------
-------------------
DFT GRID GENERATION
-------------------

General Integration Accuracy     IntAcc      ... 4.388
Radial Grid Type                 RadialGrid  ... OptM3 with GC (2021)
Angular Grid (max. ang.)         AngularGrid ... 4 (Lebedev-302)
Angular grid pruning method      GridPruning ... 4 (adaptive)
Weight generation scheme         WeightScheme... Becke
Basis function cutoff            BFCut       ... 1.0000e-10
Integration weight cutoff        WCut        ... 1.0000e-14
Angular grids for H and He will be reduced by one unit
Partially contracted basis set               ... off
Rotationally invariant grid construction     ... off

Total number of grid points                  ...   141720
Total number of batches                      ...     2230
Average number of points per batch           ...       63
Average number of grid points per atom       ...     4429
Time for grid setup =    0.583 sec

--------------------
COSX GRID GENERATION
--------------------

GRIDX 1
-------
General Integration Accuracy     IntAcc      ... 3.816
Radial Grid Type                 RadialGrid  ... OptM3 with GC (2021)
Angular Grid (max. ang.)         AngularGrid ... 1 (Lebedev-50)
Angular grid pruning method      GridPruning ... 4 (adaptive)
Weight generation scheme         WeightScheme... Becke
Basis function cutoff            BFCut       ... 1.0000e-10
Integration weight cutoff        WCut        ... 1.0000e-14
Angular grids for H and He will be reduced by one unit
Partially contracted basis set               ... on
Rotationally invariant grid construction     ... off

Total number of grid points                  ...    18104
Total number of batches                      ...      304
Average number of points per batch           ...       59
Average number of grid points per atom       ...      566
UseSFitting                                  ... on

GRIDX 2
-------
General Integration Accuracy     IntAcc      ... 4.020
Radial Grid Type                 RadialGrid  ... OptM3 with GC (2021)
Angular Grid (max. ang.)         AngularGrid ... 2 (Lebedev-110)
Angular grid pruning method      GridPruning ... 4 (adaptive)
Weight generation scheme         WeightScheme... Becke
Basis function cutoff            BFCut       ... 1.0000e-10
Integration weight cutoff        WCut        ... 1.0000e-14
Angular grids for H and He will be reduced by one unit
Partially contracted basis set               ... on
Rotationally invariant grid construction     ... off

Total number of grid points                  ...    38331
Total number of batches                      ...      615
Average number of points per batch           ...       62
Average number of grid points per atom       ...     1198
UseSFitting                                  ... on

GRIDX 3
-------
General Integration Accuracy     IntAcc      ... 4.338
Radial Grid Type                 RadialGrid  ... OptM3 with GC (2021)
Angular Grid (max. ang.)         AngularGrid ... 3 (Lebedev-194)
Angular grid pruning method      GridPruning ... 4 (adaptive)
Weight generation scheme         WeightScheme... Becke
Basis function cutoff            BFCut       ... 1.0000e-10
Integration weight cutoff        WCut        ... 1.0000e-14
Angular grids for H and He will be reduced by one unit
Partially contracted basis set               ... on
Rotationally invariant grid construction     ... off

Total number of grid points                  ...    83621
Total number of batches                      ...     1322
Average number of points per batch           ...       63
Average number of grid points per atom       ...     2613
UseSFitting                                  ... on

Time for X-Grid setup             =    0.708 sec

--------------
SCF ITERATIONS
--------------
ITER       Energy         Delta-E        Max-DP      RMS-DP      [F,P]     Damp
               ***  Starting incremental Fock matrix formation  ***
  0   -667.6938778407   0.000000000000 0.06309737  0.00095276  0.1295809 0.7000
  1   -667.9451497478  -0.251271907068 0.03622073  0.00065583  0.0543100 0.7000
                               ***Turning on DIIS***
  2   -668.0351190587  -0.089969310899 0.04508848  0.00099024  0.0174891 0.0000
  3   -668.1829404559  -0.147821397216 0.02746037  0.00048055  0.0330652 0.0000
  4   -668.2153495900  -0.032409134124 0.00944038  0.00016489  0.0073432 0.0000
  5   -668.2173069583  -0.001957368257 0.00427125  0.00006207  0.0048855 0.0000
  6   -668.2176866779  -0.000379719592 0.00324456  0.00004075  0.0007896 0.0000
               *** Restarting incremental Fock matrix formation ***
                                   *** Resetting DIIS ***
  7   -668.2177198079  -0.000033129995 0.00187041  0.00002117  0.0006906 0.0000
  8   -668.2177071406   0.000012667222 0.00075087  0.00000805  0.0010269 0.0000
  9   -668.2177310348  -0.000023894155 0.00027300  0.00000522  0.0002711 0.0000
 10   -668.2177327636  -0.000001728821 0.00021135  0.00000178  0.0000791 0.0000
                 **** Energy Check signals convergence ****

               *****************************************************
               *                     SUCCESS                       *
               *           SCF CONVERGED AFTER  11 CYCLES          *
               *****************************************************

Old exchange energy                            =    -17.857370687 Eh
New exchange energy                            =    -17.857418377 Eh
Exchange energy change after final integration =     -0.000047690 Eh
Total energy after final integration           =   -668.217780604 Eh
Final COS-X integration done in                =     2.335 sec

----------------
TOTAL SCF ENERGY
----------------

Total Energy       :         -668.21778060 Eh          -18183.13022 eV

Components:
Nuclear Repulsion  :          914.36133414 Eh           24881.03683 eV
Electronic Energy  :        -1582.57911475 Eh          -43064.16705 eV
One Electron Energy:        -2722.69942006 Eh          -74088.41780 eV
Two Electron Energy:         1140.12030531 Eh           31024.25075 eV
Max COSX asymmetry :            0.00000216 Eh               0.00006 eV

Virial components:
Potential Energy   :        -1331.82149257 Eh          -36240.70525 eV
Kinetic Energy     :          663.60371197 Eh           18057.57503 eV
Virial Ratio       :            2.00695305


DFT components:
N(Alpha)           :       55.000050300241 electrons
N(Beta)            :       54.000042430311 electrons
N(Total)           :      109.000092730552 electrons
E(X)               :      -70.931254974519 Eh       
E(C)               :       -4.311958450613 Eh       
E(XC)              :      -75.243213425132 Eh       
DFET-embed. en.    :        0.000000000000 Eh       

---------------
SCF CONVERGENCE
---------------

  Last Energy change         ...   -1.5040e-07  Tolerance :   1.0000e-06
  Last MAX-Density change    ...    0.0000e+00  Tolerance :   1.0000e-05
  Last RMS-Density change    ...    0.0000e+00  Tolerance :   1.0000e-06
  Last DIIS Error            ...    9.1903e-05  Tolerance :   1.0000e-06

             **** THE GBW FILE WAS UPDATED (epr_info.gbw) ****
             **** DENSITY epr_info.scfp WAS UPDATED ****
             **** ENERGY FILE WAS UPDATED (epr_info.en.tmp) ****
----------------------
UHF SPIN CONTAMINATION
----------------------

Warning: in a DFT calculation there is little theoretical justification to 
         calculate <S**2> as in Hartree-Fock theory. We will do it anyways
         but you should keep in mind that the values have only limited relevance

Expectation value of <S**2>     :     0.754015
Ideal value S*(S+1) for S=0.5   :     0.750000
Deviation                       :     0.004015

             **** THE GBW FILE WAS UPDATED (epr_info.gbw) ****
             **** DENSITY epr_info.scfp WAS UPDATED ****
----------------
ORBITAL ENERGIES
----------------
                 SPIN UP ORBITALS
  NO   OCC          E(Eh)            E(eV) 
   0   1.0000     -19.124120      -520.3938 
   1   1.0000     -19.100326      -519.7463 
   2   1.0000     -14.370304      -391.0358 
   3   1.0000     -14.348771      -390.4499 
   4   1.0000     -14.309985      -389.3945 
   5   1.0000     -10.305061      -280.4150 
   6   1.0000     -10.286991      -279.9233 
   7   1.0000     -10.242531      -278.7134 
   8   1.0000     -10.224216      -278.2151 
   9   1.0000     -10.208030      -277.7746 
  10   1.0000     -10.203402      -277.6487 
  11   1.0000     -10.190946      -277.3097 
  12   1.0000     -10.185446      -277.1601 
  13   1.0000     -10.183545      -277.1083 
  14   1.0000      -1.046826       -28.4856 
  15   1.0000      -1.021965       -27.8091 
  16   1.0000      -0.931926       -25.3590 
  17   1.0000      -0.915963       -24.9246 
  18   1.0000      -0.877683       -23.8830 
  19   1.0000      -0.802383       -21.8339 
  20   1.0000      -0.762697       -20.7540 
  21   1.0000      -0.727095       -19.7853 
  22   1.0000      -0.710114       -19.3232 
  23   1.0000      -0.671858       -18.2822 
  24   1.0000      -0.612898       -16.6778 
  25   1.0000      -0.594661       -16.1816 
  26   1.0000      -0.588029       -16.0011 
  27   1.0000      -0.555190       -15.1075 
  28   1.0000      -0.534172       -14.5356 
  29   1.0000      -0.492843       -13.4109 
  30   1.0000      -0.487394       -13.2627 
  31   1.0000      -0.475846       -12.9484 
  32   1.0000      -0.469935       -12.7876 
  33   1.0000      -0.458862       -12.4863 
  34   1.0000      -0.453571       -12.3423 
  35   1.0000      -0.446871       -12.1600 
  36   1.0000      -0.434070       -11.8117 
  37   1.0000      -0.429531       -11.6881 
  38   1.0000      -0.417575       -11.3628 
  39   1.0000      -0.401406       -10.9228 
  40   1.0000      -0.399882       -10.8813 
  41   1.0000      -0.392435       -10.6787 
  42   1.0000      -0.389464       -10.5979 
  43   1.0000      -0.383783       -10.4433 
  44   1.0000      -0.366180        -9.9643 
  45   1.0000      -0.354422        -9.6443 
  46   1.0000      -0.350250        -9.5308 
  47   1.0000      -0.335304        -9.1241 
  48   1.0000      -0.332536        -9.0488 
  49   1.0000      -0.281063        -7.6481 
  50   1.0000      -0.270523        -7.3613 
  51   1.0000      -0.252906        -6.8819 
  52   1.0000      -0.247773        -6.7423 
  53   1.0000      -0.240183        -6.5357 
  54   1.0000      -0.199956        -5.4411 
  55   0.0000       0.004645         0.1264 
  56   0.0000       0.013465         0.3664 
  57   0.0000       0.021071         0.5734 
  58   0.0000       0.026807         0.7295 
  59   0.0000       0.029122         0.7925 
  60   0.0000       0.037193         1.0121 
  61   0.0000       0.050400         1.3715 
  62   0.0000       0.055533         1.5111 
  63   0.0000       0.070303         1.9130 
  64   0.0000       0.075536         2.0554 
  65   0.0000       0.094335         2.5670 
  66   0.0000       0.097050         2.6409 
  67   0.0000       0.112621         3.0646 
  68   0.0000       0.128286         3.4908 
  69   0.0000       0.148505         4.0410 
  70   0.0000       0.157519         4.2863 
  71   0.0000       0.159150         4.3307 
  72   0.0000       0.165191         4.4951 
  73   0.0000       0.177241         4.8230 
  74   0.0000       0.181954         4.9512 
  75   0.0000       0.188304         5.1240 
  76   0.0000       0.190706         5.1894 
  77   0.0000       0.194373         5.2892 
  78   0.0000       0.201636         5.4868 
  79   0.0000       0.205625         5.5953 
  80   0.0000       0.209836         5.7099 
  81   0.0000       0.213094         5.7986 
  82   0.0000       0.219627         5.9763 
  83   0.0000       0.229574         6.2470 
  84   0.0000       0.235569         6.4102 
  85   0.0000       0.238741         6.4965 
  86   0.0000       0.243496         6.6259 
  87   0.0000       0.245319         6.6755 
  88   0.0000       0.251943         6.8557 
  89   0.0000       0.260521         7.0891 
  90   0.0000       0.269509         7.3337 
  91   0.0000       0.273704         7.4479 
  92   0.0000       0.280821         7.6415 
  93   0.0000       0.283848         7.7239 
  94   0.0000       0.293997         8.0001 
  95   0.0000       0.296661         8.0726 
  96   0.0000       0.302997         8.2450 
  97   0.0000       0.310595         8.4517 
  98   0.0000       0.316650         8.6165 
  99   0.0000       0.320421         8.7191 
 100   0.0000       0.322995         8.7891 
 101   0.0000       0.333544         9.0762 
 102   0.0000       0.333863         9.0849 
 103   0.0000       0.346300         9.4233 
 104   0.0000       0.358933         9.7671 
 105   0.0000       0.370735        10.0882 
 106   0.0000       0.384953        10.4751 
 107   0.0000       0.388623        10.5750 
 108   0.0000       0.398466        10.8428 
 109   0.0000       0.401063        10.9135 
 110   0.0000       0.423595        11.5266 
 111   0.0000       0.423956        11.5364 
 112   0.0000       0.438382        11.9290 
 113   0.0000       0.449995        12.2450 
 114   0.0000       0.453597        12.3430 
 115   0.0000       0.462483        12.5848 
 116   0.0000       0.463131        12.6024 
 117   0.0000       0.482562        13.1312 
 118   0.0000       0.488790        13.3007 
 119   0.0000       0.498320        13.5600 
 120   0.0000       0.500551        13.6207 
 121   0.0000       0.530610        14.4386 
 122   0.0000       0.539107        14.6698 
 123   0.0000       0.543570        14.7913 
 124   0.0000       0.559617        15.2280 
 125   0.0000       0.574923        15.6444 
 126   0.0000       0.593452        16.1487 
 127   0.0000       0.603084        16.4107 
 128   0.0000       0.611749        16.6465 
 129   0.0000       0.632802        17.2194 
 130   0.0000       0.644179        17.5290 
 131   0.0000       0.664891        18.0926 
 132   0.0000       0.672105        18.2889 
 133   0.0000       0.705107        19.1869 
 134   0.0000       0.722278        19.6542 
 135   0.0000       0.747122        20.3302 
 136   0.0000       0.752715        20.4824 
 137   0.0000       0.758639        20.6436 
 138   0.0000       0.775727        21.1086 
 139   0.0000       0.785367        21.3709 
 140   0.0000       0.801683        21.8149 
 141   0.0000       0.816673        22.2228 
 142   0.0000       0.818126        22.2623 
 143   0.0000       0.826440        22.4886 
 144   0.0000       0.830958        22.6115 
 145   0.0000       0.846545        23.0356 
 146   0.0000       0.858559        23.3626 
 147   0.0000       0.864994        23.5377 
 148   0.0000       0.872426        23.7399 
 149   0.0000       0.885159        24.0864 
 150   0.0000       0.890889        24.2423 
 151   0.0000       0.898804        24.4577 
 152   0.0000       0.905771        24.6473 
 153   0.0000       0.916955        24.9516 
 154   0.0000       0.918832        25.0027 
 155   0.0000       0.920107        25.0374 
 156   0.0000       0.924318        25.1520 
 157   0.0000       0.930000        25.3066 
 158   0.0000       0.933618        25.4050 
 159   0.0000       0.948888        25.8206 
 160   0.0000       0.958756        26.0891 
 161   0.0000       0.965222        26.2650 
 162   0.0000       0.965815        26.2812 
 163   0.0000       0.974644        26.5214 
 164   0.0000       0.985815        26.8254 
 165   0.0000       1.009228        27.4625 
 166   0.0000       1.015246        27.6263 
 167   0.0000       1.029292        28.0085 
 168   0.0000       1.035188        28.1689 
 169   0.0000       1.046874        28.4869 
 170   0.0000       1.050845        28.5949 
 171   0.0000       1.067216        29.0404 
 172   0.0000       1.084499        29.5107 
 173   0.0000       1.101721        29.9794 
 174   0.0000       1.129179        30.7265 
 175   0.0000       1.154701        31.4210 
 176   0.0000       1.158132        31.5144 
 177   0.0000       1.164555        31.6892 
 178   0.0000       1.176365        32.0105 
 179   0.0000       1.192870        32.4596 
 180   0.0000       1.196168        32.5494 
 181   0.0000       1.203939        32.7609 
 182   0.0000       1.217512        33.1302 
 183   0.0000       1.239675        33.7333 
 184   0.0000       1.284179        34.9443 
 185   0.0000       1.289122        35.0788 
 186   0.0000       1.320350        35.9285 
 187   0.0000       1.335882        36.3512 
 188   0.0000       1.340674        36.4816 
 189   0.0000       1.353021        36.8176 
 190   0.0000       1.372101        37.3368 
 191   0.0000       1.378159        37.5016 
 192   0.0000       1.400934        38.1214 
 193   0.0000       1.410117        38.3712 
 194   0.0000       1.413710        38.4690 
 195   0.0000       1.425852        38.7994 
 196   0.0000       1.451944        39.5094 
 197   0.0000       1.460697        39.7476 
 198   0.0000       1.479276        40.2531 
 199   0.0000       1.487412        40.4745 
 200   0.0000       1.489208        40.5234 
 201   0.0000       1.503235        40.9051 
 202   0.0000       1.520002        41.3614 
 203   0.0000       1.533824        41.7375 
 204   0.0000       1.538758        41.8717 
 205   0.0000       1.556489        42.3542 
 206   0.0000       1.566403        42.6240 
 207   0.0000       1.571733        42.7690 
 208   0.0000       1.572965        42.8025 
 209   0.0000       1.595012        43.4025 
 210   0.0000       1.608013        43.7563 
 211   0.0000       1.611404        43.8485 
 212   0.0000       1.634626        44.4804 
 213   0.0000       1.640146        44.6306 
 214   0.0000       1.648368        44.8544 
 215   0.0000       1.661333        45.2072 
 216   0.0000       1.671388        45.4808 
 217   0.0000       1.679642        45.7054 
 218   0.0000       1.689084        45.9623 
 219   0.0000       1.691524        46.0287 
 220   0.0000       1.697642        46.1952 
 221   0.0000       1.714163        46.6447 
 222   0.0000       1.734077        47.1866 
 223   0.0000       1.741200        47.3804 
 224   0.0000       1.745622        47.5008 
 225   0.0000       1.750922        47.6450 
 226   0.0000       1.760330        47.9010 
 227   0.0000       1.780454        48.4486 
 228   0.0000       1.800104        48.9833 
 229   0.0000       1.809253        49.2323 
 230   0.0000       1.814062        49.3631 
 231   0.0000       1.833560        49.8937 
 232   0.0000       1.842460        50.1359 
 233   0.0000       1.851193        50.3735 
 234   0.0000       1.862716        50.6871 
 235   0.0000       1.870709        50.9046 
 236   0.0000       1.905071        51.8396 
 237   0.0000       1.922521        52.3145 
 238   0.0000       1.942365        52.8544 
 239   0.0000       1.951200        53.0949 
 240   0.0000       1.968007        53.5522 
 241   0.0000       1.997591        54.3572 
 242   0.0000       2.020185        54.9720 
 243   0.0000       2.039027        55.4848 
 244   0.0000       2.055646        55.9370 
 245   0.0000       2.062842        56.1328 
 246   0.0000       2.068738        56.2932 
 247   0.0000       2.087109        56.7931 
 248   0.0000       2.128718        57.9254 
 249   0.0000       2.138405        58.1889 
 250   0.0000       2.145736        58.3885 
 251   0.0000       2.188304        59.5468 
 252   0.0000       2.199706        59.8570 
 253   0.0000       2.217722        60.3473 
 254   0.0000       2.236088        60.8470 
 255   0.0000       2.258135        61.4470 
 256   0.0000       2.269882        61.7666 
 257   0.0000       2.277682        61.9789 
 258   0.0000       2.296188        62.4825 
 259   0.0000       2.309067        62.8329 
 260   0.0000       2.321353        63.1672 
 261   0.0000       2.342443        63.7411 
 262   0.0000       2.355818        64.1051 
 263   0.0000       2.377572        64.6970 
 264   0.0000       2.382674        64.8359 
 265   0.0000       2.388043        64.9820 
 266   0.0000       2.398388        65.2634 
 267   0.0000       2.407955        65.5238 
 268   0.0000       2.424053        65.9618 
 269   0.0000       2.442410        66.4614 
 270   0.0000       2.451174        66.6998 
 271   0.0000       2.457735        66.8784 
 272   0.0000       2.460948        66.9658 
 273   0.0000       2.488338        67.7111 
 274   0.0000       2.500078        68.0306 
 275   0.0000       2.506949        68.2176 
 276   0.0000       2.516207        68.4695 
 277   0.0000       2.536316        69.0167 
 278   0.0000       2.578641        70.1684 
 279   0.0000       2.595859        70.6369 
 280   0.0000       2.607492        70.9535 
 281   0.0000       2.631286        71.6009 
 282   0.0000       2.666094        72.5481 
 283   0.0000       2.682259        72.9880 
 284   0.0000       2.693442        73.2923 
 285   0.0000       2.727148        74.2095 
 286   0.0000       2.733274        74.3762 
 287   0.0000       2.749631        74.8213 
 288   0.0000       2.774206        75.4900 
 289   0.0000       2.789061        75.8942 
 290   0.0000       2.845320        77.4251 
 291   0.0000       2.901555        78.9553 
 292   0.0000       2.976439        80.9930 
 293   0.0000       3.025836        82.3372 
 294   0.0000       3.084366        83.9299 
 295   0.0000       3.113539        84.7237 
 296   0.0000       3.349221        91.1369 
 297   0.0000       3.412540        92.8599 
 298   0.0000       3.436679        93.5168 
 299   0.0000       3.442238        93.6681 
 300   0.0000       4.922105       133.9373 
 301   0.0000       4.974514       135.3634 
 302   0.0000       4.981799       135.5616 
 303   0.0000       4.989986       135.7844 
 304   0.0000       5.005505       136.2067 
 305   0.0000       5.017397       136.5303 
 306   0.0000       5.028175       136.8236 
 307   0.0000       5.034402       136.9930 
 308   0.0000       5.072522       138.0303 
 309   0.0000       5.105861       138.9375 
 310   0.0000       5.136744       139.7779 
 311   0.0000       5.154042       140.2486 
 312   0.0000       5.182700       141.0284 
 313   0.0000       5.214127       141.8836 
 314   0.0000       5.233513       142.4111 
 315   0.0000       5.247972       142.8046 
 316   0.0000       5.279060       143.6505 
 317   0.0000       5.301871       144.2712 
 318   0.0000       5.315010       144.6288 
 319   0.0000       5.354241       145.6963 
 320   0.0000       5.382478       146.4647 
 321   0.0000       5.442485       148.0975 
 322   0.0000       5.598189       152.3345 
 323   0.0000       5.648466       153.7026 
 324   0.0000       5.693852       154.9376 
 325   0.0000       5.734638       156.0474 
 326   0.0000       5.854209       159.3011 
 327   0.0000       7.207769       196.1334 
 328   0.0000       7.289321       198.3525 
 329   0.0000       7.320100       199.1900 
 330   0.0000       9.074620       246.9330 
 331   0.0000       9.102129       247.6815 
 332   0.0000      29.576983       804.8306 
 333   0.0000      29.622929       806.0809 
 334   0.0000      29.734516       809.1173 
 335   0.0000      29.872940       812.8840 
 336   0.0000      29.912607       813.9634 
 337   0.0000      30.061731       818.0213 
 338   0.0000      30.069904       818.2437 
 339   0.0000      30.142902       820.2301 
 340   0.0000      30.255328       823.2893 
 341   0.0000      36.540307       994.3123 
 342   0.0000      36.601041       995.9650 
 343   0.0000      36.610824       996.2312 
 344   0.0000      36.623669       996.5807 
 345   0.0000      36.631711       996.7995 
 346   0.0000      36.639584       997.0138 
 347   0.0000      36.652508       997.3655 
 348   0.0000      36.693328       998.4762 
 349   0.0000      36.711304       998.9654 
 350   0.0000      36.719137       999.1785 
 351   0.0000      36.733322       999.5645 
 352   0.0000      36.782284      1000.8968 
 353   0.0000      36.828272      1002.1482 
 354   0.0000      36.841115      1002.4977 
 355   0.0000      36.882149      1003.6143 
 356   0.0000      36.890211      1003.8337 
 357   0.0000      36.917248      1004.5694 
 358   0.0000      36.945910      1005.3493 
 359   0.0000      41.152349      1119.8123 
 360   0.0000      41.231008      1121.9528 
 361   0.0000      41.257712      1122.6794 
 362   0.0000      53.611854      1458.8527 
 363   0.0000      53.639111      1459.5944 

                 SPIN DOWN ORBITALS
  NO   OCC          E(Eh)            E(eV) 
   0   1.0000     -19.123794      -520.3849 
   1   1.0000     -19.100046      -519.7387 
   2   1.0000     -14.369877      -391.0242 
   3   1.0000     -14.347790      -390.4232 
   4   1.0000     -14.309965      -389.3939 
   5   1.0000     -10.304264      -280.3933 
   6   1.0000     -10.286989      -279.9232 
   7   1.0000     -10.243356      -278.7359 
   8   1.0000     -10.224235      -278.2156 
   9   1.0000     -10.208002      -277.7739 
  10   1.0000     -10.191732      -277.3311 
  11   1.0000     -10.189928      -277.2820 
  12   1.0000     -10.185362      -277.1578 
  13   1.0000     -10.183254      -277.1004 
  14   1.0000      -1.045978       -28.4625 
  15   1.0000      -1.021378       -27.7931 
  16   1.0000      -0.930923       -25.3317 
  17   1.0000      -0.913758       -24.8646 
  18   1.0000      -0.877583       -23.8803 
  19   1.0000      -0.792094       -21.5540 
  20   1.0000      -0.761321       -20.7166 
  21   1.0000      -0.726337       -19.7646 
  22   1.0000      -0.703145       -19.1336 
  23   1.0000      -0.670091       -18.2341 
  24   1.0000      -0.603977       -16.4350 
  25   1.0000      -0.593313       -16.1449 
  26   1.0000      -0.586370       -15.9559 
  27   1.0000      -0.546739       -14.8775 
  28   1.0000      -0.530302       -14.4302 
  29   1.0000      -0.490861       -13.3570 
  30   1.0000      -0.486278       -13.2323 
  31   1.0000      -0.475283       -12.9331 
  32   1.0000      -0.467441       -12.7197 
  33   1.0000      -0.458067       -12.4646 
  34   1.0000      -0.452607       -12.3161 
  35   1.0000      -0.445566       -12.1245 
  36   1.0000      -0.431622       -11.7450 
  37   1.0000      -0.427716       -11.6387 
  38   1.0000      -0.412255       -11.2180 
  39   1.0000      -0.400585       -10.9005 
  40   1.0000      -0.398112       -10.8332 
  41   1.0000      -0.390318       -10.6211 
  42   1.0000      -0.388622       -10.5749 
  43   1.0000      -0.382283       -10.4024 
  44   1.0000      -0.363051        -9.8791 
  45   1.0000      -0.353522        -9.6198 
  46   1.0000      -0.346714        -9.4346 
  47   1.0000      -0.333654        -9.0792 
  48   1.0000      -0.329870        -8.9762 
  49   1.0000      -0.274617        -7.4727 
  50   1.0000      -0.269748        -7.3402 
  51   1.0000      -0.251031        -6.8309 
  52   1.0000      -0.244963        -6.6658 
  53   1.0000      -0.239701        -6.5226 
  54   0.0000      -0.065149        -1.7728 
  55   0.0000       0.005889         0.1602 
  56   0.0000       0.014506         0.3947 
  57   0.0000       0.021950         0.5973 
  58   0.0000       0.027179         0.7396 
  59   0.0000       0.029713         0.8085 
  60   0.0000       0.038977         1.0606 
  61   0.0000       0.051360         1.3976 
  62   0.0000       0.055800         1.5184 
  63   0.0000       0.071406         1.9431 
  64   0.0000       0.077483         2.1084 
  65   0.0000       0.095200         2.5905 
  66   0.0000       0.098719         2.6863 
  67   0.0000       0.113613         3.0916 
  68   0.0000       0.128932         3.5084 
  69   0.0000       0.149632         4.0717 
  70   0.0000       0.158377         4.3097 
  71   0.0000       0.159706         4.3458 
  72   0.0000       0.165944         4.5156 
  73   0.0000       0.179797         4.8925 
  74   0.0000       0.184184         5.0119 
  75   0.0000       0.189941         5.1686 
  76   0.0000       0.191590         5.2134 
  77   0.0000       0.196358         5.3432 
  78   0.0000       0.202477         5.5097 
  79   0.0000       0.208159         5.6643 
  80   0.0000       0.210618         5.7312 
  81   0.0000       0.215903         5.8750 
  82   0.0000       0.221452         6.0260 
  83   0.0000       0.231109         6.2888 
  84   0.0000       0.236314         6.4304 
  85   0.0000       0.240758         6.5513 
  86   0.0000       0.244277         6.6471 
  87   0.0000       0.248566         6.7638 
  88   0.0000       0.252580         6.8730 
  89   0.0000       0.261977         7.1287 
  90   0.0000       0.270503         7.3608 
  91   0.0000       0.281067         7.6482 
  92   0.0000       0.283836         7.7236 
  93   0.0000       0.285198         7.7606 
  94   0.0000       0.294755         8.0207 
  95   0.0000       0.298734         8.1290 
  96   0.0000       0.303774         8.2661 
  97   0.0000       0.311754         8.4833 
  98   0.0000       0.318102         8.6560 
  99   0.0000       0.322098         8.7647 
 100   0.0000       0.323524         8.8035 
 101   0.0000       0.333916         9.0863 
 102   0.0000       0.335489         9.1291 
 103   0.0000       0.349885         9.5208 
 104   0.0000       0.360190         9.8013 
 105   0.0000       0.373957        10.1759 
 106   0.0000       0.387391        10.5414 
 107   0.0000       0.392200        10.6723 
 108   0.0000       0.400628        10.9017 
 109   0.0000       0.404512        11.0073 
 110   0.0000       0.425171        11.5695 
 111   0.0000       0.428413        11.6577 
 112   0.0000       0.439825        11.9682 
 113   0.0000       0.450789        12.2666 
 114   0.0000       0.456268        12.4157 
 115   0.0000       0.463493        12.6123 
 116   0.0000       0.469328        12.7711 
 117   0.0000       0.483454        13.1554 
 118   0.0000       0.494062        13.4441 
 119   0.0000       0.502287        13.6679 
 120   0.0000       0.515862        14.0373 
 121   0.0000       0.532613        14.4931 
 122   0.0000       0.540311        14.7026 
 123   0.0000       0.547694        14.9035 
 124   0.0000       0.560962        15.2646 
 125   0.0000       0.576871        15.6975 
 126   0.0000       0.595366        16.2007 
 127   0.0000       0.603864        16.4320 
 128   0.0000       0.614131        16.7113 
 129   0.0000       0.635950        17.3051 
 130   0.0000       0.647556        17.6209 
 131   0.0000       0.666309        18.1312 
 132   0.0000       0.672399        18.2969 
 133   0.0000       0.706948        19.2370 
 134   0.0000       0.724788        19.7225 
 135   0.0000       0.751528        20.4501 
 136   0.0000       0.755993        20.5716 
 137   0.0000       0.761014        20.7083 
 138   0.0000       0.777466        21.1559 
 139   0.0000       0.786185        21.3932 
 140   0.0000       0.802592        21.8396 
 141   0.0000       0.818101        22.2616 
 142   0.0000       0.818752        22.2794 
 143   0.0000       0.827103        22.5066 
 144   0.0000       0.831512        22.6266 
 145   0.0000       0.847948        23.0738 
 146   0.0000       0.859871        23.3983 
 147   0.0000       0.868069        23.6214 
 148   0.0000       0.873526        23.7699 
 149   0.0000       0.886170        24.1139 
 150   0.0000       0.893515        24.3138 
 151   0.0000       0.899539        24.4777 
 152   0.0000       0.906870        24.6772 
 153   0.0000       0.917836        24.9756 
 154   0.0000       0.919445        25.0194 
 155   0.0000       0.921806        25.0836 
 156   0.0000       0.924915        25.1682 
 157   0.0000       0.930667        25.3247 
 158   0.0000       0.935218        25.4486 
 159   0.0000       0.950058        25.8524 
 160   0.0000       0.960462        26.1355 
 161   0.0000       0.967112        26.3165 
 162   0.0000       0.968294        26.3486 
 163   0.0000       0.975865        26.5546 
 164   0.0000       0.987436        26.8695 
 165   0.0000       1.014483        27.6055 
 166   0.0000       1.020377        27.7659 
 167   0.0000       1.031984        28.0817 
 168   0.0000       1.038383        28.2558 
 169   0.0000       1.049121        28.5480 
 170   0.0000       1.051862        28.6226 
 171   0.0000       1.069391        29.0996 
 172   0.0000       1.087016        29.5792 
 173   0.0000       1.103915        30.0390 
 174   0.0000       1.134202        30.8632 
 175   0.0000       1.156638        31.4737 
 176   0.0000       1.159923        31.5631 
 177   0.0000       1.165879        31.7252 
 178   0.0000       1.177275        32.0353 
 179   0.0000       1.194624        32.5074 
 180   0.0000       1.197793        32.5936 
 181   0.0000       1.204555        32.7776 
 182   0.0000       1.218972        33.1699 
 183   0.0000       1.241187        33.7744 
 184   0.0000       1.286865        35.0174 
 185   0.0000       1.291184        35.1349 
 186   0.0000       1.327997        36.1366 
 187   0.0000       1.339743        36.4563 
 188   0.0000       1.344776        36.5932 
 189   0.0000       1.359354        36.9899 
 190   0.0000       1.375628        37.4328 
 191   0.0000       1.381702        37.5980 
 192   0.0000       1.402752        38.1708 
 193   0.0000       1.411099        38.3979 
 194   0.0000       1.413996        38.4768 
 195   0.0000       1.432814        38.9888 
 196   0.0000       1.456593        39.6359 
 197   0.0000       1.464843        39.8604 
 198   0.0000       1.480292        40.2808 
 199   0.0000       1.488824        40.5130 
 200   0.0000       1.490215        40.5508 
 201   0.0000       1.504925        40.9511 
 202   0.0000       1.521332        41.3975 
 203   0.0000       1.535039        41.7705 
 204   0.0000       1.542477        41.9729 
 205   0.0000       1.559254        42.4295 
 206   0.0000       1.568715        42.6869 
 207   0.0000       1.573106        42.8064 
 208   0.0000       1.574179        42.8356 
 209   0.0000       1.596013        43.4297 
 210   0.0000       1.610736        43.8303 
 211   0.0000       1.612312        43.8732 
 212   0.0000       1.635085        44.4929 
 213   0.0000       1.644317        44.7442 
 214   0.0000       1.652117        44.9564 
 215   0.0000       1.663204        45.2581 
 216   0.0000       1.672716        45.5169 
 217   0.0000       1.680655        45.7329 
 218   0.0000       1.691986        46.0413 
 219   0.0000       1.692577        46.0574 
 220   0.0000       1.704752        46.3887 
 221   0.0000       1.717006        46.7221 
 222   0.0000       1.735891        47.2360 
 223   0.0000       1.742485        47.4154 
 224   0.0000       1.748083        47.5678 
 225   0.0000       1.752388        47.6849 
 226   0.0000       1.762686        47.9651 
 227   0.0000       1.783322        48.5267 
 228   0.0000       1.801765        49.0285 
 229   0.0000       1.811876        49.3037 
 230   0.0000       1.817754        49.4636 
 231   0.0000       1.835082        49.9351 
 232   0.0000       1.849621        50.3307 
 233   0.0000       1.853518        50.4368 
 234   0.0000       1.867463        50.8162 
 235   0.0000       1.875880        51.0453 
 236   0.0000       1.908456        51.9317 
 237   0.0000       1.926376        52.4194 
 238   0.0000       1.944354        52.9086 
 239   0.0000       1.954798        53.1928 
 240   0.0000       1.970748        53.6268 
 241   0.0000       1.998467        54.3811 
 242   0.0000       2.020777        54.9881 
 243   0.0000       2.039952        55.5099 
 244   0.0000       2.056194        55.9519 
 245   0.0000       2.064624        56.1813 
 246   0.0000       2.071740        56.3749 
 247   0.0000       2.088916        56.8423 
 248   0.0000       2.131205        57.9930 
 249   0.0000       2.141919        58.2846 
 250   0.0000       2.147779        58.4440 
 251   0.0000       2.192703        59.6665 
 252   0.0000       2.201253        59.8992 
 253   0.0000       2.218733        60.3748 
 254   0.0000       2.237102        60.8746 
 255   0.0000       2.259943        61.4962 
 256   0.0000       2.270765        61.7907 
 257   0.0000       2.278289        61.9954 
 258   0.0000       2.299142        62.5628 
 259   0.0000       2.311060        62.8871 
 260   0.0000       2.324813        63.2614 
 261   0.0000       2.343144        63.7602 
 262   0.0000       2.356933        64.1354 
 263   0.0000       2.378447        64.7208 
 264   0.0000       2.384142        64.8758 
 265   0.0000       2.390071        65.0371 
 266   0.0000       2.398694        65.2718 
 267   0.0000       2.408748        65.5454 
 268   0.0000       2.424532        65.9749 
 269   0.0000       2.443291        66.4853 
 270   0.0000       2.451995        66.7222 
 271   0.0000       2.460240        66.9465 
 272   0.0000       2.462762        67.0152 
 273   0.0000       2.489540        67.7438 
 274   0.0000       2.500250        68.0353 
 275   0.0000       2.507164        68.2234 
 276   0.0000       2.517708        68.5103 
 277   0.0000       2.539322        69.0985 
 278   0.0000       2.580091        70.2078 
 279   0.0000       2.598290        70.7031 
 280   0.0000       2.608365        70.9772 
 281   0.0000       2.632546        71.6352 
 282   0.0000       2.666726        72.5653 
 283   0.0000       2.683404        73.0191 
 284   0.0000       2.695087        73.3370 
 285   0.0000       2.729632        74.2771 
 286   0.0000       2.734510        74.4098 
 287   0.0000       2.749886        74.8282 
 288   0.0000       2.775326        75.5205 
 289   0.0000       2.790632        75.9370 
 290   0.0000       2.846321        77.4523 
 291   0.0000       2.901720        78.9598 
 292   0.0000       2.978037        81.0365 
 293   0.0000       3.026912        82.3665 
 294   0.0000       3.084716        83.9394 
 295   0.0000       3.113878        84.7329 
 296   0.0000       3.350131        91.1617 
 297   0.0000       3.413357        92.8822 
 298   0.0000       3.437276        93.5330 
 299   0.0000       3.442971        93.6880 
 300   0.0000       4.922208       133.9401 
 301   0.0000       4.975105       135.3795 
 302   0.0000       4.983705       135.6135 
 303   0.0000       4.990090       135.7873 
 304   0.0000       5.006854       136.2434 
 305   0.0000       5.017586       136.5355 
 306   0.0000       5.030102       136.8760 
 307   0.0000       5.034347       136.9915 
 308   0.0000       5.079989       138.2335 
 309   0.0000       5.107549       138.9835 
 310   0.0000       5.137273       139.7923 
 311   0.0000       5.156274       140.3093 
 312   0.0000       5.182097       141.0120 
 313   0.0000       5.216080       141.9367 
 314   0.0000       5.233988       142.4240 
 315   0.0000       5.248997       142.8325 
 316   0.0000       5.281739       143.7234 
 317   0.0000       5.302818       144.2970 
 318   0.0000       5.315669       144.6467 
 319   0.0000       5.354433       145.7015 
 320   0.0000       5.386136       146.5642 
 321   0.0000       5.450486       148.3153 
 322   0.0000       5.598237       152.3358 
 323   0.0000       5.651532       153.7860 
 324   0.0000       5.696214       155.0019 
 325   0.0000       5.735857       156.0806 
 326   0.0000       5.860763       159.4795 
 327   0.0000       7.207819       196.1347 
 328   0.0000       7.290598       198.3873 
 329   0.0000       7.321758       199.2352 
 330   0.0000       9.075205       246.9489 
 331   0.0000       9.102821       247.7003 
 332   0.0000      29.581088       804.9423 
 333   0.0000      29.623445       806.0949 
 334   0.0000      29.736247       809.1644 
 335   0.0000      29.877295       813.0025 
 336   0.0000      29.914730       814.0212 
 337   0.0000      30.064495       818.0965 
 338   0.0000      30.070836       818.2690 
 339   0.0000      30.142999       820.2327 
 340   0.0000      30.258281       823.3697 
 341   0.0000      36.540358       994.3137 
 342   0.0000      36.601124       995.9672 
 343   0.0000      36.610940       996.2343 
 344   0.0000      36.624135       996.5934 
 345   0.0000      36.633964       996.8608 
 346   0.0000      36.639625       997.0149 
 347   0.0000      36.652459       997.3641 
 348   0.0000      36.704951       998.7925 
 349   0.0000      36.711058       998.9587 
 350   0.0000      36.719132       999.1784 
 351   0.0000      36.733519       999.5699 
 352   0.0000      36.777447      1000.7652 
 353   0.0000      36.832123      1002.2530 
 354   0.0000      36.839133      1002.4438 
 355   0.0000      36.884375      1003.6749 
 356   0.0000      36.890949      1003.8538 
 357   0.0000      36.917742      1004.5828 
 358   0.0000      36.950944      1005.4863 
 359   0.0000      41.152377      1119.8131 
 360   0.0000      41.231812      1121.9746 
 361   0.0000      41.258684      1122.7059 
 362   0.0000      53.612174      1458.8614 
 363   0.0000      53.639484      1459.6046 

                    ********************************
                    * MULLIKEN POPULATION ANALYSIS *
                    ********************************

--------------------------------------------
MULLIKEN ATOMIC CHARGES AND SPIN POPULATIONS
--------------------------------------------
   0 N :   -0.132477    0.027200
   1 C :   -0.111350   -0.048586
   2 C :    0.054959    0.020466
   3 O :   -0.337819    0.008659
   4 C :   -0.137727    0.983412
   5 C :   -0.219211   -0.057820
   6 C :   -0.288801    0.011165
   7 C :   -0.291423    0.001085
   8 N :   -0.456688    0.000525
   9 H :    0.114656   -0.048568
  10 H :    0.148398    0.015173
  11 H :    0.156297    0.053122
  12 H :    0.144806   -0.000559
  13 H :    0.161648   -0.000453
  14 H :    0.157245    0.000154
  15 H :    0.135106    0.000257
  16 H :    0.211038    0.000244
  17 H :    0.210759    0.000048
  18 H :    0.250229    0.000587
  19 C :    0.176686   -0.002153
  20 N :   -0.075441    0.016919
  21 H :    0.236761    0.002690
  22 O :   -0.317563    0.008700
  23 C :   -0.552929    0.003311
  24 H :    0.185846   -0.000267
  25 H :    0.150036   -0.000015
  26 H :    0.183461    0.000657
  27 C :   -0.454668   -0.001397
  28 H :    0.197624    0.001818
  29 H :    0.161385   -0.000025
  30 H :    0.164759    0.000471
  31 H :    0.174396    0.003185
Sum of atomic charges         :   -0.0000000
Sum of atomic spin populations:    1.0000000

-----------------------------------------------------
MULLIKEN REDUCED ORBITAL CHARGES AND SPIN POPULATIONS
-----------------------------------------------------
CHARGE
  0 N s       :     3.386885  s :     3.386885
      pz      :     1.179633  p :     3.711738
      px      :     1.536791
      py      :     0.995313
      dz2     :     0.006328  d :     0.033855
      dxz     :     0.004381
      dyz     :     0.011078
      dx2y2   :     0.005795
      dxy     :     0.006274
  1 C s       :     3.130428  s :     3.130428
      pz      :     0.980811  p :     2.872916
      px      :     0.994586
      py      :     0.897519
      dz2     :     0.019955  d :     0.108006
      dxz     :     0.029606
      dyz     :     0.019365
      dx2y2   :     0.022627
      dxy     :     0.016453
  2 C s       :     3.106253  s :     3.106253
      pz      :     0.841412  p :     2.645857
      px      :     0.836208
      py      :     0.968238
      dz2     :     0.050282  d :     0.192931
      dxz     :     0.026946
      dyz     :     0.054773
      dx2y2   :     0.027860
      dxy     :     0.033070
  3 O s       :     3.904731  s :     3.904731
      pz      :     1.310676  p :     4.414744
      px      :     1.380277
[...]
 A(ORB+DIA)     -0.0005               0.0011               0.0010    A(PC) =   0.0006
 A(ORB)         -0.0007               0.0008               0.0006    A(PC) =   0.0002
 A(DIA)          0.0003               0.0003               0.0005    A(PC) =   0.0003
             ----------           ----------           ----------
 A(Tot)          1.2702              -1.4040               7.0264    A(iso)=    2.2975
 Orientation: 
  X           0.2617869            0.7393663           -0.6203267
  Y          -0.9624146            0.1518449           -0.2251693
  Z          -0.0722892            0.6559578            0.7513279

Notes:  (1) The A matrix conforms to the "SAI" spin Hamiltonian convention.
        (2) Tensor is right-handed.

 -----------------------------------------------------------
 Nucleus  20N : A:ISTP=    1 I=  0.5 P=533.5514 MHz/au**3
                Q:ISTP=    2 I=  1.0 Q=  0.0029 barn     
 -----------------------------------------------------------
 Solving for nuclear perturbation:
Forming RHS of the CP-SCF equations         ... 
Calc. nucleus orbit integrals (SHARK)       ... done

------------------------------------------------------------------------------
                           ORCA CP-SCF CALCULATION
------------------------------------------------------------------------------

Input orbitals are from        ... epr_info.gbw
Input Perturbation             ... epr_info.pin.tmp
Wavefunction output            ... epr_info.pout.tmp
Perturbation mode              ... Imaginary perturbation
Solver                         ... POPLE
Max. number of iterations      ... 64
Convergence tolerance          ... 1.000e-03
Integral handling              ... Direct
DFT GridXC                     ... 1
COSX GridX                     ... 1
COSX IntAccX                   ... 3.067
COSX Algorithm                 ... Auto
Number of perturbations        ... 3
Number of operators            ... 2
Orbital ranges used for CP-SCF:
 Operator 0:  Orbitals   0... 54  to  55...363
 Operator 1:  Orbitals   0... 53  to  54...363
Variables per perturbation     ... 33735
DFT calculation                         ... on
XC functional terms                     ... off
Hybrid DFT                              ... on
   Exchange mixing (SCF)                ...  0.200
   Exchange mixing (CP-SCF)             ...  0.200
   GGA exch. scaling(SCF)               ...  0.720
   GGA exch. scaling (CP-SCF)           ...  0.720
   GGA corr. scaling (SCF)              ...  0.810
   GGA corr. scaling (CP-SCF)           ...  0.810

CP-SCF GRID
-----------

General Integration Accuracy     IntAcc      ... 3.467
Radial Grid Type                 RadialGrid  ... OptM3 with GC (2021)
Angular Grid (max. ang.)         AngularGrid ... 1 (Lebedev-50)
Angular grid pruning method      GridPruning ... 4 (adaptive)
Weight generation scheme         WeightScheme... Becke
Basis function cutoff            BFCut       ... 1.0000e-10
Integration weight cutoff        WCut        ... 1.0000e-14
Angular grids for H and He will be reduced by one unit
Partially contracted basis set               ... off
Rotationally invariant grid construction     ... off

Total number of grid points                  ...    19992
Total number of batches                      ...      325
Average number of points per batch           ...       61
Average number of grid points per atom       ...      625

CP-SCF GRIDX
------------

General Integration Accuracy     IntAcc      ... 3.067
Radial Grid Type                 RadialGrid  ... OptM3 with GC (2021)
Angular Grid (max. ang.)         AngularGrid ... 1 (Lebedev-50)
Angular grid pruning method      GridPruning ... 4 (adaptive)
Weight generation scheme         WeightScheme... Becke
Basis function cutoff            BFCut       ... 1.0000e-10
Integration weight cutoff        WCut        ... 1.0000e-14
Angular grids for H and He will be reduced by one unit
Partially contracted basis set               ... on
Rotationally invariant grid construction     ... off

Total number of grid points                  ...     9449
Total number of batches                      ...      167
Average number of points per batch           ...       56
Average number of grid points per atom       ...      295

Memory available               ... 920.8 MB
Memory needed per perturbation ...   8.0 MB
Perturbations treated per batch... 3
Number of batches              ... 1
     CP-SCF ITERATION   0:   1.3151e+00 (   0.5 sec   0/  3 done)
     CP-SCF ITERATION   1:   4.2075e-02 (   0.4 sec   0/  3 done)
     CP-SCF ITERATION   2:   4.1751e-03 (   0.5 sec   0/  3 done)
     CP-SCF ITERATION   3:   3.2991e-04 (   0.5 sec   3/  3 done)
                    *** THE CP-SCF HAS CONVERGED ***

Forming final perturbed densities           ... done
Transforming perturbed density to AO basis  ... done

 Raw HFC matrix (all values in MHz): 
 -----------------------------------
                29.1533               7.5668             -16.0936
                 7.6295               3.0315              -1.1492
               -16.0771              -0.9820               2.2484

 A(FC)          11.4769              11.4769              11.4769
 A(SD)          -9.4450             -17.3033              26.7483
 A(ORB+DIA)      0.0966              -0.0734              -0.0206    A(PC) =   0.0009
 A(ORB)          0.0961              -0.0732              -0.0202    A(PC) =   0.0009
 A(DIA)          0.0005              -0.0002              -0.0003    A(PC) =  -0.0000
             ----------           ----------           ----------
 A(Tot)          2.1284              -5.8998              38.2046    A(iso)=   11.4777
 Orientation: 
  X           0.0327931            0.4525229           -0.8911496
  Y          -0.9201922           -0.3343336           -0.2036354
  Z          -0.3900909            0.8267068            0.4054442

Notes:  (1) The A matrix conforms to the "SAI" spin Hamiltonian convention.
        (2) Tensor is right-handed.

 -----------------------------------------------------------
 Nucleus  21H : A:ISTP=    1 I=  0.5 P=533.5514 MHz/au**3
                Q:ISTP=    2 I=  1.0 Q=  0.0029 barn     
 -----------------------------------------------------------
 Solving for nuclear perturbation:
Forming RHS of the CP-SCF equations         ... 
Calc. nucleus orbit integrals (SHARK)       ... done

------------------------------------------------------------------------------
                           ORCA CP-SCF CALCULATION
------------------------------------------------------------------------------

Input orbitals are from        ... epr_info.gbw
Input Perturbation             ... epr_info.pin.tmp
Wavefunction output            ... epr_info.pout.tmp
Perturbation mode              ... Imaginary perturbation
Solver                         ... POPLE
Max. number of iterations      ... 64
Convergence tolerance          ... 1.000e-03
Integral handling              ... Direct
DFT GridXC                     ... 1
COSX GridX                     ... 1
COSX IntAccX                   ... 3.067
COSX Algorithm                 ... Auto
Number of perturbations        ... 3
Number of operators            ... 2
Orbital ranges used for CP-SCF:
 Operator 0:  Orbitals   0... 54  to  55...363
 Operator 1:  Orbitals   0... 53  to  54...363
Variables per perturbation     ... 33735
DFT calculation                         ... on
XC functional terms                     ... off
Hybrid DFT                              ... on
   Exchange mixing (SCF)                ...  0.200
   Exchange mixing (CP-SCF)             ...  0.200
   GGA exch. scaling(SCF)               ...  0.720
   GGA exch. scaling (CP-SCF)           ...  0.720
   GGA corr. scaling (SCF)              ...  0.810
   GGA corr. scaling (CP-SCF)           ...  0.810

CP-SCF GRID
-----------

General Integration Accuracy     IntAcc      ... 3.467
Radial Grid Type                 RadialGrid  ... OptM3 with GC (2021)
Angular Grid (max. ang.)         AngularGrid ... 1 (Lebedev-50)
Angular grid pruning method      GridPruning ... 4 (adaptive)
Weight generation scheme         WeightScheme... Becke
Basis function cutoff            BFCut       ... 1.0000e-10
Integration weight cutoff        WCut        ... 1.0000e-14
Angular grids for H and He will be reduced by one unit
Partially contracted basis set               ... off
Rotationally invariant grid construction     ... off

Total number of grid points                  ...    19992
Total number of batches                      ...      325
Average number of points per batch           ...       61
Average number of grid points per atom       ...      625

CP-SCF GRIDX
------------

General Integration Accuracy     IntAcc      ... 3.067
Radial Grid Type                 RadialGrid  ... OptM3 with GC (2021)
Angular Grid (max. ang.)         AngularGrid ... 1 (Lebedev-50)
Angular grid pruning method      GridPruning ... 4 (adaptive)
Weight generation scheme         WeightScheme... Becke
Basis function cutoff            BFCut       ... 1.0000e-10
Integration weight cutoff        WCut        ... 1.0000e-14
Angular grids for H and He will be reduced by one unit
Partially contracted basis set               ... on
Rotationally invariant grid construction     ... off

Total number of grid points                  ...     9449
Total number of batches                      ...      167
Average number of points per batch           ...       56
Average number of grid points per atom       ...      295

Memory available               ... 920.4 MB
Memory needed per perturbation ...   8.0 MB
Perturbations treated per batch... 3
Number of batches              ... 1
     CP-SCF ITERATION   0:   7.2966e-02 (   0.5 sec   0/  3 done)
     CP-SCF ITERATION   1:   2.4927e-03 (   0.5 sec   0/  3 done)
     CP-SCF ITERATION   2:   2.4379e-04 (   0.5 sec   3/  3 done)
                    *** THE CP-SCF HAS CONVERGED ***

Forming final perturbed densities           ... done
Transforming perturbed density to AO basis  ... done

 Raw HFC matrix (all values in MHz): 
 -----------------------------------
                -9.6237               7.3606              -0.6350
                 7.3585               5.1321               2.4564
                -0.6349               2.4517              -8.8008

 A(FC)          -4.4256              -4.4256              -4.4256
 A(SD)          12.8423              -4.0519              -8.7904
 A(ORB+DIA)     -0.0016              -0.0129              -0.0009    A(PC) =  -0.0051
 A(ORB)         -0.0015              -0.0125               0.0001    A(PC) =  -0.0046
 A(DIA)         -0.0001              -0.0004              -0.0010    A(PC) =  -0.0005
             ----------           ----------           ----------
 A(Tot)          8.4150              -8.4904             -13.2169    A(iso)=   -4.4308
 Orientation: 
  X           0.3716309           -0.3582584            0.8564703
  Y           0.9209213            0.0255477           -0.3889103
  Z           0.1174495            0.9332729            0.3394221

Notes:  (1) The A matrix conforms to the "SAI" spin Hamiltonian convention.
        (2) Tensor is right-handed.

 -----------------------------------------------------------
 Nucleus  31H : A:ISTP=    1 I=  0.5 P=533.5514 MHz/au**3
                Q:ISTP=    2 I=  1.0 Q=  0.0029 barn     
 -----------------------------------------------------------
 Solving for nuclear perturbation:
Forming RHS of the CP-SCF equations         ... 
Calc. nucleus orbit integrals (SHARK)       ... done

------------------------------------------------------------------------------
                           ORCA CP-SCF CALCULATION
------------------------------------------------------------------------------

Input orbitals are from        ... epr_info.gbw
Input Perturbation             ... epr_info.pin.tmp
Wavefunction output            ... epr_info.pout.tmp
Perturbation mode              ... Imaginary perturbation
Solver                         ... POPLE
Max. number of iterations      ... 64
Convergence tolerance          ... 1.000e-03
Integral handling              ... Direct
DFT GridXC                     ... 1
COSX GridX                     ... 1
COSX IntAccX                   ... 3.067
COSX Algorithm                 ... Auto
Number of perturbations        ... 3
Number of operators            ... 2
Orbital ranges used for CP-SCF:
 Operator 0:  Orbitals   0... 54  to  55...363
 Operator 1:  Orbitals   0... 53  to  54...363
Variables per perturbation     ... 33735
DFT calculation                         ... on
XC functional terms                     ... off
Hybrid DFT                              ... on
   Exchange mixing (SCF)                ...  0.200
   Exchange mixing (CP-SCF)             ...  0.200
   GGA exch. scaling(SCF)               ...  0.720
   GGA exch. scaling (CP-SCF)           ...  0.720
   GGA corr. scaling (SCF)              ...  0.810
   GGA corr. scaling (CP-SCF)           ...  0.810

CP-SCF GRID
-----------

General Integration Accuracy     IntAcc      ... 3.467
Radial Grid Type                 RadialGrid  ... OptM3 with GC (2021)
Angular Grid (max. ang.)         AngularGrid ... 1 (Lebedev-50)
Angular grid pruning method      GridPruning ... 4 (adaptive)
Weight generation scheme         WeightScheme... Becke
Basis function cutoff            BFCut       ... 1.0000e-10
Integration weight cutoff        WCut        ... 1.0000e-14
Angular grids for H and He will be reduced by one unit
Partially contracted basis set               ... off
Rotationally invariant grid construction     ... off

Total number of grid points                  ...    19992
Total number of batches                      ...      325
Average number of points per batch           ...       61
Average number of grid points per atom       ...      625

CP-SCF GRIDX
------------

General Integration Accuracy     IntAcc      ... 3.067
Radial Grid Type                 RadialGrid  ... OptM3 with GC (2021)
Angular Grid (max. ang.)         AngularGrid ... 1 (Lebedev-50)
Angular grid pruning method      GridPruning ... 4 (adaptive)
Weight generation scheme         WeightScheme... Becke
Basis function cutoff            BFCut       ... 1.0000e-10
Integration weight cutoff        WCut        ... 1.0000e-14
Angular grids for H and He will be reduced by one unit
Partially contracted basis set               ... on
Rotationally invariant grid construction     ... off

Total number of grid points                  ...     9449
Total number of batches                      ...      167
Average number of points per batch           ...       56
Average number of grid points per atom       ...      295

Memory available               ... 920.0 MB
Memory needed per perturbation ...   8.0 MB
Perturbations treated per batch... 3
Number of batches              ... 1
     CP-SCF ITERATION   0:   4.2272e-02 (   0.5 sec   0/  3 done)
     CP-SCF ITERATION   1:   1.6752e-03 (   0.5 sec   0/  3 done)
     CP-SCF ITERATION   2:   1.2613e-04 (   0.5 sec   3/  3 done)
                    *** THE CP-SCF HAS CONVERGED ***

Forming final perturbed densities           ... done
Transforming perturbed density to AO basis  ... done

 Raw HFC matrix (all values in MHz): 
 -----------------------------------
                14.1945              -0.5535               2.0188
                -0.5523               0.4983               0.7745
                 2.0202               0.7748              -0.8428

 A(FC)           4.6144               4.6144               4.6144
 A(SD)          -3.7697              -6.0857               9.8554
 A(ORB+DIA)      0.0003               0.0010               0.0056    A(PC) =   0.0023
 A(ORB)          0.0001               0.0004               0.0048    A(PC) =   0.0018
 A(DIA)          0.0002               0.0006               0.0008    A(PC) =   0.0005
             ----------           ----------           ----------
 A(Tot)          0.8450              -1.4703              14.4753    A(iso)=    4.6166
 Orientation: 
  X          -0.0214698           -0.1311871            0.9911251
  Y           0.9190284           -0.3928825           -0.0320946
  Z           0.3936061            0.9101831            0.1289998

Notes:  (1) The A matrix conforms to the "SAI" spin Hamiltonian convention.
        (2) Tensor is right-handed.


--------------------------------------------------------------------------------
----------------------------------------------------------------------------
                           ORCA EULER ANGLE PROGRAM
----------------------------------------------------------------------------

Only g-tensor available        -->  using g-tensor as reference tensor

Reference tensor               ...  g

g-tensor ordering              ...  |g_min> --> |gx>
                                    |g_mid> --> |gy>
                                    |g_max> --> |gz>

A- and EFG-tensor ordering     ...  the axes |Ax>, |Qx>, |Ay>, etc. are assigned
                                    such that the Euler rotation is minimal. You
                                    can find the respective eigenvalues as Ax,
                                    EFGx, Ay, etc. in the tables below.
                                    The relation of |Ax>, |Ay>,  etc. to Amin, Amid, etc.
                                    (as printed in the ORCA EPR/NMR CALCULATION Output)
                                    is obtained in the detailed printout.

Euler rotation around          ...  z - y - z
   First rotation              -->  by alpha around z
   Second rotation             -->  by beta around y'
   Third rotation              -->  by gamma around z''
   Positive / Negative angle   -->  clockwise / counterclockwise rotation

Plot EFG-tensors                    (-)
Plot HFC-tensors                    (-)
Detailed Printout                   (-)

-------------------------------------------------------------------------
          Euler rotation of hyperfine tensor to g-tensor
-------------------------------------------------------------------------

-------------------------------------------------------------------
 Atom  |   Alpha    Beta    Gamma   |   Ax       Ay       Az 
       |          [degrees]         |           [MHz]         
-------------------------------------------------------------------
  0N      124.8     40.7   -163.3     221.96   145.77   148.07
  3O      -58.4     28.2     80.1      49.36     0.46    -9.15
  8N      171.1     21.8    176.7       6.23     5.31     7.65
  9H       46.0      5.2    -55.2     -53.99   -13.75   -89.56
 10H       48.1     59.4    -42.6      31.36    44.83    32.12
 11H     -141.7     36.1    131.6     126.76   124.35   137.70
 12H      131.6     30.0    -94.5      -4.46    -4.54     3.99
 13H       -9.9     34.6    -21.7      -4.57    -5.93     4.01
 14H      -58.4     24.0     50.7      -0.39    -0.33     2.62
 15H     -154.5      4.6    137.4       0.96     0.35     3.81
 16H        3.1     10.0     -7.8       0.21     0.21     1.42
 17H      107.2     19.5    -78.4      -0.52    -0.56     1.05
 18H     -109.5     23.9    113.1       1.27     7.03    -1.40
 20N       75.0     42.1    -87.8       2.13    -5.90    38.20
 21H       -6.6     28.6     21.4       8.41    -8.49   -13.22
 31H       31.5     12.6    -41.2       0.84    -1.47    14.48
-------------------------------------------------------------------


Maximum memory used throughout the entire EPRNMR-calculation: 137.5 MB

Timings for individual modules:

Sum of individual times         ...      485.358 sec (=   8.089 min)
GTO integral calculation        ...        3.660 sec (=   0.061 min)   0.8 %
Spin-Orbit-Coupling Matrices    ...        4.680 sec (=   0.078 min)   1.0 %
SCF iterations                  ...       24.196 sec (=   0.403 min)   5.0 %
EPR/NMR calculation             ...      452.822 sec (=   7.547 min)  93.3 %
                             ****ORCA TERMINATED NORMALLY****
TOTAL RUN TIME: 0 days 0 hours 8 minutes 7 seconds 999 msec
