
                                 *****************
                                 * O   R   C   A *
                                 *****************

                                            #,                                       
                                            ###                                      
                                            ####                                     
                                            #####                                    
                                            ######                                   
                                           ########,                                 
                                     ,,################,,,,,                         
                               ,,#################################,,                 
                          ,,##########################################,,             
                       ,#########################################, ''#####,          
                    ,#############################################,,   '####,        
                  ,##################################################,,,,####,       
                ,###########''''           ''''###############################       
              ,#####''   ,,,,##########,,,,          '''####'''          '####       
            ,##' ,,,,###########################,,,                        '##       
           ' ,,###''''                  '''############,,,                           
         ,,##''                                '''############,,,,        ,,,,,,###''
      ,#''                                            '''#######################'''  
     '                                                          ''''####''''         
             ,#######,   #######,   ,#######,      ##                                
            ,#'     '#,  ##    ##  ,#'     '#,    #''#        ######   ,####,        
            ##       ##  ##   ,#'  ##            #'  '#       #        #'  '#        
            ##       ##  #######   ##           ,######,      #####,   #    #        
            '#,     ,#'  ##    ##  '#,     ,#' ,#      #,         ##   #,  ,#        
             '#######'   ##     ##  '#######'  #'      '#     #####' # '####'        



                  #######################################################
                  #                        -***-                        #
                  #          Department of theory and spectroscopy      #
                  #    Directorship and core code : Frank Neese         #
                  #        Max Planck Institute fuer Kohlenforschung    #
                  #                Kaiser Wilhelm Platz 1               #
                  #                 D-45470 Muelheim/Ruhr               #
                  #                      Germany                        #
                  #                                                     #
                  #                  All rights reserved                #
                  #                        -***-                        #
                  #######################################################


                         Program Version 5.0.4 -  RELEASE  -


 With contributions from (in alphabetic order):
   Daniel Aravena         : Magnetic Suceptibility
   Michael Atanasov       : Ab Initio Ligand Field Theory (pilot matlab implementation)
   Alexander A. Auer      : GIAO ZORA, VPT2 properties, NMR spectrum
   Ute Becker             : Parallelization
   Giovanni Bistoni       : ED, misc. LED, open-shell LED, HFLD
   Martin Brehm           : Molecular dynamics
   Dmytro Bykov           : SCF Hessian
   Vijay G. Chilkuri      : MRCI spin determinant printing, contributions to CSF-ICE
   Dipayan Datta          : RHF DLPNO-CCSD density
   Achintya Kumar Dutta   : EOM-CC, STEOM-CC
   Dmitry Ganyushin       : Spin-Orbit,Spin-Spin,Magnetic field MRCI
   Miquel Garcia          : C-PCM and meta-GGA Hessian, CC/C-PCM, Gaussian charge scheme
   Yang Guo               : DLPNO-NEVPT2, F12-NEVPT2, CIM, IAO-localization
   Andreas Hansen         : Spin unrestricted coupled pair/coupled cluster methods
   Benjamin Helmich-Paris : MC-RPA, TRAH-SCF, COSX integrals
   Lee Huntington         : MR-EOM, pCC
   Robert Izsak           : Overlap fitted RIJCOSX, COSX-SCS-MP3, EOM
   Marcus Kettner         : VPT2
   Christian Kollmar      : KDIIS, OOCD, Brueckner-CCSD(T), CCSD density, CASPT2, CASPT2-K
   Simone Kossmann        : Meta GGA functionals, TD-DFT gradient, OOMP2, MP2 Hessian
   Martin Krupicka        : Initial AUTO-CI
   Lucas Lang             : DCDCAS
   Marvin Lechner         : AUTO-CI (C++ implementation), FIC-MRCC
   Dagmar Lenk            : GEPOL surface, SMD
   Dimitrios Liakos       : Extrapolation schemes; Compound Job, initial MDCI parallelization
   Dimitrios Manganas     : Further ROCIS development; embedding schemes
   Dimitrios Pantazis     : SARC Basis sets
   Anastasios Papadopoulos: AUTO-CI, single reference methods and gradients
   Taras Petrenko         : DFT Hessian,TD-DFT gradient, ASA, ECA, R-Raman, ABS, FL, XAS/XES, NRVS
   Peter Pinski           : DLPNO-MP2, DLPNO-MP2 Gradient
   Christoph Reimann      : Effective Core Potentials
   Marius Retegan         : Local ZFS, SOC
   Christoph Riplinger    : Optimizer, TS searches, QM/MM, DLPNO-CCSD(T), (RO)-DLPNO pert. Triples
   Tobias Risthaus        : Range-separated hybrids, TD-DFT gradient, RPA, STAB
   Michael Roemelt        : Original ROCIS implementation
   Masaaki Saitow         : Open-shell DLPNO-CCSD energy and density
   Barbara Sandhoefer     : DKH picture change effects
   Avijit Sen             : IP-ROCIS
   Kantharuban Sivalingam : CASSCF convergence, NEVPT2, FIC-MRCI
   Bernardo de Souza      : ESD, SOC TD-DFT
   Georgi Stoychev        : AutoAux, RI-MP2 NMR, DLPNO-MP2 response
   Willem Van den Heuvel  : Paramagnetic NMR
   Boris Wezisla          : Elementary symmetry handling
   Frank Wennmohs         : Technical directorship


 We gratefully acknowledge several colleagues who have allowed us to
 interface, adapt or use parts of their codes:
   Stefan Grimme, W. Hujo, H. Kruse, P. Pracht,  : VdW corrections, initial TS optimization,
                  C. Bannwarth, S. Ehlert          DFT functionals, gCP, sTDA/sTD-DF
   Ed Valeev, F. Pavosevic, A. Kumar             : LibInt (2-el integral package), F12 methods
   Garnet Chan, S. Sharma, J. Yang, R. Olivares  : DMRG
   Ulf Ekstrom                                   : XCFun DFT Library
   Mihaly Kallay                                 : mrcc  (arbitrary order and MRCC methods)
   Jiri Pittner, Ondrej Demel                    : Mk-CCSD
   Frank Weinhold                                : gennbo (NPA and NBO analysis)
   Christopher J. Cramer and Donald G. Truhlar   : smd solvation model
   Lars Goerigk                                  : TD-DFT with DH, B97 family of functionals
   V. Asgeirsson, H. Jonsson                     : NEB implementation
   FAccTs GmbH                                   : IRC, NEB, NEB-TS, DLPNO-Multilevel, CI-OPT
                                                   MM, QMMM, 2- and 3-layer-ONIOM, Crystal-QMMM,
                                                   LR-CPCM, SF, NACMEs, symmetry and pop. for TD-DFT,
                                                   nearIR, NL-DFT gradient (VV10), updates on ESD,
                                                   ML-optimized integration grids
   S Lehtola, MJT Oliveira, MAL Marques          : LibXC Library
   Liviu Ungur et al                             : ANISO software


 Your calculation uses the libint2 library for the computation of 2-el integrals
 For citations please refer to: http://libint.valeyev.net

 Your ORCA version has been built with support for libXC version: 5.1.0
 For citations please refer to: https://tddft.org/programs/libxc/

 This ORCA versions uses:
   CBLAS   interface :  Fast vector & matrix operations
   LAPACKE interface :  Fast linear algebra routines
   SCALAPACK package :  Parallel linear algebra routines
   Shared memory     :  Shared parallel matrices
   BLAS/LAPACK       :  OpenBLAS 0.3.15  USE64BITINT DYNAMIC_ARCH NO_AFFINITY Zen SINGLE_THREADED
        Core in use  :  Zen
   Copyright (c) 2011-2014, The OpenBLAS Project




***************************************
The coordinates will be read from file: opt.xyz
***************************************


XCFun DFT library Copyright 2009-2010 Ulf Ekstrom and contributors.
See http://admol.org/xcfun for more information.
This is free software; see the source code for copying conditions.
There is ABSOLUTELY NO WARRANTY; not even for MERCHANTABILITY or FITNESS FOR A PARTICULAR PURPOSE.
For details see the documentation.
Scientific users of this library should cite U. Ekstrom, L. Visscher, R. Bast, A. J. Thorvaldsen and K. Ruud;
J.Chem.Theor.Comp. 2010, DOI: 10.1021/ct100117s
XCFun Version 0.99 

================================================================================

----- Orbital basis set information -----
Your calculation utilizes the basis: def2-TZVP
   F. Weigend and R. Ahlrichs, Phys. Chem. Chem. Phys. 7, 3297 (2005).

----- AuxJ basis set information -----
Your calculation utilizes the auxiliary basis: def2/J
   F. Weigend, Phys. Chem. Chem. Phys. 8, 1057 (2006).

================================================================================
                                        WARNINGS
                       Please study these warnings very carefully!
================================================================================


WARNING: your system is open-shell and RHF/RKS was chosen
  ===> : WILL SWITCH to UHF/UKS


WARNING: Geometry Optimization
  ===> : Switching off AutoStart
         For restart on a previous wavefunction, please use MOREAD

WARNING: Minnesota functionals are quite sensitive to the integration grid.
         see SE Wheeler, KN Houk, JCTC 2010, 6, 395,
             N Mardirossian, M Head-Gordon, JCTC 2016, 12, 4303.
         DEFGRID3 seems to be a minimum grid for reliable results with these functionals!
  ===> : Please increase the integration grid!


INFO   : the flag for use of the SHARK integral package has been found!

================================================================================
                                       INPUT FILE
================================================================================
NAME = freq.inp
|  1> ! M062X def2-TZVP OPT FREQ
|  2> %pal nprocs 16 end
|  3> *XYZFile 0 2 opt.xyz
|  4> 
|  5>                          ****END OF INPUT****
================================================================================

                       *****************************
                       * Geometry Optimization Run *
                       *****************************

Geometry optimization settings:
Update method            Update   .... BFGS
Choice of coordinates    CoordSys .... Z-matrix Internals
Initial Hessian          InHess   .... Almoef's Model

Convergence Tolerances:
Energy Change            TolE     ....  5.0000e-06 Eh
Max. Gradient            TolMAXG  ....  3.0000e-04 Eh/bohr
RMS Gradient             TolRMSG  ....  1.0000e-04 Eh/bohr
Max. Displacement        TolMAXD  ....  4.0000e-03 bohr
RMS Displacement         TolRMSD  ....  2.0000e-03 bohr
Strict Convergence                ....  False
------------------------------------------------------------------------------
                        ORCA OPTIMIZATION COORDINATE SETUP
------------------------------------------------------------------------------

The optimization will be done in new redundant internal coordinates
Making redundant internal coordinates   ...  (new redundants) done
Evaluating the initial hessian          ...  (Almloef) done
Evaluating the coordinates              ...  done
Calculating the B-matrix                .... done
Calculating the G-matrix                .... done
Diagonalizing the G-matrix              .... done
Small eigenvalue found = 4.865e-03
Small eigenvalue found = 6.993e-03
Small eigenvalue found = 9.971e-03
Small eigenvalue found = 2.578e-02
Small eigenvalue found = 2.921e-02
The first mode is                       ....   63
The number of degrees of freedom        ....   90

    -----------------------------------------------------------------
                    Redundant Internal Coordinates


    -----------------------------------------------------------------
         Definition                    Initial Value    Approx d2E/dq
    -----------------------------------------------------------------
      1. B(C   1,N   0)                  1.4620         0.429601   
      2. B(C   2,C   1)                  1.5605         0.334014   
      3. B(O   3,C   2)                  1.2319         1.000328   
      4. B(C   4,C   1)                  1.5084         0.404488   
      5. B(C   5,C   4)                  1.5002         0.416772   
      6. B(C   6,C   5)                  1.5410         0.358765   
      7. B(C   7,C   6)                  1.5349         0.366965   
      8. B(N   8,C   7)                  1.4746         0.410180   
      9. B(H   9,C   4)                  1.0873         0.363641   
     10. B(H  10,C   5)                  1.0998         0.347396   
     11. B(H  11,C   5)                  1.1044         0.341575   
     12. B(H  12,C   6)                  1.0995         0.347764   
     13. B(H  13,C   6)                  1.0963         0.351919   
     14. B(H  14,C   7)                  1.0971         0.350808   
     15. B(H  15,C   7)                  1.1041         0.341867   
     16. B(H  16,N   8)                  1.0167         0.422143   
     17. B(H  17,N   8)                  1.0173         0.421183   
     18. B(H  18,N   0)                  1.0138         0.426660   
     19. B(C  19,N   0)                  1.3676         0.607539   
     20. B(N  20,C   2)                  1.3593         0.626331   
     21. B(H  21,N  20)                  1.0108         0.431488   
     22. B(O  22,C  19)                  1.2313         1.002644   
     23. B(C  23,C  19)                  1.5267         0.378144   
     24. B(H  24,C  23)                  1.0933         0.355733   
     25. B(H  25,C  23)                  1.0931         0.355993   
     26. B(H  26,C  23)                  1.0935         0.355443   
     27. B(C  27,N  20)                  1.4577         0.436335   
     28. B(H  28,C  27)                  1.0902         0.359852   
     29. B(H  29,C  27)                  1.0943         0.354514   
     30. B(H  30,C  27)                  1.0959         0.352351   
     31. B(H  31,C   1)                  1.0992         0.348081   
     32. A(C   1,N   0,C  19)          121.5513         0.399934   
     33. A(H  18,N   0,C  19)          120.9268         0.356578   
     34. A(C   1,N   0,H  18)          114.3099         0.336392   
     35. A(N   0,C   1,C   2)          105.6951         0.362812   
     36. A(C   2,C   1,C   4)          113.3417         0.361345   
     37. A(N   0,C   1,C   4)          113.6603         0.374937   
     38. A(C   4,C   1,H  31)          108.2606         0.326758   
     39. A(N   0,C   1,H  31)          109.0822         0.328038   
     40. A(C   2,C   1,H  31)          106.5109         0.316676   
     41. A(C   1,C   2,O   3)          121.5296         0.420539   
     42. A(O   3,C   2,N  20)          124.0430         0.468093   
     43. A(C   1,C   2,N  20)          114.3889         0.387203   
     44. A(C   1,C   4,C   5)          121.5646         0.375337   
     45. A(C   5,C   4,H   9)          118.5705         0.330754   
     46. A(C   1,C   4,H   9)          117.8364         0.329123   
     47. A(H  10,C   5,H  11)          105.2408         0.286826   
     48. A(C   6,C   5,H  11)          108.7975         0.319403   
     49. A(C   4,C   5,H  11)          108.8760         0.327353   
     50. A(C   4,C   5,C   6)          113.3671         0.367668   
     51. A(C   4,C   5,H  10)          110.2156         0.328267   
     52. A(C   6,C   5,H  10)          110.0065         0.320286   
     53. A(C   5,C   6,C   7)          112.8536         0.359755   
     54. A(H  12,C   6,H  13)          106.7056         0.288214   
     55. A(C   7,C   6,H  13)          108.6429         0.322154   
     56. A(C   5,C   6,H  13)          110.3320         0.320964   
     57. A(C   7,C   6,H  12)          109.1135         0.321528   
     58. A(C   5,C   6,H  12)          109.0014         0.320342   
     59. A(H  14,C   7,H  15)          106.8447         0.287303   
     60. A(N   8,C   7,H  15)          113.6171         0.324586   
     61. A(C   6,C   7,H  15)          108.8187         0.320630   
     62. A(N   8,C   7,H  14)          107.7573         0.325967   
     63. A(C   6,C   7,H  14)          109.0787         0.321987   
     64. A(C   6,C   7,N   8)          110.5756         0.365791   
     65. A(H  16,N   8,H  17)          105.8726         0.300764   
     66. A(C   7,N   8,H  17)          109.2444         0.333100   
     67. A(C   7,N   8,H  16)          109.6328         0.333226   
     68. A(O  22,C  19,C  23)          121.8254         0.430162   
     69. A(N   0,C  19,C  23)          115.6090         0.393590   
     70. A(N   0,C  19,O  22)          122.5579         0.465685   
     71. A(H  21,N  20,C  27)          119.5496         0.337897   
     72. A(C   2,N  20,C  27)          123.3161         0.403189   
     73. A(C   2,N  20,H  21)          116.7120         0.359117   
     74. A(H  25,C  23,H  26)          109.2157         0.289724   
     75. A(H  24,C  23,H  26)          107.5998         0.289691   
     76. A(C  19,C  23,H  26)          108.4922         0.324273   
     77. A(H  24,C  23,H  25)          109.4046         0.289761   
     78. A(C  19,C  23,H  25)          113.4992         0.324355   
     79. A(C  19,C  23,H  24)          108.4606         0.324316   
     80. A(H  29,C  27,H  30)          109.0282         0.289139   
     81. A(H  28,C  27,H  30)          108.7776         0.289817   
     82. A(N  20,C  27,H  30)          111.3418         0.329544   
     83. A(H  28,C  27,H  29)          109.2466         0.290095   
     84. A(N  20,C  27,H  29)          110.3713         0.329877   
     85. A(N  20,C  27,H  28)          108.0341         0.330694   
     86. D(C   2,C   1,N   0,C  19)   -164.3882         0.015735   
     87. D(C   4,C   1,N   0,H  18)   -129.3999         0.015735   
     88. D(C   4,C   1,N   0,C  19)     70.6909         0.015735   
     89. D(H  31,C   1,N   0,H  18)    109.6992         0.015735   
     90. D(C   2,C   1,N   0,H  18)     -4.4789         0.015735   
     91. D(H  31,C   1,N   0,C  19)    -50.2100         0.015735   
     92. D(O   3,C   2,C   1,C   4)    137.0893         0.008509   
     93. D(O   3,C   2,C   1,H  31)   -103.9728         0.008509   
     94. D(N  20,C   2,C   1,H  31)     73.8596         0.008509   
     95. D(N  20,C   2,C   1,C   4)    -45.0783         0.008509   
     96. D(O   3,C   2,C   1,N   0)     11.9707         0.008509   
     97. D(N  20,C   2,C   1,N   0)   -170.1970         0.008509   
     98. D(C   5,C   4,C   1,H  31)    170.7097         0.012130   
     99. D(C   5,C   4,C   1,N   0)     49.3491         0.012130   
    100. D(C   5,C   4,C   1,C   2)    -71.3643         0.012130   
    101. D(H   9,C   4,C   1,H  31)      7.1453         0.012130   
    102. D(H   9,C   4,C   1,C   2)    125.0713         0.012130   
    103. D(H   9,C   4,C   1,N   0)   -114.2153         0.012130   
    104. D(H  11,C   5,C   4,H   9)     84.2702         0.012850   
    105. D(H  11,C   5,C   4,C   1)    -79.1776         0.012850   
    106. D(H  10,C   5,C   4,H   9)   -160.7715         0.012850   
    107. D(C   6,C   5,C   4,H   9)    -36.9740         0.012850   
    108. D(C   6,C   5,C   4,C   1)    159.5781         0.012850   
    109. D(H  10,C   5,C   4,C   1)     35.7807         0.012850   
    110. D(H  12,C   6,C   5,H  11)    -67.8105         0.010331   
    111. D(H  12,C   6,C   5,H  10)    177.3896         0.010331   
    112. D(H  12,C   6,C   5,C   4)     53.4780         0.010331   
    113. D(H  13,C   6,C   5,C   4)    -63.3826         0.010331   
    114. D(C   7,C   6,C   5,H  11)     53.5852         0.010331   
    115. D(C   7,C   6,C   5,H  10)    -61.2147         0.010331   
    116. D(C   7,C   6,C   5,C   4)    174.8737         0.010331   
    117. D(H  13,C   6,C   5,H  11)    175.3290         0.010331   
    118. D(H  13,C   6,C   5,H  10)     60.5290         0.010331   
    119. D(H  15,C   7,C   6,H  13)   -178.8764         0.010776   
    120. D(H  15,C   7,C   6,H  12)     65.1481         0.010776   
    121. D(H  15,C   7,C   6,C   5)    -56.1841         0.010776   
    122. D(H  14,C   7,C   6,H  13)    -62.6573         0.010776   
    123. D(H  14,C   7,C   6,H  12)   -178.6328         0.010776   
    124. D(H  14,C   7,C   6,C   5)     60.0351         0.010776   
    125. D(N   8,C   7,C   6,H  13)     55.6718         0.010776   
    126. D(N   8,C   7,C   6,H  12)    -60.3037         0.010776   
    127. D(N   8,C   7,C   6,C   5)    178.3642         0.010776   
    128. D(H  17,N   8,C   7,H  15)    -55.9570         0.014353   
    129. D(H  17,N   8,C   7,H  14)   -174.1287         0.014353   
    130. D(H  17,N   8,C   7,C   6)     66.7394         0.014353   
    131. D(H  16,N   8,C   7,H  15)     59.6441         0.014353   
    132. D(H  16,N   8,C   7,H  14)    -58.5276         0.014353   
    133. D(H  16,N   8,C   7,C   6)   -177.6594         0.014353   
    134. D(C  23,C  19,N   0,H  18)     14.1880         0.029796   
    135. D(C  23,C  19,N   0,C   1)    172.7845         0.029796   
    136. D(O  22,C  19,N   0,H  18)   -166.8045         0.029796   
    137. D(O  22,C  19,N   0,C   1)     -8.2081         0.029796   
    138. D(C  27,N  20,C   2,O   3)     -0.8446         0.031817   
    139. D(C  27,N  20,C   2,C   1)   -178.6148         0.031817   
    140. D(H  21,N  20,C   2,O   3)   -173.3371         0.031817   
    141. D(H  21,N  20,C   2,C   1)      8.8928         0.031817   
    142. D(H  26,C  23,C  19,O  22)    -58.5733         0.010677   
    143. D(H  26,C  23,C  19,N   0)    120.4421         0.010677   
    144. D(H  25,C  23,C  19,O  22)    179.8362         0.010677   
    145. D(H  25,C  23,C  19,N   0)     -1.1483         0.010677   
    146. D(H  24,C  23,C  19,O  22)     58.0275         0.010677   
    147. D(H  24,C  23,C  19,N   0)   -122.9570         0.010677   
    148. D(H  28,C  27,N  20,C   2)     11.5693         0.016233   
    149. D(H  30,C  27,N  20,H  21)     64.4751         0.016233   
    150. D(H  30,C  27,N  20,C   2)   -107.8147         0.016233   
    151. D(H  29,C  27,N  20,H  21)    -56.7550         0.016233   
    152. D(H  29,C  27,N  20,C   2)    130.9553         0.016233   
    153. D(H  28,C  27,N  20,H  21)   -176.1409         0.016233   
    -----------------------------------------------------------------

Number of atoms                         .... 32
Number of degrees of freedom            .... 153

         *************************************************************
         *                GEOMETRY OPTIMIZATION CYCLE   1            *
         *************************************************************
---------------------------------
CARTESIAN COORDINATES (ANGSTROEM)
---------------------------------
  N     -1.984447    0.776611    0.809381
  C     -1.564756   -0.014801   -0.345979
  C     -1.855279   -1.500637    0.032114
  O     -2.535147   -1.793719    1.016703
  C     -0.134476    0.228144   -0.758798
  C      0.986792    0.195291    0.237355
  C      2.368729   -0.032913   -0.405210
  C      3.519230    0.060219    0.606457
  N      4.811539   -0.204028   -0.052648
  H      0.043020    0.691225   -1.726450
  H      0.795004   -0.573326    1.000214
  H      1.003953    1.152621    0.787693
  H      2.523549    0.714790   -1.196314
  H      2.406202   -1.015929   -0.889000
  H      3.377182   -0.702404    1.382275
  H      3.472061    1.041668    1.110111
  H      5.558424   -0.176992    0.636677
  H      5.012274    0.546065   -0.709964
  H     -2.422923    0.237445    1.547550
  C     -2.170157    2.128701    0.721283
  N     -1.338703   -2.411659   -0.834472
  H     -0.712084   -2.058695   -1.544696
  O     -1.857861    2.776699   -0.277993
  C     -2.771602    2.794051    1.956743
  H     -3.685526    3.315079    1.659043
  H     -3.000094    2.091535    2.762459
  H     -2.067055    3.545641    2.323570
  C     -1.518073   -3.850533   -0.684672
  H     -2.277264   -4.018257    0.079531
  H     -1.852014   -4.293029   -1.628110
  H     -0.587975   -4.337876   -0.370889
  H     -2.214857    0.223127   -1.199846

----------------------------
CARTESIAN COORDINATES (A.U.)
----------------------------
  NO LB      ZA    FRAG     MASS         X           Y           Z
   0 N     7.0000    0    14.007   -3.750062    1.467583    1.529509
   1 C     6.0000    0    12.011   -2.956961   -0.027969   -0.653805
   2 C     6.0000    0    12.011   -3.505969   -2.835793    0.060687
   3 O     8.0000    0    15.999   -4.790734   -3.389637    1.921291
   4 C     6.0000    0    12.011   -0.254123    0.431129   -1.433921
   5 C     6.0000    0    12.011    1.864767    0.369046    0.448535
   6 C     6.0000    0    12.011    4.476250   -0.062197   -0.765736
   7 C     6.0000    0    12.011    6.650380    0.113798    1.146037
   8 N     7.0000    0    14.007    9.092492   -0.385557   -0.099491
   9 H     1.0000    0     1.008    0.081296    1.306227   -3.262518
  10 H     1.0000    0     1.008    1.502339   -1.083429    1.890130
  11 H     1.0000    0     1.008    1.897196    2.178138    1.488524
  12 H     1.0000    0     1.008    4.768817    1.350758   -2.260705
  13 H     1.0000    0     1.008    4.547062   -1.919827   -1.679967
  14 H     1.0000    0     1.008    6.381949   -1.327350    2.612121
  15 H     1.0000    0     1.008    6.561245    1.968467    2.097807
  16 H     1.0000    0     1.008   10.503900   -0.334467    1.203145
  17 H     1.0000    0     1.008    9.471826    1.031913   -1.341638
  18 H     1.0000    0     1.008   -4.578661    0.448706    2.924447
  19 C     6.0000    0    12.011   -4.101003    4.022662    1.363028
  20 N     7.0000    0    14.007   -2.529783   -4.557376   -1.576924
  21 H     1.0000    0     1.008   -1.345644   -3.890370   -2.919053
  22 O     8.0000    0    15.999   -3.510848    5.247200   -0.525330
  23 C     6.0000    0    12.011   -5.237568    5.279991    3.697708
  24 H     1.0000    0     1.008   -6.964634    6.264591    3.135136
  25 H     1.0000    0     1.008   -5.669356    3.952429    5.220291
  26 H     1.0000    0     1.008   -3.906168    6.700291    4.390912
  27 C     6.0000    0    12.011   -2.868742   -7.276452   -1.293842
  28 H     1.0000    0     1.008   -4.303406   -7.593405    0.150293
  29 H     1.0000    0     1.008   -3.499800   -8.112649   -3.076683
  30 H     1.0000    0     1.008   -1.111113   -8.197398   -0.700879
  31 H     1.0000    0     1.008   -4.185474    0.421649   -2.267379

--------------------------------
INTERNAL COORDINATES (ANGSTROEM)
--------------------------------
 N      0   0   0     0.000000000000     0.00000000     0.00000000
 C      1   0   0     1.461961357258     0.00000000     0.00000000
 C      2   1   0     1.560469981864   105.69509234     0.00000000
 O      3   2   1     1.231882014703   121.52964702    11.97065424
 C      2   1   3     1.508358158214   113.66033873   235.07903276
 C      5   2   1     1.500214133383   121.56458584    49.34910806
 C      6   5   2     1.541011328930   113.36710564   159.57811349
 C      7   6   5     1.534859664385   112.85358576   174.87365108
 N      8   7   6     1.474554338377   110.57561200   178.36417398
 H      5   2   1     1.087336035826   117.83636170   245.78468060
 H      6   5   2     1.099776757684   110.21559682    35.78065918
 H      6   5   2     1.104376820424   108.87603273   280.82239805
 H      7   6   5     1.099488594787   109.00142015    53.47795091
 H      7   6   5     1.096255841168   110.33203075   296.61740856
 H      8   7   6     1.097116555054   109.07873977    60.03505076
 H      8   7   6     1.104143739268   108.81866939   303.81589597
 H      9   8   7     1.016728819200   109.63280896   182.34056327
 H      9   8   7     1.017348500085   109.24437504    66.73943662
 H      1   2   3     1.013831779768   114.30989461   355.52109607
 C      1   2   3     1.367624410473   121.55127649   195.61182538
 N      3   2   1     1.359332178290   114.38894686   189.80299054
 H     21   3   2     1.010768721207   116.71198800     8.89277012
 O     20   1   2     1.231252647327   122.55788697   351.79192037
 C     20   1   2     1.526690925933   115.60902969   172.78445329
 H     24  20   1     1.093321402054   108.46056144   237.04296653
 H     24  20   1     1.093122147744   113.49924133   358.85165168
 H     24  20   1     1.093543261433   108.49220521   120.44211138
 C     21   3   2     1.457727676731   123.31607146   181.38524005
 H     28  21   3     1.090187709152   108.03408212    11.56933804
 H     28  21   3     1.094255963993   110.37129608   130.95525688
 H     28  21   3     1.095921979601   111.34175923   252.18530040
 H      2   1   3     1.099240315537   109.08221231   114.17813475

---------------------------
INTERNAL COORDINATES (A.U.)
---------------------------
 N      0   0   0     0.000000000000     0.00000000     0.00000000
 C      1   0   0     2.762706583594     0.00000000     0.00000000
 C      2   1   0     2.948860905928   105.69509234     0.00000000
 O      3   2   1     2.327919637093   121.52964702    11.97065424
 C      2   1   3     2.850383830890   113.66033873   235.07903276
 C      5   2   1     2.834993854332   121.56458584    49.34910806
 C      6   5   2     2.912089380947   113.36710564   159.57811349
 C      7   6   5     2.900464419690   112.85358576   174.87365108
 N      8   7   6     2.786503869117   110.57561200   178.36417398
 H      5   2   1     2.054767323255   117.83636170   245.78468060
 H      6   5   2     2.078276880474   110.21559682    35.78065918
 H      6   5   2     2.086969739252   108.87603273   280.82239805
 H      7   6   5     2.077732331517   109.00142015    53.47795091
 H      7   6   5     2.071623312519   110.33203075   296.61740856
 H      8   7   6     2.073249826042   109.07873977    60.03505076
 H      8   7   6     2.086529279700   108.81866939   303.81589597
 H      9   8   7     1.921339020754   109.63280896   182.34056327
 H      9   8   7     1.922510047916   109.24437504    66.73943662
 H      1   2   3     1.915864409627   114.30989461   355.52109607
 C      1   2   3     2.584435589860   121.55127649   195.61182538
 N      3   2   1     2.568765541995   114.38894686   189.80299054
 H     21   3   2     1.910076067815   116.71198800     8.89277012
 O     20   1   2     2.326730305113   122.55788697   351.79192037
 C     20   1   2     2.885027741156   115.60902969   172.78445329
 H     24  20   1     2.066078026237   108.46056144   237.04296653
 H     24  20   1     2.065701490160   113.49924133   358.85165168
 H     24  20   1     2.066497279704   108.49220521   120.44211138
 C     21   3   2     2.754706086859   123.31607146   181.38524005
 H     28  21   3     2.060156204864   108.03408212    11.56933804
 H     28  21   3     2.067844092357   110.37129608   130.95525688
 H     28  21   3     2.070992405591   111.34175923   252.18530040
 H      2   1   3     2.077263151730   109.08221231   114.17813475

---------------------
BASIS SET INFORMATION
---------------------
There are 4 groups of distinct atoms

 Group   1 Type N   : 11s6p2d1f contracted to 5s3p2d1f pattern {62111/411/11/1}
 Group   2 Type C   : 11s6p2d1f contracted to 5s3p2d1f pattern {62111/411/11/1}
 Group   3 Type O   : 11s6p2d1f contracted to 5s3p2d1f pattern {62111/411/11/1}
 Group   4 Type H   : 5s1p contracted to 3s1p pattern {311/1}

Atom   0N    basis set group =>   1
Atom   1C    basis set group =>   2
Atom   2C    basis set group =>   2
Atom   3O    basis set group =>   3
Atom   4C    basis set group =>   2
Atom   5C    basis set group =>   2
Atom   6C    basis set group =>   2
Atom   7C    basis set group =>   2
Atom   8N    basis set group =>   1
Atom   9H    basis set group =>   4
Atom  10H    basis set group =>   4
Atom  11H    basis set group =>   4
Atom  12H    basis set group =>   4
Atom  13H    basis set group =>   4
Atom  14H    basis set group =>   4
Atom  15H    basis set group =>   4
Atom  16H    basis set group =>   4
Atom  17H    basis set group =>   4
Atom  18H    basis set group =>   4
Atom  19C    basis set group =>   2
Atom  20N    basis set group =>   1
Atom  21H    basis set group =>   4
Atom  22O    basis set group =>   3
Atom  23C    basis set group =>   2
Atom  24H    basis set group =>   4
Atom  25H    basis set group =>   4
Atom  26H    basis set group =>   4
Atom  27C    basis set group =>   2
Atom  28H    basis set group =>   4
Atom  29H    basis set group =>   4
Atom  30H    basis set group =>   4
Atom  31H    basis set group =>   4
---------------------------------
AUXILIARY/J BASIS SET INFORMATION
---------------------------------
There are 4 groups of distinct atoms

 Group   1 Type N   : 12s5p4d2f1g contracted to 6s4p3d1f1g pattern {711111/2111/211/2/1}
 Group   2 Type C   : 12s5p4d2f1g contracted to 6s4p3d1f1g pattern {711111/2111/211/2/1}
 Group   3 Type O   : 12s5p4d2f1g contracted to 6s4p3d1f1g pattern {711111/2111/211/2/1}
 Group   4 Type H   : 5s2p1d contracted to 3s1p1d pattern {311/2/1}

Atom   0N    basis set group =>   1
Atom   1C    basis set group =>   2
Atom   2C    basis set group =>   2
Atom   3O    basis set group =>   3
Atom   4C    basis set group =>   2
Atom   5C    basis set group =>   2
Atom   6C    basis set group =>   2
Atom   7C    basis set group =>   2
Atom   8N    basis set group =>   1
Atom   9H    basis set group =>   4
Atom  10H    basis set group =>   4
Atom  11H    basis set group =>   4
Atom  12H    basis set group =>   4
Atom  13H    basis set group =>   4
Atom  14H    basis set group =>   4
Atom  15H    basis set group =>   4
Atom  16H    basis set group =>   4
Atom  17H    basis set group =>   4
Atom  18H    basis set group =>   4
Atom  19C    basis set group =>   2
Atom  20N    basis set group =>   1
Atom  21H    basis set group =>   4
Atom  22O    basis set group =>   3
Atom  23C    basis set group =>   2
Atom  24H    basis set group =>   4
Atom  25H    basis set group =>   4
Atom  26H    basis set group =>   4
Atom  27C    basis set group =>   2
Atom  28H    basis set group =>   4
Atom  29H    basis set group =>   4
Atom  30H    basis set group =>   4
Atom  31H    basis set group =>   4


           ************************************************************
           *        Program running with 16 parallel MPI-processes    *
           *              working on a common directory               *
           ************************************************************
------------------------------------------------------------------------------
                           ORCA GTO INTEGRAL CALCULATION
                           -- RI-GTO INTEGRALS CHOSEN --
------------------------------------------------------------------------------
------------------------------------------------------------------------------
                   ___                                                        
                  /   \      - P O W E R E D   B Y -                         
                 /     \                                                     
                 |  |  |   _    _      __       _____    __    __             
                 |  |  |  | |  | |    /  \     |  _  \  |  |  /  |          
                  \  \/   | |  | |   /    \    | | | |  |  | /  /          
                 / \  \   | |__| |  /  /\  \   | |_| |  |  |/  /          
                |  |  |   |  __  | /  /__\  \  |    /   |      \           
                |  |  |   | |  | | |   __   |  |    \   |  |\   \          
                \     /   | |  | | |  |  |  |  | |\  \  |  | \   \       
                 \___/    |_|  |_| |__|  |__|  |_| \__\ |__|  \__/        
                                                                              
                      - O R C A' S   B I G   F R I E N D -                    
                                      &                                       
                       - I N T E G R A L  F E E D E R -                       
                                                                              
 v1 FN, 2020, v2 2021                                                         
------------------------------------------------------------------------------


Reading SHARK input file freq.SHARKINP.tmp ... ok
----------------------
SHARK INTEGRAL PACKAGE
----------------------

Number of atoms                             ...     32
Number of basis functions                   ...    542
Number of shells                            ...    226
Maximum angular momentum                    ...      3
Integral batch strategy                     ... SHARK/LIBINT Hybrid
RI-J (if used) integral strategy            ... SPLIT-RIJ (Revised 2003 algorithm where possible)
Printlevel                                  ...      1
Contraction scheme used                     ... SEGMENTED contraction
Coulomb Range Separation                    ... NOT USED
Exchange Range Separation                   ... NOT USED
Finite Nucleus Model                        ... NOT USED
Auxiliary Coulomb fitting basis             ... AVAILABLE
   # of basis functions in Aux-J            ...    884
   # of shells in Aux-J                     ...    300
   Maximum angular momentum in Aux-J        ...      4
Auxiliary J/K fitting basis                 ... NOT available
Auxiliary Correlation fitting basis         ... NOT available
Auxiliary 'external' fitting basis          ... NOT available
Integral threshold                          ...     2.500000e-11
Primitive cut-off                           ...     2.500000e-12
Primitive pair pre-selection threshold      ...     2.500000e-12

Calculating pre-screening integrals         ... done (  0.0 sec) Dimension = 226
Organizing shell pair data                  ... done (  0.1 sec)
Shell pair information
Total number of shell pairs                 ...     25651
Shell pairs after pre-screening             ...     19206
Total number of primitive shell pairs       ...     75828
Primitive shell pairs kept                  ...     39492
          la=0 lb=0:   5753 shell pairs
          la=1 lb=0:   5691 shell pairs
          la=1 lb=1:   1451 shell pairs
          la=2 lb=0:   2543 shell pairs
          la=2 lb=1:   1283 shell pairs
          la=2 lb=2:    306 shell pairs
          la=3 lb=0:   1213 shell pairs
          la=3 lb=1:    616 shell pairs
          la=3 lb=2:    278 shell pairs
          la=3 lb=3:     72 shell pairs

Calculating one electron integrals          ... done (  0.0 sec)
Calculating RI/J V-Matrix + Cholesky decomp.... done (  0.0 sec)
Calculating Nuclear repulsion               ... done (  0.0 sec) ENN=    914.361334144061 Eh

SHARK setup successfully completed in   0.4 seconds

Maximum memory used throughout the entire GTOINT-calculation: 30.9 MB


           ************************************************************
           *        Program running with 16 parallel MPI-processes    *
           *              working on a common directory               *
           ************************************************************
-------------------------------------------------------------------------------
                                 ORCA SCF
-------------------------------------------------------------------------------

------------
SCF SETTINGS
------------
Hamiltonian:
 Density Functional     Method          .... DFT(GTOs)
 Exchange Functional    Exchange        .... M062X
 Correlation Functional Correlation     .... M062X
 Gradients option       PostSCFGGA      .... off
 Hybrid DFT is turned on
   Fraction HF Exchange ScalHFX         ....  0.540000
   Scaling of DF-GGA-X  ScalDFX         ....  0.460000
   Scaling of DF-GGA-C  ScalDFC         ....  1.000000
   Scaling of DF-LDA-C  ScalLDAC        ....  1.000000
   Perturbative correction              ....  0.000000
   Density functional embedding theory  .... OFF
 RI-approximation to the Coulomb term is turned on
   Number of AuxJ basis functions       .... 884
   RIJ-COSX (HFX calculated with COS-X)).... on


General Settings:
 Integral files         IntName         .... freq
 Hartree-Fock type      HFTyp           .... UHF
 Total Charge           Charge          ....    0
 Multiplicity           Mult            ....    2
 Number of Electrons    NEL             ....  109
 Basis Dimension        Dim             ....  542
 Nuclear Repulsion      ENuc            ....    914.3613341441 Eh

Convergence Acceleration:
 DIIS                   CNVDIIS         .... on
   Start iteration      DIISMaxIt       ....    12
   Startup error        DIISStart       ....  0.200000
   # of expansion vecs  DIISMaxEq       ....     5
   Bias factor          DIISBfac        ....   1.050
   Max. coefficient     DIISMaxC        ....  10.000
 Trust-Rad. Augm. Hess. CNVTRAH         .... auto
   Auto Start mean grad. ratio tolernc. ....  1.125000
   Auto Start start iteration           ....    20
   Auto Start num. interpolation iter.  ....    10
   Max. Number of Micro iterations      ....    16
   Max. Number of Macro iterations      .... Maxiter - #DIIS iter
   Number of Davidson start vectors     ....     2
   Converg. threshold I  (grad. norm)   ....   1.000e-05
   Converg. threshold II (energy diff.) ....   1.000e-08
   Grad. Scal. Fac. for Micro threshold ....   0.100
   Minimum threshold for Micro iter.    ....   0.010
   NR start threshold (gradient norm)   ....   0.001
   Initial trust radius                 ....   0.400
   Minimum AH scaling param. (alpha)    ....   1.000
   Maximum AH scaling param. (alpha)    .... 1000.000
   Orbital update algorithm             .... Taylor
   White noise on init. David. guess    .... on
   Maximum white noise                  ....   0.010
   Quad. conv. algorithm                .... NR
 SOSCF                  CNVSOSCF        .... off
 Level Shifting         CNVShift        .... on
   Level shift para.    LevelShift      ....    0.2500
   Turn off err/grad.   ShiftErr        ....    0.0010
 Zerner damping         CNVZerner       .... off
 Static damping         CNVDamp         .... on
   Fraction old density DampFac         ....    0.7000
   Max. Damping (<1)    DampMax         ....    0.9800
   Min. Damping (>=0)   DampMin         ....    0.0000
   Turn off err/grad.   DampErr         ....    0.1000
 Fernandez-Rico         CNVRico         .... off

SCF Procedure:
 Maximum # iterations   MaxIter         ....   125
 SCF integral mode      SCFMode         .... Direct
   Integral package                     .... SHARK and LIBINT hybrid scheme
 Reset frequency        DirectResetFreq ....    20
 Integral Threshold     Thresh          ....  2.500e-11 Eh
 Primitive CutOff       TCut            ....  2.500e-12 Eh

Convergence Tolerance:
 Convergence Check Mode ConvCheckMode   .... Total+1el-Energy
 Convergence forced     ConvForced      .... 0
 Energy Change          TolE            ....  1.000e-08 Eh
 1-El. energy change                    ....  1.000e-05 Eh
 DIIS Error             TolErr          ....  5.000e-07


Diagonalization of the overlap matrix:
Smallest eigenvalue                        ... 6.325e-05
Time for diagonalization                   ...    0.035 sec
Threshold for overlap eigenvalues          ... 1.000e-08
Number of eigenvalues below threshold      ... 0
Time for construction of square roots      ...    0.023 sec
Total time needed                          ...    0.060 sec

Time for model grid setup =    0.117 sec

------------------------------
INITIAL GUESS: MODEL POTENTIAL
------------------------------
Loading Hartree-Fock densities                     ... done
Calculating cut-offs                               ... done
Initializing the effective Hamiltonian             ... done
Setting up the integral package (SHARK)            ... done
Starting the Coulomb interaction                   ... done (   0.1 sec)
Reading the grid                                   ... done
Mapping shells                                     ... done
Starting the XC term evaluation                    ... done (   0.1 sec)
  promolecular density results
     # of electrons  =    108.991422901
     EX              =    -87.229046117
     EC              =     -3.610181974
     EX+EC           =    -90.839228091
Transforming the Hamiltonian                       ... done (   0.0 sec)
Diagonalizing the Hamiltonian                      ... done (   0.0 sec)
Back transforming the eigenvectors                 ... done (   0.0 sec)
Now organizing SCF variables                       ... done
                      ------------------
                      INITIAL GUESS DONE (   0.4 sec)
                      ------------------
-------------------
DFT GRID GENERATION
-------------------

General Integration Accuracy     IntAcc      ... 4.388
Radial Grid Type                 RadialGrid  ... OptM3 with GC (2021)
Angular Grid (max. ang.)         AngularGrid ... 4 (Lebedev-302)
Angular grid pruning method      GridPruning ... 4 (adaptive)
Weight generation scheme         WeightScheme... Becke
Basis function cutoff            BFCut       ... 1.0000e-11
Integration weight cutoff        WCut        ... 1.0000e-14
Angular grids for H and He will be reduced by one unit
Partially contracted basis set               ... off
Rotationally invariant grid construction     ... off

Total number of grid points                  ...   141720
Total number of batches                      ...     2230
Average number of points per batch           ...       63
Average number of grid points per atom       ...     4429
Time for grid setup =    0.603 sec

--------------------
COSX GRID GENERATION
--------------------

GRIDX 1
-------
General Integration Accuracy     IntAcc      ... 3.816
Radial Grid Type                 RadialGrid  ... OptM3 with GC (2021)
Angular Grid (max. ang.)         AngularGrid ... 1 (Lebedev-50)
Angular grid pruning method      GridPruning ... 4 (adaptive)
Weight generation scheme         WeightScheme... Becke
Basis function cutoff            BFCut       ... 1.0000e-11
Integration weight cutoff        WCut        ... 1.0000e-14
Angular grids for H and He will be reduced by one unit
Partially contracted basis set               ... on
Rotationally invariant grid construction     ... off

Total number of grid points                  ...    18104
Total number of batches                      ...      304
Average number of points per batch           ...       59
Average number of grid points per atom       ...      566
UseSFitting                                  ... on

GRIDX 2
-------
General Integration Accuracy     IntAcc      ... 4.020
Radial Grid Type                 RadialGrid  ... OptM3 with GC (2021)
Angular Grid (max. ang.)         AngularGrid ... 2 (Lebedev-110)
Angular grid pruning method      GridPruning ... 4 (adaptive)
Weight generation scheme         WeightScheme... Becke
Basis function cutoff            BFCut       ... 1.0000e-11
Integration weight cutoff        WCut        ... 1.0000e-14
Angular grids for H and He will be reduced by one unit
Partially contracted basis set               ... on
Rotationally invariant grid construction     ... off

Total number of grid points                  ...    38331
Total number of batches                      ...      615
Average number of points per batch           ...       62
Average number of grid points per atom       ...     1198
UseSFitting                                  ... on

GRIDX 3
-------
General Integration Accuracy     IntAcc      ... 4.338
Radial Grid Type                 RadialGrid  ... OptM3 with GC (2021)
Angular Grid (max. ang.)         AngularGrid ... 3 (Lebedev-194)
Angular grid pruning method      GridPruning ... 4 (adaptive)
Weight generation scheme         WeightScheme... Becke
Basis function cutoff            BFCut       ... 1.0000e-11
Integration weight cutoff        WCut        ... 1.0000e-14
Angular grids for H and He will be reduced by one unit
Partially contracted basis set               ... on
Rotationally invariant grid construction     ... off

Total number of grid points                  ...    83621
Total number of batches                      ...     1322
Average number of points per batch           ...       63
Average number of grid points per atom       ...     2613
UseSFitting                                  ... on

Time for X-Grid setup             =    0.841 sec

--------------
SCF ITERATIONS
--------------
ITER       Energy         Delta-E        Max-DP      RMS-DP      [F,P]     Damp
               ***  Starting incremental Fock matrix formation  ***
  0   -667.9172960986   0.000000000000 0.06895034  0.00047851  0.1501575 0.7000
  1   -668.1473931030  -0.230097004349 0.07232366  0.00041029  0.0710924 0.7000
                               ***Turning on DIIS***
  2   -668.2492330196  -0.101839916664 0.17055624  0.00083301  0.0275171 0.0000
  3   -668.4103991211  -0.161166101447 0.02595461  0.00025376  0.0367717 0.0000
  4   -668.4415008181  -0.031101696990 0.01055455  0.00008502  0.0051281 0.0000
  5   -668.4426772727  -0.001176454635 0.00597884  0.00003898  0.0037882 0.0000
  6   -668.4429529664  -0.000275693680 0.00422611  0.00002109  0.0013474 0.0000
  7   -668.4430195116  -0.000066545264 0.00295761  0.00001834  0.0006711 0.0000
               *** Restarting incremental Fock matrix formation ***
                                   *** Resetting DIIS ***
  8   -668.4430498327  -0.000030321068 0.00061462  0.00000682  0.0002455 0.0000
  9   -668.4430513707  -0.000001537967 0.00015566  0.00000181  0.0002806 0.0000
 10   -668.4430529107  -0.000001539979 0.00011216  0.00000129  0.0000592 0.0000
 11   -668.4430531165  -0.000000205866 0.00013175  0.00000064  0.0000764 0.0000
 12   -668.4430531611  -0.000000044601 0.00003903  0.00000025  0.0000291 0.0000
 13   -668.4430531575   0.000000003665 0.00000937  0.00000007  0.0000079 0.0000
 14   -668.4430531660  -0.000000008586 0.00000576  0.00000004  0.0000025 0.0000
                 **** Energy Check signals convergence ****

               *****************************************************
               *                     SUCCESS                       *
               *           SCF CONVERGED AFTER  15 CYCLES          *
               *****************************************************

Old exchange energy                            =    -48.246917035 Eh
New exchange energy                            =    -48.246870788 Eh
Exchange energy change after final integration =      0.000046247 Eh
Total energy after final integration           =   -668.443006912 Eh
Final COS-X integration done in                =     4.772 sec

----------------
TOTAL SCF ENERGY
----------------

Total Energy       :         -668.44300691 Eh          -18189.25894 eV

Components:
Nuclear Repulsion  :          914.36133414 Eh           24881.03683 eV
Electronic Energy  :        -1582.80434106 Eh          -43070.29577 eV
One Electron Energy:        -2722.37663977 Eh          -74079.63450 eV
Two Electron Energy:         1139.57229871 Eh           31009.33873 eV
Max COSX asymmetry :            0.00000269 Eh               0.00007 eV

Virial components:
Potential Energy   :        -1333.23091408 Eh          -36279.05756 eV
Kinetic Energy     :          664.78790717 Eh           18089.79862 eV
Virial Ratio       :            2.00549814


DFT components:
N(Alpha)           :       55.000058542563 electrons
N(Beta)            :       54.000049145535 electrons
N(Total)           :      109.000107688098 electrons
E(XC)              :      -45.004144985333 Eh       
DFET-embed. en.    :        0.000000000000 Eh       

---------------
SCF CONVERGENCE
---------------

  Last Energy change         ...    7.8229e-09  Tolerance :   1.0000e-08
  Last MAX-Density change    ...    0.0000e+00  Tolerance :   1.0000e-07
  Last RMS-Density change    ...    0.0000e+00  Tolerance :   5.0000e-09
  Last DIIS Error            ...    1.4436e-06  Tolerance :   5.0000e-07

             **** THE GBW FILE WAS UPDATED (freq.gbw) ****
             **** DENSITY freq.scfp WAS UPDATED ****
             **** ENERGY FILE WAS UPDATED (freq.en.tmp) ****
----------------------
UHF SPIN CONTAMINATION
----------------------

Warning: in a DFT calculation there is little theoretical justification to 
         calculate <S**2> as in Hartree-Fock theory. We will do it anyways
         but you should keep in mind that the values have only limited relevance

Expectation value of <S**2>     :     0.755297
Ideal value S*(S+1) for S=0.5   :     0.750000
Deviation                       :     0.005297

             **** THE GBW FILE WAS UPDATED (freq.gbw) ****
             **** DENSITY freq.scfp WAS UPDATED ****
----------------
ORBITAL ENERGIES
----------------
                 SPIN UP ORBITALS
  NO   OCC          E(Eh)            E(eV) 
   0   1.0000     -19.609636      -533.6053 
   1   1.0000     -19.587051      -532.9908 
   2   1.0000     -14.787743      -402.3949 
   3   1.0000     -14.768239      -401.8642 
   4   1.0000     -14.729296      -400.8045 
   5   1.0000     -10.659957      -290.0722 
   6   1.0000     -10.642131      -289.5871 
   7   1.0000     -10.598831      -288.4089 
   8   1.0000     -10.579606      -287.8857 
   9   1.0000     -10.562191      -287.4118 
  10   1.0000     -10.560519      -287.3663 
  11   1.0000     -10.544594      -286.9330 
  12   1.0000     -10.539912      -286.8056 
  13   1.0000     -10.537391      -286.7370 
  14   1.0000      -1.172685       -31.9104 
  15   1.0000      -1.148652       -31.2564 
  16   1.0000      -1.044128       -28.4122 
  17   1.0000      -1.029869       -28.0242 
  18   1.0000      -0.988458       -26.8973 
  19   1.0000      -0.908137       -24.7117 
  20   1.0000      -0.864501       -23.5243 
  21   1.0000      -0.824904       -22.4468 
  22   1.0000      -0.806824       -21.9548 
  23   1.0000      -0.765816       -20.8389 
  24   1.0000      -0.702704       -19.1216 
  25   1.0000      -0.679619       -18.4934 
  26   1.0000      -0.676165       -18.3994 
  27   1.0000      -0.639774       -17.4091 
  28   1.0000      -0.615371       -16.7451 
  29   1.0000      -0.574946       -15.6451 
  30   1.0000      -0.565394       -15.3852 
  31   1.0000      -0.556154       -15.1337 
  32   1.0000      -0.550641       -14.9837 
  33   1.0000      -0.537951       -14.6384 
  34   1.0000      -0.532004       -14.4766 
  35   1.0000      -0.524712       -14.2782 
  36   1.0000      -0.507958       -13.8222 
  37   1.0000      -0.503967       -13.7136 
  38   1.0000      -0.492227       -13.3942 
  39   1.0000      -0.477358       -12.9896 
  40   1.0000      -0.468608       -12.7515 
  41   1.0000      -0.465175       -12.6581 
  42   1.0000      -0.460564       -12.5326 
  43   1.0000      -0.458528       -12.4772 
  44   1.0000      -0.435690       -11.8557 
  45   1.0000      -0.425974       -11.5913 
  46   1.0000      -0.417492       -11.3605 
  47   1.0000      -0.400637       -10.9019 
  48   1.0000      -0.399074       -10.8594 
  49   1.0000      -0.359167        -9.7734 
  50   1.0000      -0.339092        -9.2272 
  51   1.0000      -0.329923        -8.9777 
  52   1.0000      -0.320698        -8.7266 
  53   1.0000      -0.314377        -8.5546 
  54   1.0000      -0.260786        -7.0963 
  55   0.0000       0.041434         1.1275 
  56   0.0000       0.052905         1.4396 
  57   0.0000       0.060488         1.6460 
  58   0.0000       0.065301         1.7769 
  59   0.0000       0.072318         1.9679 
  60   0.0000       0.084827         2.3083 
  61   0.0000       0.091920         2.5013 
  62   0.0000       0.099882         2.7179 
  63   0.0000       0.106329         2.8934 
  64   0.0000       0.117512         3.1977 
  65   0.0000       0.125339         3.4106 
  66   0.0000       0.126127         3.4321 
  67   0.0000       0.136971         3.7272 
  68   0.0000       0.143832         3.9139 
  69   0.0000       0.149291         4.0624 
  70   0.0000       0.158023         4.3000 
  71   0.0000       0.158631         4.3166 
  72   0.0000       0.163256         4.4424 
  73   0.0000       0.166207         4.5227 
  74   0.0000       0.168813         4.5936 
  75   0.0000       0.176133         4.7928 
  76   0.0000       0.189256         5.1499 
  77   0.0000       0.190800         5.1919 
  78   0.0000       0.205863         5.6018 
  79   0.0000       0.213759         5.8167 
  80   0.0000       0.215939         5.8760 
  81   0.0000       0.223834         6.0908 
  82   0.0000       0.229039         6.2325 
  83   0.0000       0.232379         6.3233 
  84   0.0000       0.244745         6.6598 
  85   0.0000       0.252690         6.8761 
  86   0.0000       0.257285         7.0011 
  87   0.0000       0.263580         7.1724 
  88   0.0000       0.267380         7.2758 
  89   0.0000       0.276357         7.5201 
  90   0.0000       0.286844         7.8054 
  91   0.0000       0.296127         8.0580 
  92   0.0000       0.301603         8.2070 
  93   0.0000       0.306727         8.3465 
  94   0.0000       0.317999         8.6532 
  95   0.0000       0.329226         8.9587 
  96   0.0000       0.333685         9.0800 
  97   0.0000       0.342502         9.3199 
  98   0.0000       0.347772         9.4633 
  99   0.0000       0.360068         9.7980 
 100   0.0000       0.366211         9.9651 
 101   0.0000       0.383275        10.4295 
 102   0.0000       0.385562        10.4917 
 103   0.0000       0.390600        10.6288 
 104   0.0000       0.398566        10.8455 
 105   0.0000       0.405128        11.0241 
 106   0.0000       0.415048        11.2940 
 107   0.0000       0.419034        11.4025 
 108   0.0000       0.427368        11.6293 
 109   0.0000       0.432145        11.7593 
 110   0.0000       0.434010        11.8100 
 111   0.0000       0.438969        11.9450 
 112   0.0000       0.442169        12.0320 
 113   0.0000       0.448204        12.1962 
 114   0.0000       0.452306        12.3079 
 115   0.0000       0.455313        12.3897 
 116   0.0000       0.464538        12.6407 
 117   0.0000       0.469276        12.7696 
 118   0.0000       0.476633        12.9698 
 119   0.0000       0.479612        13.0509 
 120   0.0000       0.484402        13.1812 
 121   0.0000       0.487548        13.2669 
 122   0.0000       0.490021        13.3342 
 123   0.0000       0.500997        13.6328 
 124   0.0000       0.504335        13.7237 
 125   0.0000       0.508993        13.8504 
 126   0.0000       0.518575        14.1112 
 127   0.0000       0.525728        14.3058 
 128   0.0000       0.527945        14.3661 
 129   0.0000       0.535088        14.5605 
 130   0.0000       0.540415        14.7054 
 131   0.0000       0.542531        14.7630 
 132   0.0000       0.551790        15.0150 
 133   0.0000       0.556472        15.1424 
 134   0.0000       0.559020        15.2117 
 135   0.0000       0.566237        15.4081 
 136   0.0000       0.570629        15.5276 
 137   0.0000       0.574589        15.6354 
 138   0.0000       0.578963        15.7544 
 139   0.0000       0.593601        16.1527 
 140   0.0000       0.595463        16.2034 
 141   0.0000       0.607278        16.5249 
 142   0.0000       0.611960        16.6523 
 143   0.0000       0.619729        16.8637 
 144   0.0000       0.625492        17.0205 
 145   0.0000       0.632778        17.2188 
 146   0.0000       0.637593        17.3498 
 147   0.0000       0.653473        17.7819 
 148   0.0000       0.678027        18.4500 
 149   0.0000       0.681792        18.5525 
 150   0.0000       0.693322        18.8663 
 151   0.0000       0.696308        18.9475 
 152   0.0000       0.707316        19.2471 
 153   0.0000       0.711380        19.3576 
 154   0.0000       0.733873        19.9697 
 155   0.0000       0.756041        20.5729 
 156   0.0000       0.772456        21.0196 
 157   0.0000       0.787440        21.4273 
 158   0.0000       0.792322        21.5602 
 159   0.0000       0.800694        21.7880 
 160   0.0000       0.818654        22.2767 
 161   0.0000       0.833651        22.6848 
 162   0.0000       0.837577        22.7916 
 163   0.0000       0.857060        23.3218 
 164   0.0000       0.867876        23.6161 
 165   0.0000       0.880804        23.9679 
 166   0.0000       0.883667        24.0458 
 167   0.0000       0.886429        24.1209 
 168   0.0000       0.901207        24.5231 
 169   0.0000       0.905194        24.6316 
 170   0.0000       0.914841        24.8941 
 171   0.0000       0.920335        25.0436 
 172   0.0000       0.938567        25.5397 
 173   0.0000       0.957129        26.0448 
 174   0.0000       0.971150        26.4263 
 175   0.0000       0.973709        26.4960 
 176   0.0000       0.986046        26.8317 
 177   0.0000       1.000494        27.2248 
 178   0.0000       1.004077        27.3223 
 179   0.0000       1.018721        27.7208 
 180   0.0000       1.036377        28.2013 
 181   0.0000       1.047867        28.5139 
 182   0.0000       1.058019        28.7902 
 183   0.0000       1.068729        29.0816 
 184   0.0000       1.081631        29.4327 
 185   0.0000       1.097229        29.8571 
 186   0.0000       1.100317        29.9411 
 187   0.0000       1.120212        30.4825 
 188   0.0000       1.130745        30.7691 
 189   0.0000       1.132216        30.8092 
 190   0.0000       1.150008        31.2933 
 191   0.0000       1.165550        31.7162 
 192   0.0000       1.180372        32.1195 
 193   0.0000       1.187274        32.3074 
 194   0.0000       1.199829        32.6490 
 195   0.0000       1.209989        32.9255 
 196   0.0000       1.228478        33.4286 
 197   0.0000       1.247287        33.9404 
 198   0.0000       1.278574        34.7918 
 199   0.0000       1.293327        35.1932 
 200   0.0000       1.294816        35.2337 
 201   0.0000       1.305023        35.5115 
 202   0.0000       1.322894        35.9978 
 203   0.0000       1.334744        36.3202 
 204   0.0000       1.344182        36.5770 
 205   0.0000       1.357324        36.9347 
 206   0.0000       1.375534        37.4302 
 207   0.0000       1.389302        37.8048 
 208   0.0000       1.394334        37.9417 
 209   0.0000       1.400824        38.1184 
 210   0.0000       1.414617        38.4937 
 211   0.0000       1.427261        38.8377 
 212   0.0000       1.439612        39.1738 
 213   0.0000       1.450422        39.4680 
 214   0.0000       1.470707        40.0200 
 215   0.0000       1.479907        40.2703 
 216   0.0000       1.485895        40.4333 
 217   0.0000       1.504365        40.9359 
 218   0.0000       1.524675        41.4885 
 219   0.0000       1.531381        41.6710 
 220   0.0000       1.537535        41.8385 
 221   0.0000       1.549017        42.1509 
 222   0.0000       1.554749        42.3069 
 223   0.0000       1.563306        42.5397 
 224   0.0000       1.573648        42.8211 
 225   0.0000       1.577095        42.9149 
 226   0.0000       1.583317        43.0842 
 227   0.0000       1.589225        43.2450 
 228   0.0000       1.601410        43.5766 
 229   0.0000       1.606533        43.7160 
 230   0.0000       1.614240        43.9257 
 231   0.0000       1.619576        44.0709 
 232   0.0000       1.624296        44.1993 
 233   0.0000       1.628331        44.3091 
 234   0.0000       1.636781        44.5391 
 235   0.0000       1.647774        44.8382 
 236   0.0000       1.666911        45.3590 
 237   0.0000       1.685539        45.8658 
 238   0.0000       1.694487        46.1093 
 239   0.0000       1.703966        46.3673 
 240   0.0000       1.719254        46.7833 
 241   0.0000       1.727037        46.9951 
 242   0.0000       1.746116        47.5142 
 243   0.0000       1.759119        47.8681 
 244   0.0000       1.762843        47.9694 
 245   0.0000       1.770242        48.1707 
 246   0.0000       1.778815        48.4040 
 247   0.0000       1.801868        49.0313 
 248   0.0000       1.818148        49.4743 
 249   0.0000       1.824088        49.6360 
 250   0.0000       1.827996        49.7423 
 251   0.0000       1.846018        50.2327 
 252   0.0000       1.858706        50.5780 
 253   0.0000       1.876170        51.0532 
 254   0.0000       1.882005        51.2120 
 255   0.0000       1.900622        51.7186 
 256   0.0000       1.905070        51.8396 
 257   0.0000       1.908574        51.9349 
 258   0.0000       1.910193        51.9790 
 259   0.0000       1.931428        52.5568 
 260   0.0000       1.939440        52.7748 
 261   0.0000       1.952837        53.1394 
 262   0.0000       1.963450        53.4282 
 263   0.0000       1.970134        53.6101 
 264   0.0000       1.976563        53.7850 
 265   0.0000       1.989126        54.1269 
 266   0.0000       1.998693        54.3872 
 267   0.0000       1.999928        54.4208 
 268   0.0000       2.013367        54.7865 
 269   0.0000       2.019791        54.9613 
 270   0.0000       2.030711        55.2585 
 271   0.0000       2.037428        55.4412 
 272   0.0000       2.059717        56.0477 
 273   0.0000       2.061904        56.1073 
 274   0.0000       2.071970        56.3812 
 275   0.0000       2.102261        57.2054 
 276   0.0000       2.112599        57.4868 
 277   0.0000       2.120559        57.7033 
 278   0.0000       2.150698        58.5235 
 279   0.0000       2.157512        58.7089 
 280   0.0000       2.161103        58.8066 
 281   0.0000       2.190713        59.6123 
 282   0.0000       2.195147        59.7330 
 283   0.0000       2.213605        60.2353 
 284   0.0000       2.216312        60.3089 
 285   0.0000       2.243848        61.0582 
 286   0.0000       2.246745        61.1370 
 287   0.0000       2.256555        61.4040 
 288   0.0000       2.271398        61.8079 
 289   0.0000       2.283359        62.1334 
 290   0.0000       2.284772        62.1718 
 291   0.0000       2.319511        63.1171 
 292   0.0000       2.325758        63.2871 
 293   0.0000       2.326873        63.3174 
 294   0.0000       2.334921        63.5364 
 295   0.0000       2.348202        63.8978 
 296   0.0000       2.351643        63.9915 
 297   0.0000       2.367271        64.4167 
 298   0.0000       2.377774        64.7025 
 299   0.0000       2.380259        64.7701 
 300   0.0000       2.398700        65.2720 
 301   0.0000       2.412754        65.6544 
 302   0.0000       2.417916        65.7948 
 303   0.0000       2.427752        66.0625 
 304   0.0000       2.449782        66.6620 
 305   0.0000       2.461528        66.9816 
 306   0.0000       2.466398        67.1141 
 307   0.0000       2.478953        67.4557 
 308   0.0000       2.490779        67.7775 
 309   0.0000       2.505326        68.1734 
 310   0.0000       2.508140        68.2500 
 311   0.0000       2.520280        68.5803 
 312   0.0000       2.524458        68.6940 
 313   0.0000       2.544444        69.2379 
 314   0.0000       2.552314        69.4520 
 315   0.0000       2.563345        69.7522 
 316   0.0000       2.569187        69.9111 
 317   0.0000       2.575775        70.0904 
 318   0.0000       2.586713        70.3881 
 319   0.0000       2.594074        70.5883 
 320   0.0000       2.603874        70.8550 
 321   0.0000       2.614220        71.1365 
 322   0.0000       2.625965        71.4561 
 323   0.0000       2.641880        71.8892 
 324   0.0000       2.646373        72.0115 
 325   0.0000       2.659059        72.3567 
 326   0.0000       2.666646        72.5631 
 327   0.0000       2.671226        72.6877 
 328   0.0000       2.682932        73.0063 
 329   0.0000       2.700091        73.4732 
 330   0.0000       2.715995        73.9060 
 331   0.0000       2.729011        74.2602 
 332   0.0000       2.736124        74.4537 
 333   0.0000       2.740636        74.5765 
 334   0.0000       2.755717        74.9869 
 335   0.0000       2.766793        75.2883 
 336   0.0000       2.776849        75.5619 
 337   0.0000       2.779714        75.6399 
 338   0.0000       2.787532        75.8526 
 339   0.0000       2.801483        76.2322 
 340   0.0000       2.835686        77.1629 
 341   0.0000       2.846823        77.4660 
 342   0.0000       2.860455        77.8369 
 343   0.0000       2.863505        77.9199 
 344   0.0000       2.877269        78.2945 
 345   0.0000       2.888507        78.6003 
 346   0.0000       2.907553        79.1185 
 347   0.0000       2.939665        79.9924 
 348   0.0000       2.955670        80.4279 
 349   0.0000       2.964163        80.6590 
 350   0.0000       2.972645        80.8898 
 351   0.0000       2.976007        80.9813 
 352   0.0000       2.982064        81.1461 
 353   0.0000       2.999104        81.6098 
 354   0.0000       3.004864        81.7665 
 355   0.0000       3.026259        82.3487 
 356   0.0000       3.044043        82.8326 
 357   0.0000       3.057798        83.2069 
 358   0.0000       3.065241        83.4094 
 359   0.0000       3.078076        83.7587 
 360   0.0000       3.088243        84.0354 
 361   0.0000       3.099599        84.3444 
 362   0.0000       3.108465        84.5856 
 363   0.0000       3.110223        84.6335 
 364   0.0000       3.129245        85.1511 
 365   0.0000       3.129963        85.1706 
 366   0.0000       3.144556        85.5677 
 367   0.0000       3.150729        85.7357 
 368   0.0000       3.156612        85.8958 
 369   0.0000       3.176162        86.4278 
 370   0.0000       3.184576        86.6567 
 371   0.0000       3.190852        86.8275 
 372   0.0000       3.195603        86.9568 
 373   0.0000       3.210653        87.3663 
 374   0.0000       3.214525        87.4717 
 375   0.0000       3.219747        87.6138 
 376   0.0000       3.237604        88.0997 
 377   0.0000       3.248942        88.4082 
 378   0.0000       3.260130        88.7127 
 379   0.0000       3.262207        88.7692 
 380   0.0000       3.275096        89.1199 
 381   0.0000       3.288370        89.4811 
 382   0.0000       3.290059        89.5270 
 383   0.0000       3.300496        89.8111 
 384   0.0000       3.308257        90.0222 
 385   0.0000       3.316955        90.2589 
 386   0.0000       3.319468        90.3273 
 387   0.0000       3.333225        90.7017 
 388   0.0000       3.335406        90.7610 
 389   0.0000       3.344169        90.9995 
 390   0.0000       3.350544        91.1729 
 391   0.0000       3.361399        91.4683 
 392   0.0000       3.367843        91.6437 
 393   0.0000       3.385656        92.1284 
 394   0.0000       3.396362        92.4197 
 395   0.0000       3.407479        92.7222 
 396   0.0000       3.411185        92.8231 
 397   0.0000       3.424455        93.1842 
 398   0.0000       3.432510        93.4033 
 399   0.0000       3.448609        93.8414 
 400   0.0000       3.467966        94.3682 
 401   0.0000       3.479760        94.6891 
 402   0.0000       3.483617        94.7940 
 403   0.0000       3.496711        95.1503 
 404   0.0000       3.513043        95.5948 
 405   0.0000       3.526451        95.9596 
 406   0.0000       3.538372        96.2840 
 407   0.0000       3.544219        96.4431 
 408   0.0000       3.560925        96.8977 
 409   0.0000       3.565221        97.0146 
 410   0.0000       3.594321        97.8064 
 411   0.0000       3.594754        97.8182 
 412   0.0000       3.611842        98.2832 
 413   0.0000       3.632845        98.8547 
 414   0.0000       3.657110        99.5150 
 415   0.0000       3.668234        99.8177 
 416   0.0000       3.714762       101.0838 
 417   0.0000       3.715362       101.1001 
 418   0.0000       3.748425       101.9998 
 419   0.0000       3.755679       102.1972 
 420   0.0000       3.763486       102.4096 
 421   0.0000       3.787416       103.0608 
 422   0.0000       3.801749       103.4508 
 423   0.0000       3.813659       103.7749 
 424   0.0000       3.842584       104.5620 
 425   0.0000       3.851986       104.8179 
 426   0.0000       3.870969       105.3344 
 427   0.0000       3.873245       105.3964 
 428   0.0000       3.886628       105.7605 
 429   0.0000       3.894751       105.9816 
 430   0.0000       3.901165       106.1561 
 431   0.0000       3.923884       106.7743 
 432   0.0000       3.947158       107.4076 
 433   0.0000       3.973613       108.1275 
 434   0.0000       3.993622       108.6720 
 435   0.0000       4.015726       109.2735 
 436   0.0000       4.029732       109.6546 
 437   0.0000       4.060473       110.4911 
 438   0.0000       4.091780       111.3430 
 439   0.0000       4.094811       111.4255 
 440   0.0000       4.115516       111.9889 
 441   0.0000       4.128463       112.3412 
 442   0.0000       4.142840       112.7324 
 443   0.0000       4.159004       113.1723 
 444   0.0000       4.174471       113.5931 
 445   0.0000       4.197823       114.2286 
 446   0.0000       4.210656       114.5778 
 447   0.0000       4.240976       115.4028 
 448   0.0000       4.284352       116.5831 
 449   0.0000       4.314228       117.3961 
 450   0.0000       4.324399       117.6729 
 451   0.0000       4.343972       118.2055 
 452   0.0000       4.363795       118.7449 
 453   0.0000       4.370387       118.9243 
 454   0.0000       4.393617       119.5564 
 455   0.0000       4.416841       120.1884 
 456   0.0000       4.422869       120.3524 
 457   0.0000       4.464820       121.4939 
 458   0.0000       4.485416       122.0544 
 459   0.0000       4.493191       122.2660 
 460   0.0000       4.521697       123.0416 
 461   0.0000       4.545847       123.6988 
 462   0.0000       4.554192       123.9259 
 463   0.0000       4.584922       124.7621 
 464   0.0000       4.615671       125.5988 
 465   0.0000       4.644305       126.3780 
 466   0.0000       4.682683       127.4223 
 467   0.0000       4.708514       128.1252 
 468   0.0000       4.711812       128.2149 
 469   0.0000       4.721419       128.4763 
 470   0.0000       4.758667       129.4899 
 471   0.0000       4.779989       130.0701 
 472   0.0000       4.792521       130.4111 
 473   0.0000       4.809858       130.8829 
 474   0.0000       4.835707       131.5863 
 475   0.0000       4.847878       131.9175 
 476   0.0000       4.870078       132.5215 
 477   0.0000       4.888740       133.0294 
 478   0.0000       4.930729       134.1719 
 479   0.0000       4.969943       135.2390 
 480   0.0000       4.983349       135.6038 
 481   0.0000       5.018094       136.5493 
 482   0.0000       5.026317       136.7730 
 483   0.0000       5.057307       137.6163 
 484   0.0000       5.059466       137.6751 
 485   0.0000       5.083189       138.3206 
 486   0.0000       5.105946       138.9399 
 487   0.0000       5.110971       139.0766 
 488   0.0000       5.178229       140.9068 
 489   0.0000       5.186039       141.1193 
 490   0.0000       5.202716       141.5731 
 491   0.0000       5.224396       142.1630 
 492   0.0000       5.240870       142.6113 
 493   0.0000       5.260425       143.1435 
 494   0.0000       5.266474       143.3080 
 495   0.0000       5.274431       143.5246 
 496   0.0000       5.278027       143.6224 
 497   0.0000       5.306253       144.3905 
 498   0.0000       5.355109       145.7199 
 499   0.0000       5.438911       148.0003 
 500   0.0000       5.449702       148.2939 
 501   0.0000       5.465660       148.7282 
 502   0.0000       5.519557       150.1948 
 503   0.0000       5.527580       150.4131 
 504   0.0000       5.594006       152.2206 
 505   0.0000       5.646976       153.6620 
 506   0.0000       5.682454       154.6274 
 507   0.0000       5.730286       155.9290 
 508   0.0000       5.737370       156.1218 
 509   0.0000       5.776557       157.1881 
 510   0.0000       5.866870       159.6456 
 511   0.0000       5.900761       160.5679 
 512   0.0000       6.087075       165.6377 
 513   0.0000       6.101385       166.0271 
 514   0.0000       6.301264       171.4661 
 515   0.0000       6.304883       171.5646 
 516   0.0000       6.399669       174.1439 
 517   0.0000       6.439041       175.2152 
 518   0.0000       6.540881       177.9864 
 519   0.0000       6.562960       178.5872 
 520   0.0000       6.656421       181.1304 
 521   0.0000       6.661992       181.2820 
 522   0.0000       6.819427       185.5660 
 523   0.0000       6.834368       185.9726 
 524   0.0000       7.042907       191.6472 
 525   0.0000       7.066724       192.2953 
 526   0.0000       7.078513       192.6161 
 527   0.0000       7.106770       193.3851 
 528   0.0000      22.404018       609.6443 
 529   0.0000      22.443020       610.7056 
 530   0.0000      22.475613       611.5925 
 531   0.0000      22.519411       612.7843 
 532   0.0000      22.570998       614.1881 
 533   0.0000      22.577517       614.3655 
 534   0.0000      22.769215       619.5818 
 535   0.0000      23.361851       635.7083 
 536   0.0000      23.380897       636.2266 
 537   0.0000      32.045041       871.9899 
 538   0.0000      32.518420       884.8712 
 539   0.0000      32.663195       888.8107 
 540   0.0000      44.068768      1199.1721 
 541   0.0000      44.085514      1199.6278 

                 SPIN DOWN ORBITALS
  NO   OCC          E(Eh)            E(eV) 
   0   1.0000     -19.609451      -533.6003 
   1   1.0000     -19.586852      -532.9853 
   2   1.0000     -14.787471      -402.3875 
   3   1.0000     -14.767566      -401.8459 
   4   1.0000     -14.729284      -400.8042 
   5   1.0000     -10.659373      -290.0563 
   6   1.0000     -10.642144      -289.5875 
   7   1.0000     -10.599528      -288.4278 
   8   1.0000     -10.579614      -287.8859 
   9   1.0000     -10.562181      -287.4116 
  10   1.0000     -10.553790      -287.1832 
  11   1.0000     -10.545216      -286.9499 
  12   1.0000     -10.539864      -286.8043 
  13   1.0000     -10.537184      -286.7313 
  14   1.0000      -1.171849       -31.8876 
  15   1.0000      -1.148113       -31.2417 
  16   1.0000      -1.043156       -28.3857 
  17   1.0000      -1.027506       -27.9599 
  18   1.0000      -0.988355       -26.8945 
  19   1.0000      -0.895788       -24.3756 
  20   1.0000      -0.862734       -23.4762 
  21   1.0000      -0.823713       -22.4144 
  22   1.0000      -0.798739       -21.7348 
  23   1.0000      -0.763845       -20.7853 
  24   1.0000      -0.692283       -18.8380 
  25   1.0000      -0.678263       -18.4565 
  26   1.0000      -0.673664       -18.3313 
  27   1.0000      -0.629819       -17.1382 
  28   1.0000      -0.609910       -16.5965 
  29   1.0000      -0.571572       -15.5533 
  30   1.0000      -0.563991       -15.3470 
  31   1.0000      -0.555058       -15.1039 
  32   1.0000      -0.547906       -14.9093 
  33   1.0000      -0.537034       -14.6134 
  34   1.0000      -0.530619       -14.4389 
  35   1.0000      -0.522985       -14.2312 
  36   1.0000      -0.504660       -13.7325 
  37   1.0000      -0.501151       -13.6370 
  38   1.0000      -0.486216       -13.2306 
  39   1.0000      -0.474433       -12.9100 
  40   1.0000      -0.468195       -12.7402 
  41   1.0000      -0.462302       -12.5799 
  42   1.0000      -0.458769       -12.4837 
  43   1.0000      -0.457098       -12.4383 
  44   1.0000      -0.431828       -11.7506 
[...]
     60       0.000632  -0.000095  -0.000006  -0.001032   0.000024   0.035830
     61      -0.000018  -0.000146   0.000000  -0.001106   0.000015   0.027082
     62      -0.000915   0.000099  -0.000001   0.001596  -0.000038  -0.058023
     63      -0.010581   0.001248   0.000001   0.017361  -0.000327  -0.490241
     64       0.000284   0.000268  -0.000027   0.011743  -0.000241  -0.369365
     65       0.010336  -0.001511   0.000030  -0.027749   0.000562   0.785121
     66       0.000002   0.000208   0.000005  -0.000136   0.000006   0.000014
     67       0.000010   0.000099  -0.000000  -0.001247   0.000008  -0.000004
     68      -0.000020  -0.000310  -0.000002   0.001146  -0.000010  -0.000008
     69      -0.000009   0.000009   0.000010  -0.000066   0.000001  -0.000010
     70      -0.000051  -0.000206   0.000002   0.000267   0.000000   0.000010
     71       0.000031   0.000090   0.000001  -0.000305  -0.000003  -0.000012
     72      -0.000177  -0.001221   0.000005   0.000687  -0.000006   0.000011
     73       0.000079   0.000504   0.000004  -0.000215   0.000006   0.000009
     74      -0.000062  -0.000310   0.000001   0.000192  -0.000007   0.000032
     75       0.000088   0.000368   0.000014  -0.000276   0.000001   0.000004
     76       0.000483   0.001392   0.000005  -0.004730   0.000026  -0.000137
     77      -0.000574  -0.002108  -0.000001   0.003099  -0.000023   0.000010
     78       0.000317   0.000792   0.000014  -0.000008   0.000002   0.000022
     79       0.000442   0.001217  -0.000005  -0.000527   0.000007   0.000032
     80       0.000133   0.000481  -0.000001  -0.000210   0.000001   0.000005
     81      -0.055325   0.000087  -0.000005  -0.000008  -0.000004   0.000394
     82       0.005498   0.000062  -0.000003   0.000125   0.000001  -0.001324
     83       0.074852   0.000022   0.000002  -0.000001   0.000001  -0.000295
     84       0.657043  -0.000067  -0.000015   0.000204  -0.000012  -0.009262
     85       0.186096   0.000194   0.000001   0.000441  -0.000011  -0.006983
     86      -0.509224   0.000036   0.000006  -0.000008   0.000011   0.007923
     87      -0.073480  -0.000183  -0.000005   0.000013   0.000002  -0.000231
     88      -0.223112  -0.000671  -0.000000  -0.000268  -0.000005   0.003517
     89      -0.446599  -0.001026   0.000004  -0.000430   0.000003   0.003767
     90       0.078942  -0.000328  -0.000014   0.000067   0.000010   0.002152
     91      -0.030538   0.000088   0.000006  -0.000150  -0.000017  -0.001427
     92       0.060363  -0.000112  -0.000017   0.000192   0.000011   0.000580
     93       0.000538  -0.024950   0.000002   0.002877  -0.000048   0.000417
     94       0.000043   0.004601   0.000011   0.002330  -0.000020  -0.000112
     95       0.000615  -0.024839  -0.000016   0.006047  -0.000022   0.000797


-----------
IR SPECTRUM
-----------

 Mode   freq       eps      Int      T**2         TX        TY        TZ
       cm**-1   L/(mol*cm) km/mol    a.u.
----------------------------------------------------------------------------
  7:     15.37   0.000200    1.01  0.004070  ( 0.058771 -0.000450  0.024810)
  8:     45.78   0.000132    0.67  0.000902  (-0.015105  0.008987 -0.024357)
  9:     53.97   0.000136    0.69  0.000786  (-0.025618 -0.010726 -0.003797)
 10:     71.83   0.000107    0.54  0.000467  (-0.017213  0.009596 -0.008853)
 11:     79.98   0.002657   13.43  0.010366  (-0.092327 -0.012802 -0.040967)
 12:     82.34   0.000087    0.44  0.000329  ( 0.014578 -0.010473 -0.002699)
 13:     99.86   0.000281    1.42  0.000878  ( 0.022442  0.015711  0.011293)
 14:    113.25   0.000780    3.94  0.002148  (-0.019649 -0.041953 -0.001376)
 15:    119.47   0.000557    2.82  0.001455  (-0.015447  0.028839  0.019617)
 16:    144.05   0.002203   11.13  0.004773  (-0.030976  0.061667 -0.003222)
 17:    165.60   0.000770    3.89  0.001451  (-0.023054 -0.020041 -0.022752)
 18:    210.59   0.001253    6.33  0.001857  ( 0.029910 -0.007805  0.030017)
 19:    234.66   0.001192    6.03  0.001586  ( 0.017485 -0.025688 -0.024901)
 20:    265.11   0.007298   36.88  0.008590  (-0.043901  0.055178 -0.060152)
 21:    298.43   0.000307    1.55  0.000321  ( 0.000058  0.016592  0.006735)
 22:    310.02   0.000292    1.48  0.000294  ( 0.012265 -0.006250  0.010213)
 23:    354.59   0.000084    0.42  0.000074  (-0.000659  0.000193  0.008564)
 24:    384.90   0.004875   24.63  0.003952  ( 0.004631 -0.057917 -0.024007)
 25:    436.89   0.005531   27.95  0.003950  (-0.060241  0.011091 -0.014088)
 26:    489.02   0.000305    1.54  0.000195  (-0.007001 -0.012063  0.000053)
 27:    510.17   0.009547   48.25  0.005840  ( 0.063571  0.009792  0.041263)
 28:    529.17   0.007668   38.75  0.004522  (-0.014196 -0.031168 -0.057869)
 29:    557.35   0.017423   88.05  0.009755  ( 0.087670 -0.011059  0.044121)
 30:    587.07   0.004319   21.83  0.002296  (-0.007673 -0.040191 -0.024933)
 31:    627.13   0.001856    9.38  0.000924  (-0.010078  0.028273  0.004764)
 32:    667.56   0.001611    8.14  0.000753  ( 0.022502 -0.008763  0.013038)
 33:    725.55   0.001554    7.85  0.000668  (-0.013348 -0.018185 -0.012633)
 34:    737.12   0.000496    2.51  0.000210  ( 0.011094  0.008658  0.003456)
 35:    806.96   0.004385   22.16  0.001696  (-0.024665  0.024905  0.021614)
 36:    835.67   0.015483   78.24  0.005782  ( 0.026011 -0.053028 -0.047887)
 37:    876.54   0.007685   38.84  0.002736  (-0.017970  0.038895  0.030005)
 38:    897.66   0.000611    3.09  0.000213  (-0.008921 -0.002998  0.011136)
 39:    945.77   0.000707    3.57  0.000233  (-0.005223 -0.005564  0.013233)
 40:    992.24   0.000516    2.61  0.000162  (-0.007000  0.004276  0.009745)
 41:   1018.93   0.000497    2.51  0.000152  ( 0.000040 -0.009550  0.007818)
 42:   1026.88   0.003395   17.16  0.001032  ( 0.018953 -0.025176 -0.006219)
 43:   1061.94   0.001210    6.12  0.000356  (-0.015770 -0.004179 -0.009462)
 44:   1063.75   0.000768    3.88  0.000225  (-0.014415  0.001764  0.003794)
 45:   1066.79   0.001967    9.94  0.000575  ( 0.016382 -0.012490 -0.012286)
 46:   1091.20   0.000175    0.88  0.000050  (-0.004136  0.005308  0.002153)
 47:   1112.79   0.002283   11.54  0.000640  (-0.023830  0.005240  0.006695)
 48:   1137.49   0.001243    6.28  0.000341  (-0.015216 -0.005995 -0.008579)
 49:   1158.92   0.002077   10.50  0.000559  (-0.003511  0.019209  0.013343)
 50:   1167.66   0.000271    1.37  0.000072  ( 0.001578 -0.004727 -0.006902)
 51:   1187.00   0.001735    8.77  0.000456  ( 0.000444  0.019224  0.009294)
 52:   1202.68   0.002794   14.12  0.000725  ( 0.018409 -0.015949 -0.011478)
 53:   1230.48   0.000419    2.12  0.000106  ( 0.002420  0.009183  0.004001)
 54:   1248.34   0.002843   14.36  0.000711  ( 0.012327 -0.023382 -0.003452)
 55:   1271.52   0.007303   36.91  0.001792  ( 0.001588  0.042214  0.002804)
 56:   1283.73   0.000563    2.84  0.000137  (-0.009530  0.003560  0.005769)
 57:   1309.51   0.000139    0.70  0.000033  ( 0.004210  0.003739 -0.001230)
 58:   1331.55   0.006905   34.89  0.001618  (-0.020416  0.034128  0.006052)
 59:   1334.13   0.007676   38.79  0.001795  (-0.011166  0.040714  0.003629)
 60:   1360.62   0.000214    1.08  0.000049  ( 0.005885 -0.003687 -0.000975)
 61:   1366.88   0.001693    8.55  0.000386  (-0.012128  0.015082  0.003450)
 62:   1401.36   0.003769   19.05  0.000839  ( 0.014199 -0.020729 -0.014421)
 63:   1423.56   0.001068    5.40  0.000234  ( 0.015114 -0.002362 -0.000320)
 64:   1435.33   0.002444   12.35  0.000531  (-0.021410  0.000764  0.008504)
 65:   1456.18   0.003579   18.09  0.000767  ( 0.018598 -0.008526 -0.018666)
 66:   1473.86   0.000886    4.48  0.000187  ( 0.005643  0.011926 -0.003663)
 67:   1474.72   0.002245   11.35  0.000475  ( 0.011290  0.016290  0.009069)
 68:   1484.27   0.014526   73.41  0.003054  (-0.012151  0.053857 -0.002421)
 69:   1492.33   0.001200    6.07  0.000251  ( 0.001980  0.006483  0.014321)
 70:   1498.46   0.007020   35.48  0.001462  (-0.008879 -0.033072 -0.017010)
 71:   1513.65   0.004971   25.12  0.001025  (-0.007154  0.031190 -0.000872)
 72:   1519.95   0.000616    3.11  0.000126  ( 0.006170 -0.000407  0.009392)
 73:   1535.19   0.083185  420.38  0.016909  ( 0.046820 -0.113122 -0.043824)
 74:   1586.99   0.037212  188.06  0.007317  (-0.015222  0.074566  0.039058)
 75:   1657.09   0.007394   37.37  0.001393  (-0.032256 -0.018256  0.004329)
 76:   1776.16   0.082329  416.06  0.014465  ( 0.029490  0.062796 -0.098244)
 77:   1788.09   0.024427  123.44  0.004263  ( 0.040503 -0.030397 -0.041214)
 78:   3002.02   0.001472    7.44  0.000153  ( 0.005658 -0.008068 -0.007478)
 79:   3005.66   0.010957   55.37  0.001138  ( 0.005062 -0.020572 -0.026244)
 80:   3052.06   0.002346   11.85  0.000240  (-0.003095  0.002484  0.014970)
 81:   3064.98   0.002725   13.77  0.000277  ( 0.001241  0.006293  0.015373)
 82:   3065.40   0.002997   15.14  0.000305  (-0.007704 -0.014866  0.004973)
 83:   3074.56   0.007249   36.64  0.000736  ( 0.009063 -0.025483 -0.002070)
 84:   3088.61   0.000626    3.16  0.000063  ( 0.003833 -0.000854 -0.006917)
 85:   3089.69   0.002164   10.94  0.000219  (-0.002066 -0.004060  0.014065)
 86:   3112.36   0.007595   38.38  0.000762  (-0.007768 -0.026182  0.003965)
 87:   3149.22   0.002739   13.84  0.000271  ( 0.009922  0.005074  0.012134)
 88:   3171.23   0.000497    2.51  0.000049  ( 0.003724 -0.001297  0.005773)
 89:   3182.98   0.001259    6.36  0.000123  (-0.002543 -0.007817  0.007471)
 90:   3189.60   0.000183    0.92  0.000018  (-0.002568  0.000076  0.003359)
 91:   3216.05   0.000637    3.22  0.000062  (-0.002549 -0.003322  0.006651)
 92:   3524.65   0.000092    0.46  0.000008  (-0.002658 -0.000985 -0.000270)
 93:   3607.79   0.021056  106.41  0.001821  (-0.006601 -0.037509  0.019257)
 94:   3609.39   0.000760    3.84  0.000066  ( 0.002583 -0.003638  0.006769)
 95:   3637.75   0.009320   47.10  0.000800  (-0.015910 -0.006958  0.022315)

* The epsilon (eps) is given for a Dirac delta lineshape.
** The dipole moment derivative (T) already includes vibrational overlap.

The first frequency considered to be a vibration is 7
The total number of vibrations considered is 89


--------------------------
THERMOCHEMISTRY AT 298.15K
--------------------------

Temperature         ... 298.15 K
Pressure            ... 1.00 atm
Total Mass          ... 200.26 AMU

Throughout the following assumptions are being made:
  (1) The electronic state is orbitally nondegenerate
      but the spin degeneracy is treated
  (2) There are no thermally accessible electronically excited states
  (3) Hindered rotations indicated by low frequency modes are not
      treated as such but are treated as vibrations and this may
      cause some error
  (4) All equations used are the standard statistical mechanics
      equations for an ideal gas
  (5) All vibrations are strictly harmonic

freq.      15.37  E(vib)   ...       0.57 
freq.      45.78  E(vib)   ...       0.53 
freq.      53.97  E(vib)   ...       0.52 
freq.      71.83  E(vib)   ...       0.50 
freq.      79.98  E(vib)   ...       0.49 
freq.      82.34  E(vib)   ...       0.48 
freq.      99.86  E(vib)   ...       0.46 
freq.     113.25  E(vib)   ...       0.45 
freq.     119.47  E(vib)   ...       0.44 
freq.     144.05  E(vib)   ...       0.41 
freq.     165.60  E(vib)   ...       0.39 
freq.     210.59  E(vib)   ...       0.34 
freq.     234.66  E(vib)   ...       0.32 
freq.     265.11  E(vib)   ...       0.29 
freq.     298.43  E(vib)   ...       0.26 
freq.     310.02  E(vib)   ...       0.26 
freq.     354.59  E(vib)   ...       0.22 
freq.     384.90  E(vib)   ...       0.20 
freq.     436.89  E(vib)   ...       0.17 
freq.     489.02  E(vib)   ...       0.15 
freq.     510.17  E(vib)   ...       0.14 
freq.     529.17  E(vib)   ...       0.13 
freq.     557.35  E(vib)   ...       0.12 
freq.     587.07  E(vib)   ...       0.10 
freq.     627.13  E(vib)   ...       0.09 
freq.     667.56  E(vib)   ...       0.08 
freq.     725.55  E(vib)   ...       0.06 
freq.     737.12  E(vib)   ...       0.06 
freq.     806.96  E(vib)   ...       0.05 
freq.     835.67  E(vib)   ...       0.04 
freq.     876.54  E(vib)   ...       0.04 
freq.     897.66  E(vib)   ...       0.03 
freq.     945.77  E(vib)   ...       0.03 
freq.     992.24  E(vib)   ...       0.02 
freq.    1018.93  E(vib)   ...       0.02 
freq.    1026.88  E(vib)   ...       0.02 
freq.    1061.94  E(vib)   ...       0.02 
freq.    1063.75  E(vib)   ...       0.02 
freq.    1066.79  E(vib)   ...       0.02 
freq.    1091.20  E(vib)   ...       0.02 
freq.    1112.79  E(vib)   ...       0.01 
freq.    1137.49  E(vib)   ...       0.01 
freq.    1158.92  E(vib)   ...       0.01 
freq.    1167.66  E(vib)   ...       0.01 
freq.    1187.00  E(vib)   ...       0.01 
freq.    1202.68  E(vib)   ...       0.01 
freq.    1230.48  E(vib)   ...       0.01 
freq.    1248.34  E(vib)   ...       0.01 
freq.    1271.52  E(vib)   ...       0.01 
freq.    1283.73  E(vib)   ...       0.01 
freq.    1309.51  E(vib)   ...       0.01 
freq.    1331.55  E(vib)   ...       0.01 
freq.    1334.13  E(vib)   ...       0.01 
freq.    1360.62  E(vib)   ...       0.01 
freq.    1366.88  E(vib)   ...       0.01 
freq.    1401.36  E(vib)   ...       0.00 
freq.    1423.56  E(vib)   ...       0.00 
freq.    1435.33  E(vib)   ...       0.00 
freq.    1456.18  E(vib)   ...       0.00 
freq.    1473.86  E(vib)   ...       0.00 
freq.    1474.72  E(vib)   ...       0.00 
freq.    1484.27  E(vib)   ...       0.00 
freq.    1492.33  E(vib)   ...       0.00 
freq.    1498.46  E(vib)   ...       0.00 
freq.    1513.65  E(vib)   ...       0.00 
freq.    1519.95  E(vib)   ...       0.00 
freq.    1535.19  E(vib)   ...       0.00 
freq.    1586.99  E(vib)   ...       0.00 
freq.    1657.09  E(vib)   ...       0.00 
freq.    1776.16  E(vib)   ...       0.00 
freq.    1788.09  E(vib)   ...       0.00 
freq.    3002.02  E(vib)   ...       0.00 
freq.    3005.66  E(vib)   ...       0.00 
freq.    3052.06  E(vib)   ...       0.00 
freq.    3064.98  E(vib)   ...       0.00 
freq.    3065.40  E(vib)   ...       0.00 
freq.    3074.56  E(vib)   ...       0.00 
freq.    3088.61  E(vib)   ...       0.00 
freq.    3089.69  E(vib)   ...       0.00 
freq.    3112.36  E(vib)   ...       0.00 
freq.    3149.22  E(vib)   ...       0.00 
freq.    3171.23  E(vib)   ...       0.00 
freq.    3182.98  E(vib)   ...       0.00 
freq.    3189.60  E(vib)   ...       0.00 
freq.    3216.05  E(vib)   ...       0.00 
freq.    3524.65  E(vib)   ...       0.00 
freq.    3607.79  E(vib)   ...       0.00 
freq.    3609.39  E(vib)   ...       0.00 
freq.    3637.75  E(vib)   ...       0.00 

------------
INNER ENERGY
------------

The inner energy is: U= E(el) + E(ZPE) + E(vib) + E(rot) + E(trans)
    E(el)   - is the total energy from the electronic structure calculation
              = E(kin-el) + E(nuc-el) + E(el-el) + E(nuc-nuc)
    E(ZPE)  - the the zero temperature vibrational energy from the frequency calculation
    E(vib)  - the the finite temperature correction to E(ZPE) due to population
              of excited vibrational states
    E(rot)  - is the rotational thermal energy
    E(trans)- is the translational thermal energy

Summary of contributions to the inner energy U:
Electronic energy                ...   -668.44603705 Eh
Zero point energy                ...      0.27717491 Eh     173.93 kcal/mol
Thermal vibrational correction   ...      0.01392344 Eh       8.74 kcal/mol
Thermal rotational correction    ...      0.00141627 Eh       0.89 kcal/mol
Thermal translational correction ...      0.00141627 Eh       0.89 kcal/mol
-----------------------------------------------------------------------
Total thermal energy                   -668.15210616 Eh


Summary of corrections to the electronic energy:
(perhaps to be used in another calculation)
Total thermal correction                  0.01675598 Eh      10.51 kcal/mol
Non-thermal (ZPE) correction              0.27717491 Eh     173.93 kcal/mol
-----------------------------------------------------------------------
Total correction                          0.29393089 Eh     184.44 kcal/mol


--------
ENTHALPY
--------

The enthalpy is H = U + kB*T
                kB is Boltzmann's constant
Total free energy                 ...   -668.15210616 Eh 
Thermal Enthalpy correction       ...      0.00094421 Eh       0.59 kcal/mol
-----------------------------------------------------------------------
Total Enthalpy                    ...   -668.15116195 Eh


Note: Only C1 symmetry has been detected, increase convergence thresholds 
      if your molecule has a higher symmetry. Symmetry factor of 1.0 is   
      used for the rotational entropy correction. 
 

Note: Rotational entropy computed according to Herzberg 
Infrared and Raman Spectra, Chapter V,1, Van Nostrand Reinhold, 1945 
Point Group:  C1, Symmetry Number:   1  
Rotational constants in cm-1:     0.022221     0.013254     0.009266 

Vibrational entropy computed according to the QRRHO of S. Grimme
Chem.Eur.J. 2012 18 9955


-------
ENTROPY
-------

The entropy contributions are T*S = T*(S(el)+S(vib)+S(rot)+S(trans))
     S(el)   - electronic entropy
     S(vib)  - vibrational entropy
     S(rot)  - rotational entropy
     S(trans)- translational entropy
The entropies will be listed as multiplied by the temperature to get
units of energy

Electronic entropy                ...      0.00065446 Eh      0.41 kcal/mol
Vibrational entropy               ...      0.02559919 Eh     16.06 kcal/mol
Rotational entropy                ...      0.01555904 Eh      9.76 kcal/mol
Translational entropy             ...      0.01985478 Eh     12.46 kcal/mol
-----------------------------------------------------------------------
Final entropy term                ...      0.06166746 Eh     38.70 kcal/mol

In case the symmetry of your molecule has not been determined correctly
or in case you have a reason to use a different symmetry number we print 
out the resulting rotational entropy values for sn=1,12 :
 --------------------------------------------------------
|  sn= 1 | S(rot)=       0.01555904 Eh      9.76 kcal/mol|
|  sn= 2 | S(rot)=       0.01490458 Eh      9.35 kcal/mol|
|  sn= 3 | S(rot)=       0.01452175 Eh      9.11 kcal/mol|
|  sn= 4 | S(rot)=       0.01425012 Eh      8.94 kcal/mol|
|  sn= 5 | S(rot)=       0.01403944 Eh      8.81 kcal/mol|
|  sn= 6 | S(rot)=       0.01386729 Eh      8.70 kcal/mol|
|  sn= 7 | S(rot)=       0.01372174 Eh      8.61 kcal/mol|
|  sn= 8 | S(rot)=       0.01359567 Eh      8.53 kcal/mol|
|  sn= 9 | S(rot)=       0.01348446 Eh      8.46 kcal/mol|
|  sn=10 | S(rot)=       0.01338498 Eh      8.40 kcal/mol|
|  sn=11 | S(rot)=       0.01329499 Eh      8.34 kcal/mol|
|  sn=12 | S(rot)=       0.01321283 Eh      8.29 kcal/mol|
 --------------------------------------------------------


-------------------
GIBBS FREE ENERGY
-------------------

The Gibbs free energy is G = H - T*S

Total enthalpy                    ...   -668.15116195 Eh 
Total entropy correction          ...     -0.06166746 Eh    -38.70 kcal/mol
-----------------------------------------------------------------------
Final Gibbs free energy         ...   -668.21282941 Eh

For completeness - the Gibbs free energy minus the electronic energy
G-E(el)                           ...      0.23320764 Eh    146.34 kcal/mol


Timings for individual modules:

Sum of individual times         ...     2029.211 sec (=  33.820 min)
GTO integral calculation        ...       61.688 sec (=   1.028 min)   3.0 %
SCF iterations                  ...      938.693 sec (=  15.645 min)  46.3 %
SCF Gradient evaluation         ...      272.574 sec (=   4.543 min)  13.4 %
Geometry relaxation             ...        0.995 sec (=   0.017 min)   0.0 %
Analytical frequency calculation...      755.260 sec (=  12.588 min)  37.2 %
                             ****ORCA TERMINATED NORMALLY****
TOTAL RUN TIME: 0 days 0 hours 34 minutes 42 seconds 434 msec
