32
Energy: -668.152463805
N      -2.016601000000000      0.754332000000000      0.786282000000000
C      -1.601881000000000     -0.032123000000000     -0.361547000000000
C      -1.834735000000000     -1.516395000000000      0.032313000000000
O      -2.459522000000000     -1.825596000000000      1.029363000000000
C      -0.180861000000000      0.238730000000000     -0.791235000000000
C       0.933382000000000      0.189820000000000      0.210076000000000
C       2.320838000000000      0.022573000000000     -0.433767000000000
C       3.451088000000000      0.038340000000000      0.602763000000000
N       4.745519000000000     -0.163804000000000     -0.049814000000000
H      -0.023193000000000      0.766048000000000     -1.730197000000000
H       0.752371000000000     -0.621587000000000      0.933802000000000
H       0.923887000000000      1.123539000000000      0.803729000000000
H       2.481115000000000      0.836467000000000     -1.157847000000000
H       2.371739000000000     -0.919372000000000     -0.996342000000000
H       3.300708000000000     -0.787270000000000      1.312184000000000
H       3.391167000000000      0.977352000000000      1.182855000000000
H       5.496365000000000     -0.204598000000000      0.631420000000000
H       4.953124000000000      0.605452000000000     -0.679789000000000
H      -2.419391000000000      0.224824000000000      1.549349000000000
C      -2.105115000000000      2.105576000000000      0.720313000000000
N      -1.330362000000000     -2.416166000000000     -0.835359000000000
H      -0.723077000000000     -2.070155000000000     -1.563868000000000
O      -1.757165000000000      2.731343000000000     -0.263451000000000
C      -2.655701000000000      2.797527000000000      1.960800000000000
H      -3.555377000000000      3.353449000000000      1.673337000000000
H      -2.898367000000000      2.103295000000000      2.771828000000000
H      -1.912022000000000      3.523024000000000      2.308897000000000
C      -1.477790000000000     -3.844213000000000     -0.635459000000000
H      -2.490035000000000     -4.054897000000000     -0.276277000000000
H      -1.316796000000000     -4.356732000000000     -1.588828000000000
H      -0.763291000000000     -4.226735000000000      0.106043000000000
H      -2.272356000000000      0.182068000000000     -1.207455000000000
