
                                 *****************
                                 * O   R   C   A *
                                 *****************

                                            #,                                       
                                            ###                                      
                                            ####                                     
                                            #####                                    
                                            ######                                   
                                           ########,                                 
                                     ,,################,,,,,                         
                               ,,#################################,,                 
                          ,,##########################################,,             
                       ,#########################################, ''#####,          
                    ,#############################################,,   '####,        
                  ,##################################################,,,,####,       
                ,###########''''           ''''###############################       
              ,#####''   ,,,,##########,,,,          '''####'''          '####       
            ,##' ,,,,###########################,,,                        '##       
           ' ,,###''''                  '''############,,,                           
         ,,##''                                '''############,,,,        ,,,,,,###''
      ,#''                                            '''#######################'''  
     '                                                          ''''####''''         
             ,#######,   #######,   ,#######,      ##                                
            ,#'     '#,  ##    ##  ,#'     '#,    #''#        ######   ,####,        
            ##       ##  ##   ,#'  ##            #'  '#       #        #'  '#        
            ##       ##  #######   ##           ,######,      #####,   #    #        
            '#,     ,#'  ##    ##  '#,     ,#' ,#      #,         ##   #,  ,#        
             '#######'   ##     ##  '#######'  #'      '#     #####' # '####'        



                  #######################################################
                  #                        -***-                        #
                  #          Department of theory and spectroscopy      #
                  #    Directorship and core code : Frank Neese         #
                  #        Max Planck Institute fuer Kohlenforschung    #
                  #                Kaiser Wilhelm Platz 1               #
                  #                 D-45470 Muelheim/Ruhr               #
                  #                      Germany                        #
                  #                                                     #
                  #                  All rights reserved                #
                  #                        -***-                        #
                  #######################################################


                         Program Version 5.0.4 -  RELEASE  -


 With contributions from (in alphabetic order):
   Daniel Aravena         : Magnetic Suceptibility
   Michael Atanasov       : Ab Initio Ligand Field Theory (pilot matlab implementation)
   Alexander A. Auer      : GIAO ZORA, VPT2 properties, NMR spectrum
   Ute Becker             : Parallelization
   Giovanni Bistoni       : ED, misc. LED, open-shell LED, HFLD
   Martin Brehm           : Molecular dynamics
   Dmytro Bykov           : SCF Hessian
   Vijay G. Chilkuri      : MRCI spin determinant printing, contributions to CSF-ICE
   Dipayan Datta          : RHF DLPNO-CCSD density
   Achintya Kumar Dutta   : EOM-CC, STEOM-CC
   Dmitry Ganyushin       : Spin-Orbit,Spin-Spin,Magnetic field MRCI
   Miquel Garcia          : C-PCM and meta-GGA Hessian, CC/C-PCM, Gaussian charge scheme
   Yang Guo               : DLPNO-NEVPT2, F12-NEVPT2, CIM, IAO-localization
   Andreas Hansen         : Spin unrestricted coupled pair/coupled cluster methods
   Benjamin Helmich-Paris : MC-RPA, TRAH-SCF, COSX integrals
   Lee Huntington         : MR-EOM, pCC
   Robert Izsak           : Overlap fitted RIJCOSX, COSX-SCS-MP3, EOM
   Marcus Kettner         : VPT2
   Christian Kollmar      : KDIIS, OOCD, Brueckner-CCSD(T), CCSD density, CASPT2, CASPT2-K
   Simone Kossmann        : Meta GGA functionals, TD-DFT gradient, OOMP2, MP2 Hessian
   Martin Krupicka        : Initial AUTO-CI
   Lucas Lang             : DCDCAS
   Marvin Lechner         : AUTO-CI (C++ implementation), FIC-MRCC
   Dagmar Lenk            : GEPOL surface, SMD
   Dimitrios Liakos       : Extrapolation schemes; Compound Job, initial MDCI parallelization
   Dimitrios Manganas     : Further ROCIS development; embedding schemes
   Dimitrios Pantazis     : SARC Basis sets
   Anastasios Papadopoulos: AUTO-CI, single reference methods and gradients
   Taras Petrenko         : DFT Hessian,TD-DFT gradient, ASA, ECA, R-Raman, ABS, FL, XAS/XES, NRVS
   Peter Pinski           : DLPNO-MP2, DLPNO-MP2 Gradient
   Christoph Reimann      : Effective Core Potentials
   Marius Retegan         : Local ZFS, SOC
   Christoph Riplinger    : Optimizer, TS searches, QM/MM, DLPNO-CCSD(T), (RO)-DLPNO pert. Triples
   Tobias Risthaus        : Range-separated hybrids, TD-DFT gradient, RPA, STAB
   Michael Roemelt        : Original ROCIS implementation
   Masaaki Saitow         : Open-shell DLPNO-CCSD energy and density
   Barbara Sandhoefer     : DKH picture change effects
   Avijit Sen             : IP-ROCIS
   Kantharuban Sivalingam : CASSCF convergence, NEVPT2, FIC-MRCI
   Bernardo de Souza      : ESD, SOC TD-DFT
   Georgi Stoychev        : AutoAux, RI-MP2 NMR, DLPNO-MP2 response
   Willem Van den Heuvel  : Paramagnetic NMR
   Boris Wezisla          : Elementary symmetry handling
   Frank Wennmohs         : Technical directorship


 We gratefully acknowledge several colleagues who have allowed us to
 interface, adapt or use parts of their codes:
   Stefan Grimme, W. Hujo, H. Kruse, P. Pracht,  : VdW corrections, initial TS optimization,
                  C. Bannwarth, S. Ehlert          DFT functionals, gCP, sTDA/sTD-DF
   Ed Valeev, F. Pavosevic, A. Kumar             : LibInt (2-el integral package), F12 methods
   Garnet Chan, S. Sharma, J. Yang, R. Olivares  : DMRG
   Ulf Ekstrom                                   : XCFun DFT Library
   Mihaly Kallay                                 : mrcc  (arbitrary order and MRCC methods)
   Jiri Pittner, Ondrej Demel                    : Mk-CCSD
   Frank Weinhold                                : gennbo (NPA and NBO analysis)
   Christopher J. Cramer and Donald G. Truhlar   : smd solvation model
   Lars Goerigk                                  : TD-DFT with DH, B97 family of functionals
   V. Asgeirsson, H. Jonsson                     : NEB implementation
   FAccTs GmbH                                   : IRC, NEB, NEB-TS, DLPNO-Multilevel, CI-OPT
                                                   MM, QMMM, 2- and 3-layer-ONIOM, Crystal-QMMM,
                                                   LR-CPCM, SF, NACMEs, symmetry and pop. for TD-DFT,
                                                   nearIR, NL-DFT gradient (VV10), updates on ESD,
                                                   ML-optimized integration grids
   S Lehtola, MJT Oliveira, MAL Marques          : LibXC Library
   Liviu Ungur et al                             : ANISO software


 Your calculation uses the libint2 library for the computation of 2-el integrals
 For citations please refer to: http://libint.valeyev.net

 Your ORCA version has been built with support for libXC version: 5.1.0
 For citations please refer to: https://tddft.org/programs/libxc/

 This ORCA versions uses:
   CBLAS   interface :  Fast vector & matrix operations
   LAPACKE interface :  Fast linear algebra routines
   SCALAPACK package :  Parallel linear algebra routines
   Shared memory     :  Shared parallel matrices
   BLAS/LAPACK       :  OpenBLAS 0.3.15  USE64BITINT DYNAMIC_ARCH NO_AFFINITY Zen SINGLE_THREADED
        Core in use  :  Zen
   Copyright (c) 2011-2014, The OpenBLAS Project




***************************************
The coordinates will be read from file: model.xyz
***************************************


================================================================================

----- Orbital basis set information -----
Your calculation utilizes the basis: EPR-II
   V. Barone, in Recent Advances in Density Functional Methods, Part 1 (ed. D. P. Chong), World Scientific, Singapore, 1995, p. 287.

----- AuxJ basis set information -----
Your calculation utilizes the auxiliary basis: def2/J
   F. Weigend, Phys. Chem. Chem. Phys. 8, 1057 (2006).

================================================================================
                                        WARNINGS
                       Please study these warnings very carefully!
================================================================================


WARNING: your system is open-shell and RHF/RKS was chosen
  ===> : WILL SWITCH to UHF/UKS


WARNING: Geometry Optimization
  ===> : Switching off AutoStart
         For restart on a previous wavefunction, please use MOREAD

INFO   : the flag for use of the SHARK integral package has been found!

================================================================================
                                       INPUT FILE
================================================================================
NAME = opt.inp
|  1> ! B3LYP EPR-II OPT
|  2> %pal nprocs 16 end
|  3> *XYZFile 0 2 model.xyz
|  4> 
|  5>                          ****END OF INPUT****
================================================================================

                       *****************************
                       * Geometry Optimization Run *
                       *****************************

Geometry optimization settings:
Update method            Update   .... BFGS
Choice of coordinates    CoordSys .... Z-matrix Internals
Initial Hessian          InHess   .... Almoef's Model

Convergence Tolerances:
Energy Change            TolE     ....  5.0000e-06 Eh
Max. Gradient            TolMAXG  ....  3.0000e-04 Eh/bohr
RMS Gradient             TolRMSG  ....  1.0000e-04 Eh/bohr
Max. Displacement        TolMAXD  ....  4.0000e-03 bohr
RMS Displacement         TolRMSD  ....  2.0000e-03 bohr
Strict Convergence                ....  False
------------------------------------------------------------------------------
                        ORCA OPTIMIZATION COORDINATE SETUP
------------------------------------------------------------------------------

The optimization will be done in new redundant internal coordinates
Making redundant internal coordinates   ...  (new redundants) done
Evaluating the initial hessian          ...  (Almloef) done
Evaluating the coordinates              ...  done
Calculating the B-matrix                .... done
Calculating the G-matrix                .... done
Diagonalizing the G-matrix              .... done
Small eigenvalue found = 5.032e-03
Small eigenvalue found = 6.811e-03
Small eigenvalue found = 9.730e-03
Small eigenvalue found = 2.571e-02
Small eigenvalue found = 2.961e-02
The first mode is                       ....   63
The number of degrees of freedom        ....   90

    -----------------------------------------------------------------
                    Redundant Internal Coordinates


    -----------------------------------------------------------------
         Definition                    Initial Value    Approx d2E/dq
    -----------------------------------------------------------------
      1. B(C   1,N   0)                  1.4519         0.445776   
      2. B(C   2,C   1)                  1.5532         0.343063   
      3. B(O   3,C   2)                  1.2166         1.058162   
      4. B(C   4,C   1)                  1.5091         0.403432   
      5. B(C   5,C   4)                  1.4989         0.418865   
      6. B(C   6,C   5)                  1.5387         0.361849   
      7. B(C   7,C   6)                  1.5337         0.368588   
      8. B(N   8,C   7)                  1.4636         0.426945   
      9. B(H   9,C   4)                  1.0884         0.362248   
     10. B(H  10,C   5)                  1.1022         0.344271   
     11. B(H  11,C   5)                  1.1065         0.338919   
     12. B(H  12,C   6)                  1.1011         0.345721   
     13. B(H  13,C   6)                  1.0983         0.349240   
     14. B(H  14,C   7)                  1.0989         0.348550   
     15. B(H  15,C   7)                  1.1054         0.340332   
     16. B(H  16,N   8)                  1.0146         0.425380   
     17. B(H  17,N   8)                  1.0157         0.423683   
     18. B(H  18,N   0)                  1.0124         0.428960   
     19. B(C  19,N   0)                  1.3557         0.634637   
     20. B(N  20,C   2)                  1.3479         0.653195   
     21. B(H  21,N  20)                  1.0096         0.433382   
     22. B(O  22,C  19)                  1.2167         1.057567   
     23. B(C  23,C  19)                  1.5234         0.382742   
     24. B(H  24,C  23)                  1.0959         0.352317   
     25. B(H  25,C  23)                  1.0948         0.353791   
     26. B(H  26,C  23)                  1.0957         0.352628   
     27. B(C  27,N  20)                  1.4495         0.449746   
     28. B(H  28,C  27)                  1.0945         0.354131   
     29. B(H  29,C  27)                  1.0943         0.354448   
     30. B(H  30,C  27)                  1.0985         0.349056   
     31. B(H  31,C   1)                  1.1004         0.346547   
     32. A(C   1,N   0,C  19)          121.3359         0.405658   
     33. A(H  18,N   0,C  19)          122.1408         0.359563   
     34. A(C   1,N   0,H  18)          115.2278         0.338774   
     35. A(N   0,C   1,C   2)          105.9227         0.366787   
     36. A(C   2,C   1,C   4)          112.6372         0.362836   
     37. A(N   0,C   1,C   4)          113.3818         0.377168   
     38. A(C   4,C   1,H  31)          108.6579         0.326380   
     39. A(N   0,C   1,H  31)          109.1622         0.329805   
     40. A(C   2,C   1,H  31)          106.8333         0.317829   
     41. A(C   1,C   2,O   3)          121.8497         0.426822   
     42. A(O   3,C   2,N  20)          123.3721         0.476614   
     43. A(C   1,C   2,N  20)          114.7450         0.391878   
     44. A(C   1,C   4,C   5)          120.2615         0.375493   
     45. A(C   5,C   4,H   9)          118.9769         0.330818   
     46. A(C   1,C   4,H   9)          117.9706         0.328773   
     47. A(H  10,C   5,H  11)          105.5163         0.286074   
     48. A(C   6,C   5,H  11)          108.9024         0.319443   
     49. A(C   4,C   5,H  11)          108.9355         0.327202   
     50. A(C   4,C   5,C   6)          113.2250         0.368525   
     51. A(C   4,C   5,H  10)          109.9123         0.328049   
     52. A(C   6,C   5,H  10)          110.0483         0.320261   
     53. A(C   5,C   6,C   7)          112.3716         0.360551   
     54. A(H  12,C   6,H  13)          106.8787         0.287605   
     55. A(C   7,C   6,H  13)          108.7138         0.321984   
     56. A(C   5,C   6,H  13)          110.4466         0.321013   
     57. A(C   7,C   6,H  12)          109.2427         0.321450   
     58. A(C   5,C   6,H  12)          109.0309         0.320482   
     59. A(H  14,C   7,H  15)          106.9795         0.286812   
     60. A(N   8,C   7,H  15)          113.5312         0.326490   
     61. A(C   6,C   7,H  15)          108.8728         0.320625   
     62. A(N   8,C   7,H  14)          107.7643         0.327776   
     63. A(C   6,C   7,H  14)          109.1321         0.321879   
     64. A(C   6,C   7,N   8)          110.4265         0.368592   
     65. A(H  16,N   8,H  17)          107.1942         0.301415   
     66. A(C   7,N   8,H  17)          110.6519         0.335654   
     67. A(C   7,N   8,H  16)          111.1405         0.335877   
     68. A(O  22,C  19,C  23)          121.8790         0.435251   
     69. A(N   0,C  19,C  23)          115.8923         0.397456   
     70. A(N   0,C  19,O  22)          122.2262         0.474044   
     71. A(H  21,N  20,C  27)          119.8914         0.339857   
     72. A(C   2,N  20,C  27)          122.0613         0.408371   
     73. A(C   2,N  20,H  21)          117.4394         0.361967   
     74. A(H  25,C  23,H  26)          109.5699         0.289082   
     75. A(H  24,C  23,H  26)          107.7361         0.288893   
     76. A(C  19,C  23,H  26)          108.3088         0.324493   
     77. A(H  24,C  23,H  25)          109.5121         0.289042   
     78. A(C  19,C  23,H  25)          113.2850         0.324669   
     79. A(C  19,C  23,H  24)          108.2709         0.324446   
     80. A(H  29,C  27,H  30)          109.2264         0.288705   
     81. A(H  28,C  27,H  30)          108.2396         0.288665   
     82. A(N  20,C  27,H  30)          111.7165         0.330683   
     83. A(H  28,C  27,H  29)          109.3779         0.289359   
     84. A(N  20,C  27,H  29)          109.0450         0.331523   
     85. A(N  20,C  27,H  28)          109.2054         0.331474   
     86. D(C   2,C   1,N   0,C  19)   -171.4960         0.016948   
     87. D(C   4,C   1,N   0,H  18)   -128.2455         0.016948   
     88. D(C   4,C   1,N   0,C  19)     64.4892         0.016948   
     89. D(H  31,C   1,N   0,H  18)    110.4741         0.016948   
     90. D(C   2,C   1,N   0,H  18)     -4.2306         0.016948   
     91. D(H  31,C   1,N   0,C  19)    -56.7912         0.016948   
     92. D(O   3,C   2,C   1,C   4)    135.5288         0.008927   
     93. D(O   3,C   2,C   1,H  31)   -105.2418         0.008927   
     94. D(N  20,C   2,C   1,H  31)     72.7256         0.008927   
     95. D(N  20,C   2,C   1,C   4)    -46.5038         0.008927   
     96. D(O   3,C   2,C   1,N   0)     11.0495         0.008927   
     97. D(N  20,C   2,C   1,N   0)   -170.9831         0.008927   
     98. D(C   5,C   4,C   1,H  31)    172.6386         0.012070   
     99. D(C   5,C   4,C   1,N   0)     51.0754         0.012070   
    100. D(C   5,C   4,C   1,C   2)    -69.1987         0.012070   
    101. D(H   9,C   4,C   1,H  31)     11.7451         0.012070   
    102. D(H   9,C   4,C   1,C   2)    129.9078         0.012070   
    103. D(H   9,C   4,C   1,N   0)   -109.8181         0.012070   
    104. D(H  11,C   5,C   4,H   9)     82.9229         0.012976   
    105. D(H  11,C   5,C   4,C   1)    -77.7806         0.012976   
    106. D(H  10,C   5,C   4,H   9)   -161.9218         0.012976   
    107. D(C   6,C   5,C   4,H   9)    -38.4034         0.012976   
    108. D(C   6,C   5,C   4,C   1)    160.8932         0.012976   
    109. D(H  10,C   5,C   4,C   1)     37.3747         0.012976   
    110. D(H  12,C   6,C   5,H  11)    -65.1874         0.010497   
    111. D(H  12,C   6,C   5,H  10)    179.6012         0.010497   
    112. D(H  12,C   6,C   5,C   4)     56.1575         0.010497   
    113. D(H  13,C   6,C   5,C   4)    -60.9964         0.010497   
    114. D(C   7,C   6,C   5,H  11)     56.0758         0.010497   
    115. D(C   7,C   6,C   5,H  10)    -59.1356         0.010497   
    116. D(C   7,C   6,C   5,C   4)    177.4207         0.010497   
    117. D(H  13,C   6,C   5,H  11)    177.6587         0.010497   
    118. D(H  13,C   6,C   5,H  10)     62.4473         0.010497   
    119. D(H  15,C   7,C   6,H  13)   -178.9902         0.010866   
    120. D(H  15,C   7,C   6,H  12)     64.7182         0.010866   
    121. D(H  15,C   7,C   6,C   5)    -56.4236         0.010866   
    122. D(H  14,C   7,C   6,H  13)    -62.5506         0.010866   
    123. D(H  14,C   7,C   6,H  12)   -178.8422         0.010866   
    124. D(H  14,C   7,C   6,C   5)     60.0160         0.010866   
    125. D(N   8,C   7,C   6,H  13)     55.7311         0.010866   
    126. D(N   8,C   7,C   6,H  12)    -60.5606         0.010866   
    127. D(N   8,C   7,C   6,C   5)    178.2976         0.010866   
    128. D(H  17,N   8,C   7,H  15)    -58.5518         0.015541   
    129. D(H  17,N   8,C   7,H  14)   -176.8445         0.015541   
    130. D(H  17,N   8,C   7,C   6)     64.0404         0.015541   
    131. D(H  16,N   8,C   7,H  15)     60.4246         0.015541   
    132. D(H  16,N   8,C   7,H  14)    -57.8681         0.015541   
    133. D(H  16,N   8,C   7,C   6)   -176.9832         0.015541   
    134. D(C  23,C  19,N   0,H  18)      9.0288         0.032736   
    135. D(C  23,C  19,N   0,C   1)    175.4075         0.032736   
    136. D(O  22,C  19,N   0,H  18)   -171.5378         0.032736   
    137. D(O  22,C  19,N   0,C   1)     -5.1591         0.032736   
    138. D(C  27,N  20,C   2,O   3)     -0.9453         0.034850   
    139. D(C  27,N  20,C   2,C   1)   -178.8778         0.034850   
    140. D(H  21,N  20,C   2,O   3)   -171.9889         0.034850   
    141. D(H  21,N  20,C   2,C   1)     10.0786         0.034850   
    142. D(H  26,C  23,C  19,O  22)    -56.6101         0.010922   
    143. D(H  26,C  23,C  19,N   0)    122.8255         0.010922   
    144. D(H  25,C  23,C  19,O  22)   -178.3796         0.010922   
    145. D(H  25,C  23,C  19,N   0)      1.0560         0.010922   
    146. D(H  24,C  23,C  19,O  22)     59.9513         0.010922   
    147. D(H  24,C  23,C  19,N   0)   -120.6131         0.010922   
    148. D(H  28,C  27,N  20,C   2)     41.0635         0.017255   
    149. D(H  30,C  27,N  20,H  21)     92.1907         0.017255   
    150. D(H  30,C  27,N  20,C   2)    -78.6390         0.017255   
    151. D(H  29,C  27,N  20,H  21)    -28.6380         0.017255   
    152. D(H  29,C  27,N  20,C   2)    160.5322         0.017255   
    153. D(H  28,C  27,N  20,H  21)   -148.1068         0.017255   
    -----------------------------------------------------------------

Number of atoms                         .... 32
Number of degrees of freedom            .... 153

         *************************************************************
         *                GEOMETRY OPTIMIZATION CYCLE   1            *
         *************************************************************
---------------------------------
CARTESIAN COORDINATES (ANGSTROEM)
---------------------------------
  N     -2.016601    0.754332    0.786282
  C     -1.601881   -0.032123   -0.361547
  C     -1.834735   -1.516395    0.032313
  O     -2.459522   -1.825596    1.029363
  C     -0.180861    0.238730   -0.791235
  C      0.933382    0.189820    0.210076
  C      2.320838    0.022573   -0.433767
  C      3.451088    0.038340    0.602763
  N      4.745519   -0.163804   -0.049814
  H     -0.023193    0.766048   -1.730197
  H      0.752371   -0.621587    0.933802
  H      0.923887    1.123539    0.803729
  H      2.481115    0.836467   -1.157847
  H      2.371739   -0.919372   -0.996342
  H      3.300708   -0.787270    1.312184
  H      3.391167    0.977352    1.182855
  H      5.496365   -0.204598    0.631420
  H      4.953124    0.605452   -0.679789
  H     -2.419391    0.224824    1.549349
  C     -2.105115    2.105576    0.720313
  N     -1.330362   -2.416166   -0.835359
  H     -0.723077   -2.070155   -1.563868
  O     -1.757165    2.731343   -0.263451
  C     -2.655701    2.797527    1.960800
  H     -3.555377    3.353449    1.673337
  H     -2.898367    2.103295    2.771828
  H     -1.912022    3.523024    2.308897
  C     -1.477790   -3.844213   -0.635459
  H     -2.490035   -4.054897   -0.276277
  H     -1.316796   -4.356732   -1.588828
  H     -0.763291   -4.226735    0.106043
  H     -2.272356    0.182068   -1.207455

----------------------------
CARTESIAN COORDINATES (A.U.)
----------------------------
  NO LB      ZA    FRAG     MASS         X           Y           Z
   0 N     7.0000    0    14.007   -3.810824    1.425481    1.485858
   1 C     6.0000    0    12.011   -3.027116   -0.060704   -0.683225
   2 C     6.0000    0    12.011   -3.467147   -2.865571    0.061063
   3 O     8.0000    0    15.999   -4.647823   -3.449876    1.945214
   4 C     6.0000    0    12.011   -0.341778    0.451134   -1.495217
   5 C     6.0000    0    12.011    1.763836    0.358708    0.396986
   6 C     6.0000    0    12.011    4.385748    0.042657   -0.819701
   7 C     6.0000    0    12.011    6.521611    0.072452    1.139057
   8 N     7.0000    0    14.007    8.967731   -0.309545   -0.094135
   9 H     1.0000    0     1.008   -0.043828    1.447621   -3.269598
  10 H     1.0000    0     1.008    1.421775   -1.174629    1.764630
  11 H     1.0000    0     1.008    1.745893    2.123181    1.518828
  12 H     1.0000    0     1.008    4.688628    1.580694   -2.188014
  13 H     1.0000    0     1.008    4.481937   -1.737361   -1.882814
  14 H     1.0000    0     1.008    6.237434   -1.487725    2.479668
  15 H     1.0000    0     1.008    6.408377    1.846928    2.235272
  16 H     1.0000    0     1.008   10.386625   -0.386634    1.193211
  17 H     1.0000    0     1.008    9.360048    1.144138   -1.284615
  18 H     1.0000    0     1.008   -4.571986    0.424856    2.927845
  19 C     6.0000    0    12.011   -3.978091    3.978962    1.361194
  20 N     7.0000    0    14.007   -2.514020   -4.565892   -1.578600
  21 H     1.0000    0     1.008   -1.366418   -3.912026   -2.955282
  22 O     8.0000    0    15.999   -3.320561    5.161490   -0.497850
  23 C     6.0000    0    12.011   -5.018548    5.286560    3.705375
  24 H     1.0000    0     1.008   -6.718689    6.337100    3.162149
  25 H     1.0000    0     1.008   -5.477120    3.974652    5.237996
  26 H     1.0000    0     1.008   -3.613198    6.657551    4.363183
  27 C     6.0000    0    12.011   -2.792618   -7.264510   -1.200843
  28 H     1.0000    0     1.008   -4.705484   -7.662645   -0.522088
  29 H     1.0000    0     1.008   -2.488384   -8.233030   -3.002450
  30 H     1.0000    0     1.008   -1.442411   -7.987372    0.200392
  31 H     1.0000    0     1.008   -4.294131    0.344059   -2.281759

--------------------------------
INTERNAL COORDINATES (ANGSTROEM)
--------------------------------
 N      0   0   0     0.000000000000     0.00000000     0.00000000
 C      1   0   0     1.451900671074     0.00000000     0.00000000
 C      2   1   0     1.553193502079   105.92270247     0.00000000
 O      3   2   1     1.216582408335   121.84965330    11.04952824
 C      2   1   3     1.509069569421   113.38180637   235.98518049
 C      5   2   1     1.498850682980   120.26148467    51.07538630
 C      6   5   2     1.538681097432   113.22504003   160.89315946
 C      7   6   5     1.533658404499   112.37159955   177.42069303
 N      8   7   6     1.463649736592   110.42654368   178.29758116
 H      5   2   1     1.088380957566   117.97059583   250.18187761
 H      6   5   2     1.102236646481   109.91229954    37.37474755
 H      6   5   2     1.106501337729   108.93552254   282.21943789
 H      7   6   5     1.101092187950   109.03085340    56.15751929
 H      7   6   5     1.098335980222   110.44657767   299.00364334
 H      8   7   6     1.098874047260   109.13210566    60.01596536
 H      8   7   6     1.105369074495   108.87280480   303.57635667
 H      9   8   7     1.014649510377   111.14048062   183.01682212
 H      9   8   7     1.015737727066   110.65186968    64.04039785
 H      1   2   3     1.012368387818   115.22783508   355.76936117
 C      1   2   3     1.355745914504   121.33591914   188.50401337
 N      3   2   1     1.347900098358   114.74497885   189.01690020
 H     21   3   2     1.009576171681   117.43941154    10.07856153
 O     20   1   2     1.216735447205   122.22623867   354.84093859
 C     20   1   2     1.523400514299   115.89227680   175.40752300
 H     24  20   1     1.095947604327   108.27087585   239.38690012
 H     24  20   1     1.094811067794   113.28499216     1.05599490
 H     24  20   1     1.095707932553   108.30875259   122.82547853
 C     21   3   2     1.449487240162   122.06128880   181.12217264
 H     28  21   3     1.094549860447   109.20541496    41.06349869
 H     28  21   3     1.094306741073   109.04496536   160.53220273
 H     28  21   3     1.098479457017   111.71649506   281.36097504
 H      2   1   3     1.100443026499   109.16223450   114.70475682

---------------------------
INTERNAL COORDINATES (A.U.)
---------------------------
 N      0   0   0     0.000000000000     0.00000000     0.00000000
 C      1   0   0     2.743694641987     0.00000000     0.00000000
 C      2   1   0     2.935110351915   105.92270247     0.00000000
 O      3   2   1     2.299007571099   121.84965330    11.04952824
 C      2   1   3     2.851728203240   113.38180637   235.98518049
 C      5   2   1     2.832417306473   120.26148467    51.07538630
 C      6   5   2     2.907685881588   113.22504003   160.89315946
 C      7   6   5     2.898194367489   112.37159955   177.42069303
 N      8   7   6     2.765897158145   110.42654368   178.29758116
 H      5   2   1     2.056741939174   117.97059583   250.18187761
 H      6   5   2     2.082925396621   109.91229954    37.37474755
 H      6   5   2     2.090984495124   108.93552254   282.21943789
 H      7   6   5     2.080762683426   109.03085340    56.15751929
 H      7   6   5     2.075554205652   110.44657767   299.00364334
 H      8   7   6     2.076571004995   109.13210566    60.01596536
 H      8   7   6     2.088844827701   108.87280480   303.57635667
 H      9   8   7     1.917409696530   111.14048062   183.01682212
 H      9   8   7     1.919466128047   110.65186968    64.04039785
 H      1   2   3     1.913098999615   115.22783508   355.76936117
 C      1   2   3     2.561988485594   121.33591914   188.50401337
 N      3   2   1     2.547162041782   114.74497885   189.01690020
 H     21   3   2     1.907822475811   117.43941154    10.07856153
 O     20   1   2     2.299296772652   122.22623867   354.84093859
 C     20   1   2     2.878809764300   115.89227680   175.40752300
 H     24  20   1     2.071040829304   108.27087585   239.38690012
 H     24  20   1     2.068893086516   113.28499216     1.05599490
 H     24  20   1     2.070587915290   108.30875259   122.82547853
 C     21   3   2     2.739133918520   122.06128880   181.12217264
 H     28  21   3     2.068399476167   109.20541496    41.06349869
 H     28  21   3     2.067940047132   109.04496536   160.53220273
 H     28  21   3     2.075825337501   111.71649506   281.36097504
 H      2   1   3     2.079535946066   109.16223450   114.70475682

---------------------
BASIS SET INFORMATION
---------------------
There are 4 groups of distinct atoms

 Group   1 Type N   : 10s5p1d contracted to 6s2p1d pattern {511111/41/1}
 Group   2 Type C   : 10s5p1d contracted to 6s2p1d pattern {511111/41/1}
 Group   3 Type O   : 10s5p1d contracted to 6s2p1d pattern {511111/41/1}
 Group   4 Type H   : 6s1p contracted to 4s1p pattern {3111/1}

Atom   0N    basis set group =>   1
Atom   1C    basis set group =>   2
Atom   2C    basis set group =>   2
Atom   3O    basis set group =>   3
Atom   4C    basis set group =>   2
Atom   5C    basis set group =>   2
Atom   6C    basis set group =>   2
Atom   7C    basis set group =>   2
Atom   8N    basis set group =>   1
Atom   9H    basis set group =>   4
Atom  10H    basis set group =>   4
Atom  11H    basis set group =>   4
Atom  12H    basis set group =>   4
Atom  13H    basis set group =>   4
Atom  14H    basis set group =>   4
Atom  15H    basis set group =>   4
Atom  16H    basis set group =>   4
Atom  17H    basis set group =>   4
Atom  18H    basis set group =>   4
Atom  19C    basis set group =>   2
Atom  20N    basis set group =>   1
Atom  21H    basis set group =>   4
Atom  22O    basis set group =>   3
Atom  23C    basis set group =>   2
Atom  24H    basis set group =>   4
Atom  25H    basis set group =>   4
Atom  26H    basis set group =>   4
Atom  27C    basis set group =>   2
Atom  28H    basis set group =>   4
Atom  29H    basis set group =>   4
Atom  30H    basis set group =>   4
Atom  31H    basis set group =>   4
---------------------------------
AUXILIARY/J BASIS SET INFORMATION
---------------------------------
There are 4 groups of distinct atoms

 Group   1 Type N   : 12s5p4d2f1g contracted to 6s4p3d1f1g pattern {711111/2111/211/2/1}
 Group   2 Type C   : 12s5p4d2f1g contracted to 6s4p3d1f1g pattern {711111/2111/211/2/1}
 Group   3 Type O   : 12s5p4d2f1g contracted to 6s4p3d1f1g pattern {711111/2111/211/2/1}
 Group   4 Type H   : 5s2p1d contracted to 3s1p1d pattern {311/2/1}

Atom   0N    basis set group =>   1
Atom   1C    basis set group =>   2
Atom   2C    basis set group =>   2
Atom   3O    basis set group =>   3
Atom   4C    basis set group =>   2
Atom   5C    basis set group =>   2
Atom   6C    basis set group =>   2
Atom   7C    basis set group =>   2
Atom   8N    basis set group =>   1
Atom   9H    basis set group =>   4
Atom  10H    basis set group =>   4
Atom  11H    basis set group =>   4
Atom  12H    basis set group =>   4
Atom  13H    basis set group =>   4
Atom  14H    basis set group =>   4
Atom  15H    basis set group =>   4
Atom  16H    basis set group =>   4
Atom  17H    basis set group =>   4
Atom  18H    basis set group =>   4
Atom  19C    basis set group =>   2
Atom  20N    basis set group =>   1
Atom  21H    basis set group =>   4
Atom  22O    basis set group =>   3
Atom  23C    basis set group =>   2
Atom  24H    basis set group =>   4
Atom  25H    basis set group =>   4
Atom  26H    basis set group =>   4
Atom  27C    basis set group =>   2
Atom  28H    basis set group =>   4
Atom  29H    basis set group =>   4
Atom  30H    basis set group =>   4
Atom  31H    basis set group =>   4


           ************************************************************
           *        Program running with 16 parallel MPI-processes    *
           *              working on a common directory               *
           ************************************************************
------------------------------------------------------------------------------
                           ORCA GTO INTEGRAL CALCULATION
                           -- RI-GTO INTEGRALS CHOSEN --
------------------------------------------------------------------------------
------------------------------------------------------------------------------
                   ___                                                        
                  /   \      - P O W E R E D   B Y -                         
                 /     \                                                     
                 |  |  |   _    _      __       _____    __    __             
                 |  |  |  | |  | |    /  \     |  _  \  |  |  /  |          
                  \  \/   | |  | |   /    \    | | | |  |  | /  /          
                 / \  \   | |__| |  /  /\  \   | |_| |  |  |/  /          
                |  |  |   |  __  | /  /__\  \  |    /   |      \           
                |  |  |   | |  | | |   __   |  |    \   |  |\   \          
                \     /   | |  | | |  |  |  |  | |\  \  |  | \   \       
                 \___/    |_|  |_| |__|  |__|  |_| \__\ |__|  \__/        
                                                                              
                      - O R C A' S   B I G   F R I E N D -                    
                                      &                                       
                       - I N T E G R A L  F E E D E R -                       
                                                                              
 v1 FN, 2020, v2 2021                                                         
------------------------------------------------------------------------------


Reading SHARK input file opt.SHARKINP.tmp ... ok
----------------------
SHARK INTEGRAL PACKAGE
----------------------

Number of atoms                             ...     32
Number of basis functions                   ...    364
Number of shells                            ...    216
Maximum angular momentum                    ...      2
Integral batch strategy                     ... SHARK/LIBINT Hybrid
RI-J (if used) integral strategy            ... SPLIT-RIJ (Revised 2003 algorithm where possible)
Printlevel                                  ...      1
Contraction scheme used                     ... SEGMENTED contraction
Coulomb Range Separation                    ... NOT USED
Exchange Range Separation                   ... NOT USED
Finite Nucleus Model                        ... NOT USED
Auxiliary Coulomb fitting basis             ... AVAILABLE
   # of basis functions in Aux-J            ...    884
   # of shells in Aux-J                     ...    300
   Maximum angular momentum in Aux-J        ...      4
Auxiliary J/K fitting basis                 ... NOT available
Auxiliary Correlation fitting basis         ... NOT available
Auxiliary 'external' fitting basis          ... NOT available
Integral threshold                          ...     2.500000e-11
Primitive cut-off                           ...     2.500000e-12
Primitive pair pre-selection threshold      ...     2.500000e-12

Calculating pre-screening integrals         ... done (  0.0 sec) Dimension = 216
Organizing shell pair data                  ... done (  0.0 sec)
Shell pair information
Total number of shell pairs                 ...     23436
Shell pairs after pre-screening             ...     15357
Total number of primitive shell pairs       ...     61703
Primitive shell pairs kept                  ...     29386
          la=0 lb=0:   7197 shell pairs
          la=1 lb=0:   5245 shell pairs
          la=1 lb=1:    898 shell pairs
          la=2 lb=0:   1429 shell pairs
          la=2 lb=1:    507 shell pairs
          la=2 lb=2:     81 shell pairs

Calculating one electron integrals          ... done (  0.0 sec)
Calculating RI/J V-Matrix + Cholesky decomp.... done (  0.0 sec)
Calculating Nuclear repulsion               ... done (  0.0 sec) ENN=    921.717474100615 Eh

SHARK setup successfully completed in   0.2 seconds

Maximum memory used throughout the entire GTOINT-calculation: 22.2 MB


           ************************************************************
           *        Program running with 16 parallel MPI-processes    *
           *              working on a common directory               *
           ************************************************************
-------------------------------------------------------------------------------
                                 ORCA SCF
-------------------------------------------------------------------------------

------------
SCF SETTINGS
------------
Hamiltonian:
 Density Functional     Method          .... DFT(GTOs)
 Exchange Functional    Exchange        .... B88
   X-Alpha parameter    XAlpha          ....  0.666667
   Becke's b parameter  XBeta           ....  0.004200
 Correlation Functional Correlation     .... LYP
 LDA part of GGA corr.  LDAOpt          .... VWN-5
 Gradients option       PostSCFGGA      .... off
 Hybrid DFT is turned on
   Fraction HF Exchange ScalHFX         ....  0.200000
   Scaling of DF-GGA-X  ScalDFX         ....  0.720000
   Scaling of DF-GGA-C  ScalDFC         ....  0.810000
   Scaling of DF-LDA-C  ScalLDAC        ....  1.000000
   Perturbative correction              ....  0.000000
   Density functional embedding theory  .... OFF
   NL short-range parameter             ....  4.800000
 RI-approximation to the Coulomb term is turned on
   Number of AuxJ basis functions       .... 884
   RIJ-COSX (HFX calculated with COS-X)).... on


General Settings:
 Integral files         IntName         .... opt
 Hartree-Fock type      HFTyp           .... UHF
 Total Charge           Charge          ....    0
 Multiplicity           Mult            ....    2
 Number of Electrons    NEL             ....  109
 Basis Dimension        Dim             ....  364
 Nuclear Repulsion      ENuc            ....    921.7174741006 Eh

Convergence Acceleration:
 DIIS                   CNVDIIS         .... on
   Start iteration      DIISMaxIt       ....    12
   Startup error        DIISStart       ....  0.200000
   # of expansion vecs  DIISMaxEq       ....     5
   Bias factor          DIISBfac        ....   1.050
   Max. coefficient     DIISMaxC        ....  10.000
 Trust-Rad. Augm. Hess. CNVTRAH         .... auto
   Auto Start mean grad. ratio tolernc. ....  1.125000
   Auto Start start iteration           ....    20
   Auto Start num. interpolation iter.  ....    10
   Max. Number of Micro iterations      ....    16
   Max. Number of Macro iterations      .... Maxiter - #DIIS iter
   Number of Davidson start vectors     ....     2
   Converg. threshold I  (grad. norm)   ....   1.000e-05
   Converg. threshold II (energy diff.) ....   1.000e-08
   Grad. Scal. Fac. for Micro threshold ....   0.100
   Minimum threshold for Micro iter.    ....   0.010
   NR start threshold (gradient norm)   ....   0.001
   Initial trust radius                 ....   0.400
   Minimum AH scaling param. (alpha)    ....   1.000
   Maximum AH scaling param. (alpha)    .... 1000.000
   Orbital update algorithm             .... Taylor
   White noise on init. David. guess    .... on
   Maximum white noise                  ....   0.010
   Quad. conv. algorithm                .... NR
 SOSCF                  CNVSOSCF        .... off
 Level Shifting         CNVShift        .... on
   Level shift para.    LevelShift      ....    0.2500
   Turn off err/grad.   ShiftErr        ....    0.0010
 Zerner damping         CNVZerner       .... off
 Static damping         CNVDamp         .... on
   Fraction old density DampFac         ....    0.7000
   Max. Damping (<1)    DampMax         ....    0.9800
   Min. Damping (>=0)   DampMin         ....    0.0000
   Turn off err/grad.   DampErr         ....    0.1000
 Fernandez-Rico         CNVRico         .... off

SCF Procedure:
 Maximum # iterations   MaxIter         ....   125
 SCF integral mode      SCFMode         .... Direct
   Integral package                     .... SHARK and LIBINT hybrid scheme
 Reset frequency        DirectResetFreq ....    20
 Integral Threshold     Thresh          ....  2.500e-11 Eh
 Primitive CutOff       TCut            ....  2.500e-12 Eh

Convergence Tolerance:
 Convergence Check Mode ConvCheckMode   .... Total+1el-Energy
 Convergence forced     ConvForced      .... 0
 Energy Change          TolE            ....  1.000e-08 Eh
 1-El. energy change                    ....  1.000e-05 Eh
 DIIS Error             TolErr          ....  5.000e-07


Diagonalization of the overlap matrix:
Smallest eigenvalue                        ... 6.462e-04
Time for diagonalization                   ...    0.014 sec
Threshold for overlap eigenvalues          ... 1.000e-08
Number of eigenvalues below threshold      ... 0
Time for construction of square roots      ...    0.010 sec
Total time needed                          ...    0.025 sec

Time for model grid setup =    0.109 sec

------------------------------
INITIAL GUESS: MODEL POTENTIAL
------------------------------
Loading Hartree-Fock densities                     ... done
Calculating cut-offs                               ... done
Initializing the effective Hamiltonian             ... done
Setting up the integral package (SHARK)            ... done
Starting the Coulomb interaction                   ... done (   0.0 sec)
Reading the grid                                   ... done
Mapping shells                                     ... done
Starting the XC term evaluation                    ... done (   0.0 sec)
  promolecular density results
     # of electrons  =    108.987154326
     EX              =    -87.742546399
     EC              =     -3.659498947
     EX+EC           =    -91.402045347
Transforming the Hamiltonian                       ... done (   0.0 sec)
Diagonalizing the Hamiltonian                      ... done (   0.0 sec)
Back transforming the eigenvectors                 ... done (   0.0 sec)
Now organizing SCF variables                       ... done
                      ------------------
                      INITIAL GUESS DONE (   0.3 sec)
                      ------------------
-------------------
DFT GRID GENERATION
-------------------

General Integration Accuracy     IntAcc      ... 4.388
Radial Grid Type                 RadialGrid  ... OptM3 with GC (2021)
Angular Grid (max. ang.)         AngularGrid ... 4 (Lebedev-302)
Angular grid pruning method      GridPruning ... 4 (adaptive)
Weight generation scheme         WeightScheme... Becke
Basis function cutoff            BFCut       ... 1.0000e-11
Integration weight cutoff        WCut        ... 1.0000e-14
Angular grids for H and He will be reduced by one unit
Partially contracted basis set               ... off
Rotationally invariant grid construction     ... off

Total number of grid points                  ...   141648
Total number of batches                      ...     2229
Average number of points per batch           ...       63
Average number of grid points per atom       ...     4426
Time for grid setup =    0.581 sec

--------------------
COSX GRID GENERATION
--------------------

GRIDX 1
-------
General Integration Accuracy     IntAcc      ... 3.816
Radial Grid Type                 RadialGrid  ... OptM3 with GC (2021)
Angular Grid (max. ang.)         AngularGrid ... 1 (Lebedev-50)
Angular grid pruning method      GridPruning ... 4 (adaptive)
Weight generation scheme         WeightScheme... Becke
Basis function cutoff            BFCut       ... 1.0000e-11
Integration weight cutoff        WCut        ... 1.0000e-14
Angular grids for H and He will be reduced by one unit
Partially contracted basis set               ... on
Rotationally invariant grid construction     ... off

Total number of grid points                  ...    18101
Total number of batches                      ...      302
Average number of points per batch           ...       59
Average number of grid points per atom       ...      566
UseSFitting                                  ... on

GRIDX 2
-------
General Integration Accuracy     IntAcc      ... 4.020
Radial Grid Type                 RadialGrid  ... OptM3 with GC (2021)
Angular Grid (max. ang.)         AngularGrid ... 2 (Lebedev-110)
Angular grid pruning method      GridPruning ... 4 (adaptive)
Weight generation scheme         WeightScheme... Becke
Basis function cutoff            BFCut       ... 1.0000e-11
Integration weight cutoff        WCut        ... 1.0000e-14
Angular grids for H and He will be reduced by one unit
Partially contracted basis set               ... on
Rotationally invariant grid construction     ... off

Total number of grid points                  ...    38352
Total number of batches                      ...      616
Average number of points per batch           ...       62
Average number of grid points per atom       ...     1198
UseSFitting                                  ... on

GRIDX 3
-------
General Integration Accuracy     IntAcc      ... 4.338
Radial Grid Type                 RadialGrid  ... OptM3 with GC (2021)
Angular Grid (max. ang.)         AngularGrid ... 3 (Lebedev-194)
Angular grid pruning method      GridPruning ... 4 (adaptive)
Weight generation scheme         WeightScheme... Becke
Basis function cutoff            BFCut       ... 1.0000e-11
Integration weight cutoff        WCut        ... 1.0000e-14
Angular grids for H and He will be reduced by one unit
Partially contracted basis set               ... on
Rotationally invariant grid construction     ... off

Total number of grid points                  ...    83581
Total number of batches                      ...     1322
Average number of points per batch           ...       63
Average number of grid points per atom       ...     2612
UseSFitting                                  ... on

Time for X-Grid setup             =    0.695 sec

--------------
SCF ITERATIONS
--------------
ITER       Energy         Delta-E        Max-DP      RMS-DP      [F,P]     Damp
               ***  Starting incremental Fock matrix formation  ***
  0   -667.6908077000   0.000000000000 0.06240822  0.00094982  0.1291151 0.7000
  1   -667.9424898146  -0.251682114539 0.03650187  0.00065703  0.0548753 0.7000
                               ***Turning on DIIS***
  2   -668.0334358390  -0.090946024391 0.04558604  0.00100203  0.0176288 0.0000
  3   -668.1811094777  -0.147673638764 0.02748555  0.00047893  0.0333176 0.0000
  4   -668.2143056937  -0.033196215924 0.00922649  0.00016539  0.0064846 0.0000
  5   -668.2161756190  -0.001869925367 0.00390243  0.00006293  0.0048462 0.0000
  6   -668.2165559783  -0.000380359326 0.00322383  0.00004171  0.0007663 0.0000
               *** Restarting incremental Fock matrix formation ***
                                   *** Resetting DIIS ***
  7   -668.2165973525  -0.000041374147 0.00185242  0.00002116  0.0007077 0.0000
  8   -668.2165856949   0.000011657569 0.00071834  0.00000792  0.0010406 0.0000
  9   -668.2166083804  -0.000022685425 0.00027049  0.00000515  0.0002703 0.0000
 10   -668.2166100618  -0.000001681465 0.00020666  0.00000174  0.0000719 0.0000
 11   -668.2166101337  -0.000000071889 0.00009751  0.00000096  0.0000887 0.0000
 12   -668.2166102472  -0.000000113536 0.00003072  0.00000031  0.0000210 0.0000
 13   -668.2166102546  -0.000000007313 0.00001784  0.00000016  0.0000110 0.0000
 14   -668.2166102616  -0.000000007016 0.00000766  0.00000007  0.0000043 0.0000
 15   -668.2166102615   0.000000000102 0.00000475  0.00000004  0.0000045 0.0000
                            ***DIIS convergence achieved***

               *****************************************************
               *                     SUCCESS                       *
               *           SCF CONVERGED AFTER  16 CYCLES          *
               *****************************************************

Old exchange energy                            =    -17.869217944 Eh
New exchange energy                            =    -17.869271322 Eh
Exchange energy change after final integration =     -0.000053379 Eh
Total energy after final integration           =   -668.216663637 Eh
Final COS-X integration done in                =     2.219 sec

----------------
TOTAL SCF ENERGY
----------------

Total Energy       :         -668.21666364 Eh          -18183.09983 eV

Components:
Nuclear Repulsion  :          921.71747410 Eh           25081.20757 eV
Electronic Energy  :        -1589.93413774 Eh          -43264.30740 eV
One Electron Energy:        -2737.38930733 Eh          -74488.14996 eV
Two Electron Energy:         1147.45516959 Eh           31223.84255 eV
Max COSX asymmetry :            0.00000165 Eh               0.00004 eV

Virial components:
Potential Energy   :        -1332.04821659 Eh          -36246.87473 eV
Kinetic Energy     :          663.83155295 Eh           18063.77490 eV
Virial Ratio       :            2.00660576


DFT components:
N(Alpha)           :       54.999964299507 electrons
N(Beta)            :       53.999950012649 electrons
N(Total)           :      108.999914312156 electrons
E(X)               :      -70.970112671006 Eh       
E(C)               :       -4.315215559395 Eh       
E(XC)              :      -75.285328230401 Eh       
DFET-embed. en.    :        0.000000000000 Eh       

---------------
SCF CONVERGENCE
---------------

  Last Energy change         ...    3.5486e-09  Tolerance :   1.0000e-08
  Last MAX-Density change    ...    0.0000e+00  Tolerance :   1.0000e-07
  Last RMS-Density change    ...    0.0000e+00  Tolerance :   5.0000e-09
  Last DIIS Error            ...    5.9941e-07  Tolerance :   5.0000e-07

             **** THE GBW FILE WAS UPDATED (opt.gbw) ****
             **** DENSITY opt.scfp WAS UPDATED ****
             **** ENERGY FILE WAS UPDATED (opt.en.tmp) ****
----------------------
UHF SPIN CONTAMINATION
----------------------

Warning: in a DFT calculation there is little theoretical justification to 
         calculate <S**2> as in Hartree-Fock theory. We will do it anyways
         but you should keep in mind that the values have only limited relevance

Expectation value of <S**2>     :     0.753963
Ideal value S*(S+1) for S=0.5   :     0.750000
Deviation                       :     0.003963

             **** THE GBW FILE WAS UPDATED (opt.gbw) ****
             **** DENSITY opt.scfp WAS UPDATED ****
----------------
ORBITAL ENERGIES
----------------
                 SPIN UP ORBITALS
  NO   OCC          E(Eh)            E(eV) 
   0   1.0000     -19.122959      -520.3622 
   1   1.0000     -19.098844      -519.7060 
   2   1.0000     -14.367326      -390.9548 
   3   1.0000     -14.347373      -390.4119 
   4   1.0000     -14.307384      -389.3237 
   5   1.0000     -10.300311      -280.2857 
   6   1.0000     -10.283837      -279.8374 
   7   1.0000     -10.239514      -278.6313 
   8   1.0000     -10.224139      -278.2130 
   9   1.0000     -10.206856      -277.7427 
  10   1.0000     -10.201221      -277.5893 
  11   1.0000     -10.189730      -277.2767 
  12   1.0000     -10.184894      -277.1450 
  13   1.0000     -10.182488      -277.0796 
  14   1.0000      -1.054781       -28.7021 
  15   1.0000      -1.030269       -28.0351 
  16   1.0000      -0.934308       -25.4238 
  17   1.0000      -0.919451       -25.0195 
  18   1.0000      -0.877667       -23.8825 
  19   1.0000      -0.802133       -21.8271 
  20   1.0000      -0.762516       -20.7491 
  21   1.0000      -0.726940       -19.7811 
  22   1.0000      -0.708802       -19.2875 
  23   1.0000      -0.671181       -18.2638 
  24   1.0000      -0.612839       -16.6762 
  25   1.0000      -0.596150       -16.2221 
  26   1.0000      -0.587313       -15.9816 
  27   1.0000      -0.555747       -15.1226 
  28   1.0000      -0.535498       -14.5716 
  29   1.0000      -0.494367       -13.4524 
  30   1.0000      -0.487649       -13.2696 
  31   1.0000      -0.476165       -12.9571 
  32   1.0000      -0.469517       -12.7762 
  33   1.0000      -0.459550       -12.5050 
  34   1.0000      -0.453982       -12.3535 
  35   1.0000      -0.448315       -12.1993 
  36   1.0000      -0.434807       -11.8317 
  37   1.0000      -0.430097       -11.7035 
  38   1.0000      -0.416836       -11.3427 
  39   1.0000      -0.402967       -10.9653 
  40   1.0000      -0.400420       -10.8960 
  41   1.0000      -0.392770       -10.6878 
  42   1.0000      -0.390379       -10.6228 
  43   1.0000      -0.383375       -10.4322 
  44   1.0000      -0.366045        -9.9606 
  45   1.0000      -0.355659        -9.6780 
  46   1.0000      -0.349313        -9.5053 
  47   1.0000      -0.334457        -9.1010 
  48   1.0000      -0.332110        -9.0372 
  49   1.0000      -0.280604        -7.6356 
  50   1.0000      -0.270154        -7.3513 
  51   1.0000      -0.252464        -6.8699 
  52   1.0000      -0.248176        -6.7532 
  53   1.0000      -0.235681        -6.4132 
  54   1.0000      -0.198548        -5.4028 
  55   0.0000       0.006604         0.1797 
  56   0.0000       0.014773         0.4020 
  57   0.0000       0.021798         0.5932 
  58   0.0000       0.028460         0.7744 
  59   0.0000       0.032987         0.8976 
  60   0.0000       0.039067         1.0631 
  61   0.0000       0.052307         1.4233 
  62   0.0000       0.055606         1.5131 
  63   0.0000       0.070485         1.9180 
  64   0.0000       0.075572         2.0564 
  65   0.0000       0.095474         2.5980 
  66   0.0000       0.097158         2.6438 
  67   0.0000       0.114763         3.1229 
  68   0.0000       0.126664         3.4467 
  69   0.0000       0.151411         4.1201 
  70   0.0000       0.158640         4.3168 
  71   0.0000       0.164597         4.4789 
  72   0.0000       0.169678         4.6172 
  73   0.0000       0.176491         4.8026 
  74   0.0000       0.181298         4.9334 
  75   0.0000       0.189541         5.1577 
  76   0.0000       0.192216         5.2305 
  77   0.0000       0.196080         5.3356 
  78   0.0000       0.206396         5.6163 
  79   0.0000       0.207579         5.6485 
  80   0.0000       0.211904         5.7662 
  81   0.0000       0.217139         5.9086 
  82   0.0000       0.225422         6.1340 
  83   0.0000       0.231024         6.2865 
  84   0.0000       0.238708         6.4956 
  85   0.0000       0.241039         6.5590 
  86   0.0000       0.245428         6.6784 
  87   0.0000       0.249611         6.7923 
  88   0.0000       0.255254         6.9458 
  89   0.0000       0.264570         7.1993 
  90   0.0000       0.272232         7.4078 
  91   0.0000       0.276609         7.5269 
  92   0.0000       0.284862         7.7515 
  93   0.0000       0.285946         7.7810 
  94   0.0000       0.292596         7.9619 
  95   0.0000       0.299213         8.1420 
  96   0.0000       0.305041         8.3006 
  97   0.0000       0.311778         8.4839 
  98   0.0000       0.314682         8.5629 
  99   0.0000       0.316687         8.6175 
 100   0.0000       0.324046         8.8177 
 101   0.0000       0.332973         9.0606 
 102   0.0000       0.334321         9.0973 
 103   0.0000       0.346413         9.4264 
 104   0.0000       0.360018         9.7966 
 105   0.0000       0.374418        10.1884 
 106   0.0000       0.381631        10.3847 
 107   0.0000       0.391227        10.6458 
 108   0.0000       0.401957        10.9378 
 109   0.0000       0.407648        11.0927 
 110   0.0000       0.425528        11.5792 
 111   0.0000       0.428701        11.6655 
 112   0.0000       0.441282        12.0079 
 113   0.0000       0.453617        12.3435 
 114   0.0000       0.461196        12.5498 
 115   0.0000       0.464159        12.6304 
 116   0.0000       0.468400        12.7458 
 117   0.0000       0.484105        13.1732 
 118   0.0000       0.492013        13.3884 
 119   0.0000       0.501931        13.6582 
 120   0.0000       0.504191        13.7197 
 121   0.0000       0.531301        14.4574 
 122   0.0000       0.542016        14.7490 
 123   0.0000       0.544414        14.8143 
 124   0.0000       0.568789        15.4775 
 125   0.0000       0.574230        15.6256 
 126   0.0000       0.600328        16.3358 
 127   0.0000       0.613388        16.6911 
 128   0.0000       0.618578        16.8324 
 129   0.0000       0.633997        17.2519 
 130   0.0000       0.645505        17.5651 
 131   0.0000       0.668087        18.1796 
 132   0.0000       0.672289        18.2939 
 133   0.0000       0.701801        19.0970 
 134   0.0000       0.722188        19.6517 
 135   0.0000       0.732187        19.9238 
 136   0.0000       0.764897        20.8139 
 137   0.0000       0.767380        20.8815 
 138   0.0000       0.780329        21.2338 
 139   0.0000       0.785084        21.3632 
 140   0.0000       0.807801        21.9814 
 141   0.0000       0.816828        22.2270 
 142   0.0000       0.819102        22.2889 
 143   0.0000       0.823693        22.4138 
 144   0.0000       0.834513        22.7083 
 145   0.0000       0.841944        22.9105 
 146   0.0000       0.861252        23.4359 
 147   0.0000       0.868429        23.6312 
 148   0.0000       0.875676        23.8284 
 149   0.0000       0.886124        24.1126 
 150   0.0000       0.890331        24.2271 
 151   0.0000       0.904285        24.6068 
 152   0.0000       0.905770        24.6473 
 153   0.0000       0.912577        24.8325 
 154   0.0000       0.919804        25.0291 
 155   0.0000       0.920698        25.0535 
 156   0.0000       0.924744        25.1636 
 157   0.0000       0.926793        25.2193 
 158   0.0000       0.930835        25.3293 
 159   0.0000       0.951200        25.8835 
 160   0.0000       0.956733        26.0340 
 161   0.0000       0.963718        26.2241 
 162   0.0000       0.980538        26.6818 
 163   0.0000       0.984626        26.7930 
 164   0.0000       1.002388        27.2764 
 165   0.0000       1.016258        27.6538 
 166   0.0000       1.023206        27.8429 
 167   0.0000       1.027929        27.9714 
 168   0.0000       1.041700        28.3461 
 169   0.0000       1.047687        28.5090 
 170   0.0000       1.056006        28.7354 
 171   0.0000       1.067367        29.0445 
 172   0.0000       1.084104        29.5000 
 173   0.0000       1.100086        29.9349 
 174   0.0000       1.132627        30.8203 
 175   0.0000       1.155884        31.4532 
 176   0.0000       1.160401        31.5761 
 177   0.0000       1.169120        31.8134 
 178   0.0000       1.175940        31.9990 
 179   0.0000       1.194027        32.4911 
 180   0.0000       1.196324        32.5536 
 181   0.0000       1.199113        32.6295 
 182   0.0000       1.214298        33.0427 
 183   0.0000       1.245782        33.8995 
 184   0.0000       1.291435        35.1417 
 185   0.0000       1.317046        35.8386 
 186   0.0000       1.323745        36.0209 
 187   0.0000       1.340559        36.4785 
 188   0.0000       1.343805        36.5668 
 189   0.0000       1.358799        36.9748 
 190   0.0000       1.375345        37.4250 
 191   0.0000       1.385322        37.6965 
 192   0.0000       1.401347        38.1326 
 193   0.0000       1.411474        38.4082 
 194   0.0000       1.415788        38.5256 
 195   0.0000       1.433368        39.0039 
 196   0.0000       1.449531        39.4437 
 197   0.0000       1.465254        39.8716 
 198   0.0000       1.479491        40.2590 
 199   0.0000       1.484595        40.3979 
 200   0.0000       1.492881        40.6234 
 201   0.0000       1.508594        41.0509 
 202   0.0000       1.521695        41.4074 
 203   0.0000       1.534107        41.7452 
 204   0.0000       1.547799        42.1177 
 205   0.0000       1.551437        42.2168 
 206   0.0000       1.569172        42.6993 
 207   0.0000       1.575960        42.8840 
 208   0.0000       1.579395        42.9775 
 209   0.0000       1.594274        43.3824 
 210   0.0000       1.610535        43.8249 
 211   0.0000       1.624321        44.2000 
 212   0.0000       1.631811        44.4038 
 213   0.0000       1.637689        44.5638 
 214   0.0000       1.651801        44.9478 
 215   0.0000       1.658603        45.1329 
 216   0.0000       1.665853        45.3302 
 217   0.0000       1.683457        45.8092 
 218   0.0000       1.688650        45.9505 
 219   0.0000       1.693337        46.0780 
 220   0.0000       1.710176        46.5362 
 221   0.0000       1.717993        46.7490 
 222   0.0000       1.735347        47.2212 
 223   0.0000       1.747007        47.5385 
 224   0.0000       1.751167        47.6517 
 225   0.0000       1.757601        47.8268 
 226   0.0000       1.767068        48.0844 
 227   0.0000       1.773864        48.2693 
 228   0.0000       1.809123        49.2287 
 229   0.0000       1.810036        49.2536 
 230   0.0000       1.822055        49.5806 
 231   0.0000       1.842980        50.1500 
 232   0.0000       1.851566        50.3837 
 233   0.0000       1.856104        50.5072 
 234   0.0000       1.868893        50.8552 
 235   0.0000       1.884575        51.2819 
 236   0.0000       1.913257        52.0624 
 237   0.0000       1.922343        52.3096 
 238   0.0000       1.949399        53.0458 
 239   0.0000       1.960166        53.3388 
 240   0.0000       1.977920        53.8220 
 241   0.0000       2.010005        54.6950 
 242   0.0000       2.022427        55.0330 
 243   0.0000       2.051178        55.8154 
 244   0.0000       2.065625        56.2085 
 245   0.0000       2.069663        56.3184 
 246   0.0000       2.079996        56.5996 
 247   0.0000       2.096150        57.0392 
 248   0.0000       2.130516        57.9743 
 249   0.0000       2.140715        58.2518 
 250   0.0000       2.160144        58.7805 
 251   0.0000       2.176449        59.2242 
 252   0.0000       2.200070        59.8669 
 253   0.0000       2.208190        60.0879 
 254   0.0000       2.218973        60.3813 
 255   0.0000       2.258219        61.4493 
 256   0.0000       2.267728        61.7080 
 257   0.0000       2.284875        62.1746 
 258   0.0000       2.297204        62.5101 
 259   0.0000       2.313040        62.9410 
 260   0.0000       2.324359        63.2490 
 261   0.0000       2.343546        63.7711 
 262   0.0000       2.351243        63.9806 
 263   0.0000       2.379042        64.7370 
 264   0.0000       2.382707        64.8367 
 265   0.0000       2.388304        64.9891 
 266   0.0000       2.398115        65.2560 
 267   0.0000       2.420582        65.8674 
 268   0.0000       2.423040        65.9343 
 269   0.0000       2.444901        66.5291 
 270   0.0000       2.458666        66.9037 
 271   0.0000       2.464268        67.0561 
 272   0.0000       2.476411        67.3866 
 273   0.0000       2.485477        67.6333 
 274   0.0000       2.490954        67.7823 
 275   0.0000       2.498836        67.9968 
 276   0.0000       2.519933        68.5709 
 277   0.0000       2.543513        69.2125 
 278   0.0000       2.582276        70.2673 
 279   0.0000       2.598426        70.7068 
 280   0.0000       2.614177        71.1354 
 281   0.0000       2.635777        71.7231 
 282   0.0000       2.678199        72.8775 
 283   0.0000       2.694747        73.3278 
 284   0.0000       2.702621        73.5421 
 285   0.0000       2.736035        74.4513 
 286   0.0000       2.741792        74.6079 
 287   0.0000       2.758641        75.0665 
 288   0.0000       2.782670        75.7203 
 289   0.0000       2.802378        76.2566 
 290   0.0000       2.843652        77.3797 
 291   0.0000       2.913146        79.2707 
 292   0.0000       2.990514        81.3760 
 293   0.0000       3.047014        82.9135 
 294   0.0000       3.099115        84.3312 
 295   0.0000       3.127694        85.1089 
 296   0.0000       3.379489        91.9606 
 297   0.0000       3.441991        93.6613 
 298   0.0000       3.455037        94.0163 
 299   0.0000       3.466745        94.3349 
 300   0.0000       4.925830       134.0386 
 301   0.0000       4.977889       135.4552 
 302   0.0000       4.987701       135.7222 
 303   0.0000       4.988926       135.7556 
 304   0.0000       5.007510       136.2613 
 305   0.0000       5.015111       136.4681 
 306   0.0000       5.028872       136.8426 
 307   0.0000       5.034528       136.9965 
 308   0.0000       5.077239       138.1587 
 309   0.0000       5.112257       139.1116 
 310   0.0000       5.134583       139.7191 
 311   0.0000       5.156375       140.3121 
 312   0.0000       5.185394       141.1017 
 313   0.0000       5.216258       141.9416 
 314   0.0000       5.240192       142.5929 
 315   0.0000       5.254007       142.9688 
 316   0.0000       5.278644       143.6392 
 317   0.0000       5.304149       144.3332 
 318   0.0000       5.315816       144.6507 
 319   0.0000       5.354049       145.6911 
 320   0.0000       5.380189       146.4024 
 321   0.0000       5.446748       148.2135 
 322   0.0000       5.599753       152.3770 
 323   0.0000       5.653191       153.8312 
 324   0.0000       5.698837       155.0732 
 325   0.0000       5.741576       156.2362 
 326   0.0000       5.857948       159.4029 
 327   0.0000       7.221071       196.4953 
 328   0.0000       7.307325       198.8424 
 329   0.0000       7.336757       199.6433 
 330   0.0000       9.088965       247.3233 
 331   0.0000       9.112399       247.9610 
 332   0.0000      29.591385       805.2225 
 333   0.0000      29.629943       806.2717 
 334   0.0000      29.741378       809.3040 
 335   0.0000      29.877817       813.0167 
 336   0.0000      29.917458       814.0954 
 337   0.0000      30.063270       818.0632 
 338   0.0000      30.076070       818.4115 
 339   0.0000      30.150857       820.4465 
 340   0.0000      30.258528       823.3764 
 341   0.0000      36.540285       994.3117 
 342   0.0000      36.606356       996.1096 
 343   0.0000      36.607849       996.1502 
 344   0.0000      36.611841       996.2588 
 345   0.0000      36.630966       996.7793 
 346   0.0000      36.637085       996.9458 
 347   0.0000      36.649891       997.2942 
 348   0.0000      36.698204       998.6089 
 349   0.0000      36.705435       998.8057 
 350   0.0000      36.720192       999.2072 
 351   0.0000      36.734350       999.5925 
 352   0.0000      36.780878      1000.8586 
 353   0.0000      36.825994      1002.0862 
 354   0.0000      36.840651      1002.4851 
 355   0.0000      36.882628      1003.6273 
 356   0.0000      36.890676      1003.8463 
 357   0.0000      36.915636      1004.5255 
 358   0.0000      36.942621      1005.2598 
 359   0.0000      41.163444      1120.1143 
 360   0.0000      41.251493      1122.5102 
 361   0.0000      41.275456      1123.1623 
 362   0.0000      53.627507      1459.2787 
 363   0.0000      53.650717      1459.9102 

                 SPIN DOWN ORBITALS
  NO   OCC          E(Eh)            E(eV) 
   0   1.0000     -19.122666      -520.3542 
   1   1.0000     -19.098472      -519.6958 
   2   1.0000     -14.366902      -390.9433 
   3   1.0000     -14.346395      -390.3852 
   4   1.0000     -14.307362      -389.3231 
   5   1.0000     -10.299598      -280.2663 
   6   1.0000     -10.283831      -279.8373 
   7   1.0000     -10.240298      -278.6527 
   8   1.0000     -10.224154      -278.2134 
   9   1.0000     -10.206830      -277.7420 
  10   1.0000     -10.190520      -277.2981 
  11   1.0000     -10.187719      -277.2219 
  12   1.0000     -10.184802      -277.1426 
  13   1.0000     -10.182199      -277.0717 
  14   1.0000      -1.054015       -28.6812 
  15   1.0000      -1.029557       -28.0157 
  16   1.0000      -0.933340       -25.3975 
  17   1.0000      -0.917213       -24.9586 
  18   1.0000      -0.877566       -23.8798 
  19   1.0000      -0.791944       -21.5499 
  20   1.0000      -0.761259       -20.7149 
  21   1.0000      -0.726178       -19.7603 
  22   1.0000      -0.701897       -19.0996 
  23   1.0000      -0.669323       -18.2132 
  24   1.0000      -0.604317       -16.4443 
  25   1.0000      -0.594776       -16.1847 
  26   1.0000      -0.585861       -15.9421 
  27   1.0000      -0.546760       -14.8781 
  28   1.0000      -0.531688       -14.4680 
  29   1.0000      -0.492608       -13.4045 
  30   1.0000      -0.486519       -13.2389 
  31   1.0000      -0.475549       -12.9403 
  32   1.0000      -0.467049       -12.7091 
  33   1.0000      -0.458753       -12.4833 
  34   1.0000      -0.452892       -12.3238 
  35   1.0000      -0.446941       -12.1619 
  36   1.0000      -0.432367       -11.7653 
  37   1.0000      -0.428273       -11.6539 
  38   1.0000      -0.412103       -11.2139 
  39   1.0000      -0.402276       -10.9465 
  40   1.0000      -0.398141       -10.8340 
  41   1.0000      -0.390485       -10.6256 
  42   1.0000      -0.389635       -10.6025 
  43   1.0000      -0.381852       -10.3907 
  44   1.0000      -0.362973        -9.8770 
  45   1.0000      -0.354795        -9.6545 
  46   1.0000      -0.346006        -9.4153 
  47   1.0000      -0.332715        -9.0536 
  48   1.0000      -0.329285        -8.9603 
  49   1.0000      -0.274548        -7.4708 
  50   1.0000      -0.269152        -7.3240 
  51   1.0000      -0.250104        -6.8057 
  52   1.0000      -0.245137        -6.6705 
  53   1.0000      -0.235107        -6.3976 
  54   0.0000      -0.063510        -1.7282 
  55   0.0000       0.007475         0.2034 
  56   0.0000       0.016000         0.4354 
  57   0.0000       0.022691         0.6174 
  58   0.0000       0.028695         0.7808 
  59   0.0000       0.033881         0.9220 
  60   0.0000       0.040870         1.1121 
  61   0.0000       0.053325         1.4511 
  62   0.0000       0.055914         1.5215 
  63   0.0000       0.072038         1.9603 
  64   0.0000       0.077304         2.1035 
  65   0.0000       0.096413         2.6235 
  66   0.0000       0.098809         2.6887 
  67   0.0000       0.115755         3.1498 
  68   0.0000       0.127295         3.4639 
  69   0.0000       0.152546         4.1510 
  70   0.0000       0.159248         4.3334 
  71   0.0000       0.165481         4.5030 
  72   0.0000       0.170433         4.6377 
  73   0.0000       0.177866         4.8400 
  74   0.0000       0.183983         5.0064 
  75   0.0000       0.190644         5.1877 
  76   0.0000       0.193504         5.2655 
  77   0.0000       0.197563         5.3760 
  78   0.0000       0.207473         5.6456 
  79   0.0000       0.208741         5.6801 
  80   0.0000       0.215812         5.8726 
  81   0.0000       0.219137         5.9630 
  82   0.0000       0.226898         6.1742 
  83   0.0000       0.232736         6.3331 
  84   0.0000       0.239080         6.5057 
  85   0.0000       0.243088         6.6148 
  86   0.0000       0.246184         6.6990 
  87   0.0000       0.251981         6.8568 
  88   0.0000       0.256095         6.9687 
  89   0.0000       0.267359         7.2752 
  90   0.0000       0.273437         7.4406 
  91   0.0000       0.282628         7.6907 
  92   0.0000       0.285873         7.7790 
  93   0.0000       0.288594         7.8531 
  94   0.0000       0.294152         8.0043 
  95   0.0000       0.300581         8.1792 
  96   0.0000       0.307347         8.3633 
  97   0.0000       0.312253         8.4968 
  98   0.0000       0.315890         8.5958 
  99   0.0000       0.318910         8.6780 
 100   0.0000       0.325084         8.8460 
 101   0.0000       0.333866         9.0849 
 102   0.0000       0.335139         9.1196 
 103   0.0000       0.349346         9.5062 
 104   0.0000       0.361344         9.8327 
 105   0.0000       0.377148        10.2627 
 106   0.0000       0.386277        10.5111 
 107   0.0000       0.392679        10.6853 
 108   0.0000       0.403696        10.9851 
 109   0.0000       0.411064        11.1856 
 110   0.0000       0.429004        11.6738 
 111   0.0000       0.431635        11.7454 
 112   0.0000       0.443669        12.0728 
 113   0.0000       0.455379        12.3915 
 114   0.0000       0.463482        12.6120 
 115   0.0000       0.465126        12.6567 
 116   0.0000       0.474001        12.8982 
 117   0.0000       0.484553        13.1854 
 118   0.0000       0.497975        13.5506 
 119   0.0000       0.505106        13.7446 
 120   0.0000       0.519161        14.1271 
 121   0.0000       0.534431        14.5426 
 122   0.0000       0.543781        14.7970 
 123   0.0000       0.548398        14.9227 
 124   0.0000       0.570711        15.5298 
 125   0.0000       0.576099        15.6765 
 126   0.0000       0.601532        16.3685 
 127   0.0000       0.613957        16.7066 
 128   0.0000       0.621004        16.8984 
 129   0.0000       0.636700        17.3255 
 130   0.0000       0.648407        17.6441 
 131   0.0000       0.668756        18.1978 
 132   0.0000       0.673740        18.3334 
 133   0.0000       0.704112        19.1599 
 134   0.0000       0.724038        19.7021 
 135   0.0000       0.736715        20.0470 
 136   0.0000       0.766342        20.8532 
 137   0.0000       0.769543        20.9403 
 138   0.0000       0.782931        21.3046 
 139   0.0000       0.785970        21.3873 
 140   0.0000       0.808779        22.0080 
 141   0.0000       0.818292        22.2668 
 142   0.0000       0.820831        22.3359 
 143   0.0000       0.824399        22.4330 
 144   0.0000       0.835405        22.7325 
 145   0.0000       0.842449        22.9242 
 146   0.0000       0.861918        23.4540 
 147   0.0000       0.869627        23.6638 
 148   0.0000       0.877309        23.8728 
 149   0.0000       0.888379        24.1740 
 150   0.0000       0.893221        24.3058 
 151   0.0000       0.904920        24.6241 
 152   0.0000       0.907361        24.6906 
 153   0.0000       0.913565        24.8594 
 154   0.0000       0.920670        25.0527 
 155   0.0000       0.922257        25.0959 
 156   0.0000       0.925157        25.1748 
 157   0.0000       0.927547        25.2398 
 158   0.0000       0.932236        25.3674 
 159   0.0000       0.952843        25.9282 
 160   0.0000       0.957643        26.0588 
 161   0.0000       0.966194        26.2915 
 162   0.0000       0.982457        26.7340 
 163   0.0000       0.987448        26.8698 
 164   0.0000       1.002923        27.2909 
 165   0.0000       1.019208        27.7341 
 166   0.0000       1.028813        27.9954 
 167   0.0000       1.031520        28.0691 
 168   0.0000       1.044416        28.4200 
 169   0.0000       1.051658        28.6171 
 170   0.0000       1.057433        28.7742 
 171   0.0000       1.069194        29.0942 
 172   0.0000       1.087293        29.5867 
 173   0.0000       1.102075        29.9890 
 174   0.0000       1.137314        30.9479 
 175   0.0000       1.156803        31.4782 
 176   0.0000       1.161866        31.6160 
 177   0.0000       1.171383        31.8750 
 178   0.0000       1.176853        32.0238 
 179   0.0000       1.194554        32.5055 
 180   0.0000       1.197996        32.5991 
 181   0.0000       1.200373        32.6638 
 182   0.0000       1.217007        33.1164 
 183   0.0000       1.247454        33.9450 
 184   0.0000       1.294490        35.2249 
 185   0.0000       1.319135        35.8955 
 186   0.0000       1.329236        36.1704 
 187   0.0000       1.344252        36.5790 
 188   0.0000       1.348542        36.6957 
 189   0.0000       1.366715        37.1902 
 190   0.0000       1.378962        37.5235 
 191   0.0000       1.388379        37.7797 
 192   0.0000       1.403483        38.1907 
 193   0.0000       1.411779        38.4165 
 194   0.0000       1.416292        38.5393 
 195   0.0000       1.439823        39.1796 
 196   0.0000       1.454231        39.5716 
 197   0.0000       1.468572        39.9619 
 198   0.0000       1.480544        40.2876 
 199   0.0000       1.485156        40.4131 
 200   0.0000       1.494154        40.6580 
 201   0.0000       1.510070        41.0911 
 202   0.0000       1.523357        41.4526 
 203   0.0000       1.537895        41.8482 
 204   0.0000       1.549648        42.1681 
 205   0.0000       1.553268        42.2666 
 206   0.0000       1.571802        42.7709 
 207   0.0000       1.577661        42.9303 
 208   0.0000       1.581646        43.0388 
 209   0.0000       1.595543        43.4169 
 210   0.0000       1.612928        43.8900 
 211   0.0000       1.625499        44.2321 
 212   0.0000       1.633400        44.4471 
 213   0.0000       1.640881        44.6506 
 214   0.0000       1.654428        45.0193 
 215   0.0000       1.660384        45.1813 
 216   0.0000       1.668937        45.4141 
 217   0.0000       1.684758        45.8446 
 218   0.0000       1.690791        46.0088 
 219   0.0000       1.696368        46.1605 
 220   0.0000       1.712771        46.6069 
 221   0.0000       1.720885        46.8277 
 222   0.0000       1.737412        47.2774 
 223   0.0000       1.748276        47.5730 
 224   0.0000       1.754415        47.7400 
 225   0.0000       1.760155        47.8962 
 226   0.0000       1.771903        48.2159 
 227   0.0000       1.775969        48.3266 
 228   0.0000       1.810583        49.2685 
 229   0.0000       1.814063        49.3632 
 230   0.0000       1.827124        49.7186 
 231   0.0000       1.844416        50.1891 
 232   0.0000       1.856599        50.5206 
 233   0.0000       1.859026        50.5867 
 234   0.0000       1.871594        50.9287 
[...]
  6 C s       :     2.884225  s :     2.884225
      pz      :     1.016551  p :     3.033208
      px      :     0.990754
      py      :     1.025902
      dz2     :     0.018498  d :     0.166881
      dxz     :     0.046521
      dyz     :     0.039432
      dx2y2   :     0.042939
      dxy     :     0.019491
  7 C s       :     2.872798  s :     2.872798
      pz      :     1.009525  p :     2.970733
      px      :     0.928885
      py      :     1.032323
      dz2     :     0.021422  d :     0.218442
      dxz     :     0.058002
      dyz     :     0.049217
      dx2y2   :     0.054880
      dxy     :     0.034920
  8 N s       :     3.177290  s :     3.177290
      pz      :     1.228123  p :     3.865237
      px      :     1.109501
      py      :     1.527612
      dz2     :     0.004098  d :     0.053020
      dxz     :     0.020035
      dyz     :     0.009395
      dx2y2   :     0.012291
      dxy     :     0.007201
  9 H s       :     0.863907  s :     0.863907
      pz      :     0.044030  p :     0.091135
      px      :     0.016110
      py      :     0.030995
 10 H s       :     0.866358  s :     0.866358
      pz      :     0.031014  p :     0.079310
      px      :     0.016796
      py      :     0.031500
 11 H s       :     0.857675  s :     0.857675
      pz      :     0.024524  p :     0.080560
      px      :     0.016224
      py      :     0.039812
 12 H s       :     0.877249  s :     0.877249
      pz      :     0.032629  p :     0.079419
      px      :     0.016668
      py      :     0.030121
 13 H s       :     0.871737  s :     0.871737
      pz      :     0.023329  p :     0.080438
      px      :     0.015876
      py      :     0.041233
 14 H s       :     0.884008  s :     0.884008
      pz      :     0.030955  p :     0.077475
      px      :     0.014855
      py      :     0.031665
 15 H s       :     0.896597  s :     0.896597
      pz      :     0.023404  p :     0.079098
      px      :     0.014787
      py      :     0.040907
 16 H s       :     0.810022  s :     0.810022
      pz      :     0.049158  p :     0.140581
      px      :     0.049680
      py      :     0.041743
 17 H s       :     0.807755  s :     0.807755
      pz      :     0.050105  p :     0.140736
      px      :     0.024644
      py      :     0.065987
 18 H s       :     0.754827  s :     0.754827
      pz      :     0.057962  p :     0.155503
      px      :     0.052367
      py      :     0.045175
 19 C s       :     2.843684  s :     2.843684
      pz      :     0.987650  p :     2.772476
      px      :     0.826616
      py      :     0.958210
      dz2     :     0.127519  d :     0.487310
      dxz     :     0.069034
      dyz     :     0.123340
      dx2y2   :     0.085249
      dxy     :     0.082168
 20 N s       :     3.062647  s :     3.062647
      pz      :     1.283667  p :     3.809146
      px      :     1.380237
      py      :     1.145242
      dz2     :     0.011446  d :     0.081417
      dxz     :     0.008577
      dyz     :     0.025571
      dx2y2   :     0.017984
      dxy     :     0.017839
 21 H s       :     0.767014  s :     0.767014
      pz      :     0.058989  p :     0.149125
      px      :     0.059680
      py      :     0.030456
 22 O s       :     3.583464  s :     3.583464
      pz      :     1.484296  p :     4.570940
      px      :     1.453160
      py      :     1.633484
      dz2     :     0.008873  d :     0.031991
      dxz     :     0.005894
      dyz     :     0.011752
      dx2y2   :     0.002618
      dxy     :     0.002854
 23 C s       :     2.872173  s :     2.872173
      pz      :     1.000282  p :     3.064956
      px      :     1.035881
      py      :     1.028793
      dz2     :     0.020927  d :     0.105685
      dxz     :     0.020781
      dyz     :     0.033085
      dx2y2   :     0.007874
      dxy     :     0.023018
 24 H s       :     0.864280  s :     0.864280
      pz      :     0.018426  p :     0.081557
      px      :     0.038248
      py      :     0.024884
 25 H s       :     0.884711  s :     0.884711
      pz      :     0.034456  p :     0.081497
      px      :     0.018733
      py      :     0.028308
 26 H s       :     0.864768  s :     0.864768
      pz      :     0.019070  p :     0.081549
      px      :     0.029910
      py      :     0.032569
 27 C s       :     2.855865  s :     2.855865
      pz      :     1.051702  p :     2.972885
      px      :     1.052702
      py      :     0.868482
      dz2     :     0.022904  d :     0.159709
      dxz     :     0.017971
      dyz     :     0.033966
      dx2y2   :     0.043243
      dxy     :     0.041626
 28 H s       :     0.862380  s :     0.862380
      pz      :     0.035730  p :     0.083888
      px      :     0.034656
      py      :     0.013502
 29 H s       :     0.888567  s :     0.888567
      pz      :     0.040129  p :     0.079123
      px      :     0.021023
      py      :     0.017971
 30 H s       :     0.888370  s :     0.888370
      pz      :     0.020402  p :     0.079217
      px      :     0.039528
      py      :     0.019287
 31 H s       :     0.844901  s :     0.844901
      pz      :     0.035563  p :     0.081015
      px      :     0.027969
      py      :     0.017483

SPIN
  0 N s       :     0.004659  s :     0.004659
      pz      :     0.008440  p :     0.022215
      px      :     0.009059
      py      :     0.004716
      dz2     :    -0.000124  d :    -0.000238
      dxz     :     0.000127
      dyz     :    -0.000127
      dx2y2   :    -0.000096
      dxy     :    -0.000017
  1 C s       :    -0.002549  s :    -0.002549
      pz      :    -0.001312  p :    -0.017615
      px      :    -0.012380
      py      :    -0.003923
      dz2     :     0.004415  d :     0.034476
      dxz     :     0.002929
      dyz     :     0.006505
      dx2y2   :     0.003418
      dxy     :     0.017209
  2 C s       :     0.007760  s :     0.007760
      pz      :     0.002184  p :     0.019145
      px      :     0.002730
      py      :     0.014231
      dz2     :    -0.000078  d :    -0.000412
      dxz     :     0.000372
      dyz     :     0.000000
      dx2y2   :    -0.000103
      dxy     :    -0.000603
  3 O s       :     0.000963  s :     0.000963
      pz      :    -0.000687  p :     0.009365
      px      :    -0.001042
      py      :     0.011093
      dz2     :     0.000022  d :     0.000138
      dxz     :     0.000003
      dyz     :     0.000071
      dx2y2   :     0.000009
      dxy     :     0.000033
  4 C s       :     0.029705  s :     0.029705
      pz      :     0.091063  p :     0.770130
      px      :     0.032205
      py      :     0.646862
      dz2     :    -0.000715  d :    -0.002412
      dxz     :    -0.001210
      dyz     :     0.001001
      dx2y2   :    -0.001381
      dxy     :    -0.000107
  5 C s       :    -0.002908  s :    -0.002908
      pz      :    -0.008348  p :    -0.021301
      px      :    -0.008885
      py      :    -0.004068
      dz2     :     0.001363  d :     0.032077
      dxz     :     0.002235
      dyz     :     0.016925
      dx2y2   :     0.002847
      dxy     :     0.008706
  6 C s       :     0.002755  s :     0.002755
      pz      :     0.001461  p :     0.008457
      px      :     0.006490
      py      :     0.000506
      dz2     :    -0.000119  d :    -0.000390
      dxz     :    -0.000033
      dyz     :     0.000215
      dx2y2   :    -0.000293
      dxy     :    -0.000160
  7 C s       :    -0.000094  s :    -0.000094
      pz      :     0.000372  p :     0.001405
      px      :     0.000225
      py      :     0.000809
      dz2     :     0.000070  d :     0.000069
      dxz     :    -0.000031
      dyz     :     0.000049
      dx2y2   :    -0.000004
      dxy     :    -0.000015
  8 N s       :     0.000136  s :     0.000136
      pz      :     0.000111  p :     0.000405
      px      :    -0.000023
      py      :     0.000317
      dz2     :     0.000001  d :     0.000042
      dxz     :     0.000014
      dyz     :     0.000006
      dx2y2   :     0.000014
      dxy     :     0.000006
  9 H s       :    -0.016662  s :    -0.016662
      pz      :     0.006326  p :     0.026457
      px      :     0.000769
      py      :     0.019362
 10 H s       :     0.013439  s :     0.013439
      pz      :    -0.000500  p :    -0.000718
      px      :    -0.000189
      py      :    -0.000029
 11 H s       :     0.043922  s :     0.043922
      pz      :    -0.000288  p :    -0.000957
      px      :    -0.000002
      py      :    -0.000666
 12 H s       :    -0.000221  s :    -0.000221
      pz      :     0.000018  p :     0.000304
      px      :     0.000259
      py      :     0.000027
 13 H s       :    -0.000630  s :    -0.000630
      pz      :     0.000247  p :     0.000375
      px      :    -0.000001
      py      :     0.000130
 14 H s       :     0.000141  s :     0.000141
      pz      :     0.000016  p :     0.000022
      px      :     0.000001
      py      :     0.000005
 15 H s       :     0.000371  s :     0.000371
      pz      :    -0.000013  p :     0.000156
      px      :     0.000136
      py      :     0.000033
 16 H s       :     0.000185  s :     0.000185
      pz      :    -0.000003  p :    -0.000000
      px      :    -0.000003
      py      :     0.000006
 17 H s       :     0.000003  s :     0.000003
      pz      :    -0.000003  p :     0.000015
      px      :    -0.000004
      py      :     0.000021
 18 H s       :     0.000172  s :     0.000172
      pz      :     0.000154  p :     0.001165
      px      :     0.000282
      py      :     0.000730
 19 C s       :    -0.000170  s :    -0.000170
      pz      :     0.000120  p :     0.000593
      px      :     0.000867
      py      :    -0.000395
      dz2     :     0.000376  d :     0.001895
      dxz     :    -0.000051
      dyz     :     0.001255
      dx2y2   :     0.000031
      dxy     :     0.000282
 20 N s       :     0.001591  s :     0.001591
      pz      :     0.001998  p :     0.012278
      px      :     0.009581
      py      :     0.000699
      dz2     :     0.000002  d :     0.000333
      dxz     :     0.000054
      dyz     :     0.000118
      dx2y2   :     0.000038
      dxy     :     0.000121
 21 H s       :     0.002378  s :     0.002378
      pz      :     0.000783  p :     0.005016
      px      :     0.000943
      py      :     0.003289
 22 O s       :     0.000921  s :     0.000921
      pz      :     0.003980  p :     0.006615
      px      :    -0.000963
      py      :     0.003598
      dz2     :     0.000008  d :     0.000015
      dxz     :     0.000013
      dyz     :    -0.000005
      dx2y2   :    -0.000000
      dxy     :    -0.000000
 23 C s       :     0.000719  s :     0.000719
      pz      :     0.000899  p :     0.001874
      px      :     0.000223
      py      :     0.000751
      dz2     :    -0.000016  d :     0.000080
      dxz     :     0.000002
      dyz     :     0.000002
      dx2y2   :     0.000081
      dxy     :     0.000010
 24 H s       :    -0.000107  s :    -0.000107
      pz      :     0.000011  p :     0.000057
      px      :     0.000009
      py      :     0.000038
 25 H s       :    -0.000027  s :    -0.000027
      pz      :     0.000042  p :     0.000036
      px      :     0.000001
      py      :    -0.000007
 26 H s       :     0.000373  s :     0.000373
      pz      :     0.000035  p :     0.000089
      px      :     0.000012
      py      :     0.000042
 27 C s       :    -0.000047  s :    -0.000047
      pz      :    -0.000057  p :    -0.000673
      px      :    -0.000173
      py      :    -0.000443
      dz2     :     0.000045  d :     0.000912
      dxz     :     0.000160
      dyz     :     0.000066
      dx2y2   :     0.000066
      dxy     :     0.000574
 28 H s       :     0.000894  s :     0.000894
      pz      :     0.000015  p :     0.000024
      px      :     0.000017
      py      :    -0.000008
 29 H s       :    -0.000024  s :    -0.000024
      pz      :    -0.000006  p :    -0.000027
      px      :    -0.000009
      py      :    -0.000013
 30 H s       :     0.000348  s :     0.000348
      pz      :    -0.000005  p :    -0.000032
      px      :    -0.000014
      py      :    -0.000013
 31 H s       :     0.001361  s :     0.001361
      pz      :    -0.000175  p :    -0.000814
      px      :    -0.000364
      py      :    -0.000275


                      *****************************
                      * MAYER POPULATION ANALYSIS *
                      *****************************

  NA   - Mulliken gross atomic population
  ZA   - Total nuclear charge
  QA   - Mulliken gross atomic charge
  VA   - Mayer's total valence
  BVA  - Mayer's bonded valence
  FA   - Mayer's free valence

  ATOM       NA         ZA         QA         VA         BVA        FA
  0 N      7.1318     7.0000    -0.1318     3.2780     3.2771     0.0009
  1 C      6.1109     6.0000    -0.1109     4.0720     4.0705     0.0015
  2 C      5.9446     6.0000     0.0554     3.9897     3.9890     0.0007
  3 O      8.3381     8.0000    -0.3381     2.1119     2.1118     0.0001
  4 C      6.1365     6.0000    -0.1365     3.8817     3.1481     0.7337
  5 C      6.2183     6.0000    -0.2183     3.9461     3.9438     0.0023
  6 C      6.2877     6.0000    -0.2877     3.9418     3.9417     0.0002
  7 C      6.2904     6.0000    -0.2904     3.9168     3.9168     0.0000
  8 N      7.4560     7.0000    -0.4560     2.9684     2.9684     0.0000
  9 H      0.8862     1.0000     0.1138     0.9722     0.9692     0.0030
 10 H      0.8521     1.0000     0.1479     0.9693     0.9690     0.0003
 11 H      0.8442     1.0000     0.1558     0.9654     0.9625     0.0029
 12 H      0.8557     1.0000     0.1443     0.9694     0.9694     0.0000
 13 H      0.8389     1.0000     0.1611     0.9660     0.9660     0.0000
 14 H      0.8432     1.0000     0.1568     0.9543     0.9543     0.0000
 15 H      0.8654     1.0000     0.1346     0.9476     0.9476     0.0000
 16 H      0.7894     1.0000     0.2106     0.9587     0.9587     0.0000
 17 H      0.7897     1.0000     0.2103     0.9596     0.9596     0.0000
 18 H      0.7502     1.0000     0.2498     0.9733     0.9733     0.0000
 19 C      5.8228     6.0000     0.1772     3.9625     3.9625    -0.0000
 20 N      7.0748     7.0000    -0.0748     3.1785     3.1781     0.0004
 21 H      0.7637     1.0000     0.2363     0.9644     0.9644     0.0000
 22 O      8.3182     8.0000    -0.3182     2.1265     2.1263     0.0002
 23 C      6.5517     6.0000    -0.5517     3.8588     3.8588     0.0000
 24 H      0.8145     1.0000     0.1855     0.9593     0.9593     0.0000
 25 H      0.8505     1.0000     0.1495     0.9710     0.9710     0.0000
 26 H      0.8169     1.0000     0.1831     0.9599     0.9599     0.0000
 27 C      6.4539     6.0000    -0.4539     3.8955     3.8955     0.0000
 28 H      0.8027     1.0000     0.1973     0.9645     0.9645     0.0000
 29 H      0.8390     1.0000     0.1610     0.9581     0.9581     0.0000
 30 H      0.8356     1.0000     0.1644     0.9559     0.9559     0.0000
 31 H      0.8265     1.0000     0.1735     0.9445     0.9445     0.0000

  Mayer bond orders larger than 0.100000
B(  0-N ,  1-C ) :   1.0316 B(  0-N , 18-H ) :   0.8877 B(  0-N , 19-C ) :   1.2057 
B(  1-C ,  2-C ) :   0.8716 B(  1-C ,  4-C ) :   0.9802 B(  1-C , 22-O ) :   0.1141 
B(  1-C , 31-H ) :   0.9578 B(  2-C ,  3-O ) :   1.8513 B(  2-C , 20-N ) :   1.1960 
B(  4-C ,  5-C ) :   1.0141 B(  4-C ,  9-H ) :   0.9826 B(  5-C ,  6-C ) :   0.9611 
B(  5-C , 10-H ) :   0.9624 B(  5-C , 11-H ) :   0.9420 B(  6-C ,  7-C ) :   0.9643 
B(  6-C , 12-H ) :   0.9759 B(  6-C , 13-H ) :   0.9683 B(  7-C ,  8-N ) :   1.0226 
B(  7-C , 14-H ) :   0.9590 B(  7-C , 15-H ) :   0.9408 B(  8-N , 16-H ) :   0.9441 
B(  8-N , 17-H ) :   0.9471 B( 19-C , 22-O ) :   1.8654 B( 19-C , 23-C ) :   0.8879 
B( 20-N , 21-H ) :   0.9154 B( 20-N , 27-C ) :   0.9662 B( 23-C , 24-H ) :   0.9596 
B( 23-C , 25-H ) :   0.9761 B( 23-C , 26-H ) :   0.9600 B( 27-C , 28-H ) :   0.9465 
B( 27-C , 29-H ) :   0.9629 B( 27-C , 30-H ) :   0.9568 

-------
TIMINGS
-------

Total SCF time: 0 days 0 hours 0 min 17 sec 

Total time                  ....      17.137 sec
Sum of individual times     ....      16.337 sec  ( 95.3%)

Fock matrix formation       ....      14.093 sec  ( 82.2%)
  Split-RI-J                ....       1.204 sec  (  8.5% of F)
  Chain of spheres X        ....       9.578 sec  ( 68.0% of F)
  XC integration            ....       2.934 sec  ( 20.8% of F)
    Basis function eval.    ....       0.316 sec  ( 10.8% of XC)
    Density eval.           ....       0.436 sec  ( 14.8% of XC)
    XC-Functional eval.     ....       0.074 sec  (  2.5% of XC)
    XC-Potential eval.      ....       0.266 sec  (  9.0% of XC)
Diagonalization             ....       0.557 sec  (  3.2%)
Density matrix formation    ....       0.031 sec  (  0.2%)
Population analysis         ....       0.063 sec  (  0.4%)
Initial guess               ....       0.058 sec  (  0.3%)
Orbital Transformation      ....       0.000 sec  (  0.0%)
Orbital Orthonormalization  ....       0.041 sec  (  0.2%)
DIIS solution               ....       0.286 sec  (  1.7%)
Grid generation             ....       1.249 sec  (  7.3%)

Maximum memory used throughout the entire SCF-calculation: 83.8 MB

-------------------------   --------------------
FINAL SINGLE POINT ENERGY      -668.218390110173
-------------------------   --------------------

                                *** OPTIMIZATION RUN DONE ***

                            ***************************************
                            *     ORCA property calculations      *
                            ***************************************

                                    ---------------------
                                    Active property flags
                                    ---------------------
   (+) Dipole Moment


------------------------------------------------------------------------------
                       ORCA ELECTRIC PROPERTIES CALCULATION
------------------------------------------------------------------------------

Dipole Moment Calculation                       ... on
Quadrupole Moment Calculation                   ... off
Polarizability Calculation                      ... off
GBWName                                         ... opt.gbw
Electron density                                ... opt.scfp
The origin for moment calculation is the CENTER OF MASS  = (-0.771233, -0.128231  0.293584)

-------------
DIPOLE MOMENT
-------------
                                X             Y             Z
Electronic contribution:    -11.20197       1.53103      -1.08518
Nuclear contribution   :     11.89378      -2.24023       1.15487
                        -----------------------------------------
Total Dipole Moment    :      0.69181      -0.70919       0.06968
                        -----------------------------------------
Magnitude (a.u.)       :      0.99318
Magnitude (Debye)      :      2.52447



--------------------
Rotational spectrum 
--------------------
 
Rotational constants in cm-1:     0.020180     0.013329     0.008891 
Rotational constants in MHz :   604.971780   399.580939   266.547810 

 Dipole components along the rotational axes: 
x,y,z [a.u.] :     0.773252    -0.559226     0.275242 
x,y,z [Debye]:     1.965450    -1.421440     0.699609 

 

Timings for individual modules:

Sum of individual times         ...      681.454 sec (=  11.358 min)
GTO integral calculation        ...       58.911 sec (=   0.982 min)   8.6 %
SCF iterations                  ...      451.884 sec (=   7.531 min)  66.3 %
SCF Gradient evaluation         ...      169.659 sec (=   2.828 min)  24.9 %
Geometry relaxation             ...        1.000 sec (=   0.017 min)   0.1 %
                             ****ORCA TERMINATED NORMALLY****
TOTAL RUN TIME: 0 days 0 hours 12 minutes 14 seconds 36 msec
